 Entering Gaussian System, Link 0=g16
 Input=prod_5e_4.com
 Output=prod_5e_4.log
 Initial command:
 /uufs/chpc.utah.edu/sys/installdir/gaussian16/C01/AVX/g16/l1.exe "/scratch/general/vast/u1366379/GAUSSSCRDIR/11028649-notchpeak.peaks/Gau-1651764.inp" -scrdir="/scratch/general/vast/u1366379/GAUSSSCRDIR/11028649-notchpeak.peaks/"
 Entering Link 1 = /uufs/chpc.utah.edu/sys/installdir/gaussian16/C01/AVX/g16/l1.exe PID=   1651772.
  
 Copyright (c) 1988-2019, Gaussian, Inc.  All Rights Reserved.
  
 This is part of the Gaussian(R) 16 program.  It is based on
 the Gaussian(R) 09 system (copyright 2009, Gaussian, Inc.),
 the Gaussian(R) 03 system (copyright 2003, Gaussian, Inc.),
 the Gaussian(R) 98 system (copyright 1998, Gaussian, Inc.),
 the Gaussian(R) 94 system (copyright 1995, Gaussian, Inc.),
 the Gaussian 92(TM) system (copyright 1992, Gaussian, Inc.),
 the Gaussian 90(TM) system (copyright 1990, Gaussian, Inc.),
 the Gaussian 88(TM) system (copyright 1988, Gaussian, Inc.),
 the Gaussian 86(TM) system (copyright 1986, Carnegie Mellon
 University), and the Gaussian 82(TM) system (copyright 1983,
 Carnegie Mellon University). Gaussian is a federally registered
 trademark of Gaussian, Inc.
  
 This software contains proprietary and confidential information,
 including trade secrets, belonging to Gaussian, Inc.
  
 This software is provided under written license and may be
 used, copied, transmitted, or stored only in accord with that
 written license.
  
 The following legend is applicable only to US Government
 contracts under FAR:
  
                    RESTRICTED RIGHTS LEGEND
  
 Use, reproduction and disclosure by the US Government is
 subject to restrictions as set forth in subparagraphs (a)
 and (c) of the Commercial Computer Software - Restricted
 Rights clause in FAR 52.227-19.
  
 Gaussian, Inc.
 340 Quinnipiac St., Bldg. 40, Wallingford CT 06492
  
  
 ---------------------------------------------------------------
 Warning -- This program may not be used in any manner that
 competes with the business of Gaussian, Inc. or will provide
 assistance to any competitor of Gaussian, Inc.  The licensee
 of this program is prohibited from giving any competitor of
 Gaussian, Inc. access to this program.  By using this program,
 the user acknowledges that Gaussian, Inc. is engaged in the
 business of creating and licensing software in the field of
 computational chemistry and represents and warrants to the
 licensee that it is not a competitor of Gaussian, Inc. and that
 it will not use this program in any manner prohibited above.
 ---------------------------------------------------------------
  

 Cite this work as:
 Gaussian 16, Revision C.01,
 M. J. Frisch, G. W. Trucks, H. B. Schlegel, G. E. Scuseria, 
 M. A. Robb, J. R. Cheeseman, G. Scalmani, V. Barone, 
 G. A. Petersson, H. Nakatsuji, X. Li, M. Caricato, A. V. Marenich, 
 J. Bloino, B. G. Janesko, R. Gomperts, B. Mennucci, H. P. Hratchian, 
 J. V. Ortiz, A. F. Izmaylov, J. L. Sonnenberg, D. Williams-Young, 
 F. Ding, F. Lipparini, F. Egidi, J. Goings, B. Peng, A. Petrone, 
 T. Henderson, D. Ranasinghe, V. G. Zakrzewski, J. Gao, N. Rega, 
 G. Zheng, W. Liang, M. Hada, M. Ehara, K. Toyota, R. Fukuda, 
 J. Hasegawa, M. Ishida, T. Nakajima, Y. Honda, O. Kitao, H. Nakai, 
 T. Vreven, K. Throssell, J. A. Montgomery, Jr., J. E. Peralta, 
 F. Ogliaro, M. J. Bearpark, J. J. Heyd, E. N. Brothers, K. N. Kudin, 
 V. N. Staroverov, T. A. Keith, R. Kobayashi, J. Normand, 
 K. Raghavachari, A. P. Rendell, J. C. Burant, S. S. Iyengar, 
 J. Tomasi, M. Cossi, J. M. Millam, M. Klene, C. Adamo, R. Cammi, 
 J. W. Ochterski, R. L. Martin, K. Morokuma, O. Farkas, 
 J. B. Foresman, and D. J. Fox, Gaussian, Inc., Wallingford CT, 2019.
 
 ******************************************
 Gaussian 16:  ES64L-G16RevC.01  3-Jul-2019
                17-Feb-2026 
 ******************************************
 %NProcShared=8
 Will use up to    8 processors via shared memory.
 %Mem=8GB
 %chk=prod_5e_4.chk
 ------------------------------------------------------
 #N OPT FREQ=NORAMAN Integral(Ultrafine) wB97XD def2SVP
 ------------------------------------------------------
 1/18=20,19=15,26=4,38=1/1,3;
 2/9=110,12=2,17=6,18=5,40=1/2;
 3/5=43,7=101,11=2,25=1,30=1,71=1,74=-58,75=-5/1,2,3;
 4//1;
 5/5=2,38=5/2;
 6/7=2,8=2,9=2,10=2,28=1/1;
 7//1,2,3,16;
 1/18=20,19=15,26=4/3(2);
 2/9=110/2;
 99//99;
 2/9=110/2;
 3/5=43,7=101,11=2,25=1,30=1,71=1,74=-58,75=-5/1,2,3;
 4/5=5,16=3,69=1/1;
 5/5=2,38=5/2;
 7//1,2,3,16;
 1/18=20,19=15,26=4/3(-5);
 2/9=110/2;
 6/7=2,8=2,9=2,10=2,19=2,28=1/1;
 99/9=1/99;
 ---------
 prod_5e_4
 ---------
 Symbolic Z-matrix:
 Charge =  0 Multiplicity = 1
 C                     4.79041  -1.52412  -0.46967 
 O                     4.41246  -0.43208   0.33236 
 C                     3.05738  -0.07129   0.23513 
 C                     2.61412   0.9894    1.02615 
 C                     1.3044    1.40487   0.99474 
 C                     2.12711  -0.69805  -0.59522 
 C                     0.81736  -0.28124  -0.62576 
 C                     0.37774   0.77367   0.16955 
 N                    -0.99171   1.19566   0.11797 
 C                    -1.29794   2.60217   0.377 
 C                    -2.0553    0.26107  -0.07705 
 C                    -3.19185   0.59094  -0.81718 
 C                    -4.20539  -0.32387  -0.99489 
 C                    -4.10902  -1.58513  -0.4396 
 C                    -2.9905   -1.93035   0.29358 
 C                    -1.9746   -1.01929   0.47219 
 H                     4.21632  -2.40789  -0.18895 
 H                     4.6344   -1.28413  -1.52197 
 H                     5.84981  -1.7243   -0.30634 
 H                     3.328     1.47574   1.66705 
 H                     0.98418   2.21799   1.62147 
 H                     2.43612  -1.51494  -1.22141 
 H                     0.11141  -0.76349  -1.27914 
 H                    -1.20896   2.81149   1.44115 
 H                    -0.60631   3.24101  -0.16904 
 H                    -2.31106   2.84967   0.07056 
 H                    -3.25649   1.55906  -1.28112 
 H                    -5.07488  -0.05711  -1.57332 
 H                    -4.90402  -2.29908  -0.57993 
 H                    -2.91393  -2.91387   0.72771 
 H                    -1.10706  -1.27999   1.05287 
 

 GradGradGradGradGradGradGradGradGradGradGradGradGradGradGradGradGradGrad
 Berny optimization.
 Initialization pass.
                           ----------------------------
                           !    Initial Parameters    !
                           ! (Angstroms and Degrees)  !
 --------------------------                            --------------------------
 ! Name  Definition              Value          Derivative Info.                !
 --------------------------------------------------------------------------------
 ! R1    R(1,2)                  1.4066         estimate D2E/DX2                !
 ! R2    R(1,17)                 1.0906         estimate D2E/DX2                !
 ! R3    R(1,18)                 1.0905         estimate D2E/DX2                !
 ! R4    R(1,19)                 1.0904         estimate D2E/DX2                !
 ! R5    R(2,3)                  1.4057         estimate D2E/DX2                !
 ! R6    R(3,4)                  1.3954         estimate D2E/DX2                !
 ! R7    R(3,6)                  1.3956         estimate D2E/DX2                !
 ! R8    R(4,5)                  1.3744         estimate D2E/DX2                !
 ! R9    R(4,20)                 1.0756         estimate D2E/DX2                !
 ! R10   R(5,8)                  1.3921         estimate D2E/DX2                !
 ! R11   R(5,21)                 1.0754         estimate D2E/DX2                !
 ! R12   R(6,7)                  1.3748         estimate D2E/DX2                !
 ! R13   R(6,22)                 1.0747         estimate D2E/DX2                !
 ! R14   R(7,8)                  1.3923         estimate D2E/DX2                !
 ! R15   R(7,23)                 1.076          estimate D2E/DX2                !
 ! R16   R(8,9)                  1.4339         estimate D2E/DX2                !
 ! R17   R(9,10)                 1.4626         estimate D2E/DX2                !
 ! R18   R(9,11)                 1.4292         estimate D2E/DX2                !
 ! R19   R(10,24)                1.0882         estimate D2E/DX2                !
 ! R20   R(10,25)                1.0884         estimate D2E/DX2                !
 ! R21   R(10,26)                1.087          estimate D2E/DX2                !
 ! R22   R(11,12)                1.3958         estimate D2E/DX2                !
 ! R23   R(11,16)                1.3955         estimate D2E/DX2                !
 ! R24   R(12,13)                1.3769         estimate D2E/DX2                !
 ! R25   R(12,27)                1.0755         estimate D2E/DX2                !
 ! R26   R(13,14)                1.3815         estimate D2E/DX2                !
 ! R27   R(13,28)                1.0778         estimate D2E/DX2                !
 ! R28   R(14,15)                1.3812         estimate D2E/DX2                !
 ! R29   R(14,29)                1.0777         estimate D2E/DX2                !
 ! R30   R(15,16)                1.3762         estimate D2E/DX2                !
 ! R31   R(15,30)                1.0778         estimate D2E/DX2                !
 ! R32   R(16,31)                1.076          estimate D2E/DX2                !
 ! A1    A(2,1,17)             109.9323         estimate D2E/DX2                !
 ! A2    A(2,1,18)             109.9315         estimate D2E/DX2                !
 ! A3    A(2,1,19)             108.5514         estimate D2E/DX2                !
 ! A4    A(17,1,18)            110.5728         estimate D2E/DX2                !
 ! A5    A(17,1,19)            108.9106         estimate D2E/DX2                !
 ! A6    A(18,1,19)            108.8998         estimate D2E/DX2                !
 ! A7    A(1,2,3)              114.7618         estimate D2E/DX2                !
 ! A8    A(2,3,4)              117.5232         estimate D2E/DX2                !
 ! A9    A(2,3,6)              124.6439         estimate D2E/DX2                !
 ! A10   A(4,3,6)              117.8329         estimate D2E/DX2                !
 ! A11   A(3,4,5)              121.3002         estimate D2E/DX2                !
 ! A12   A(3,4,20)             118.0754         estimate D2E/DX2                !
 ! A13   A(5,4,20)             120.6243         estimate D2E/DX2                !
 ! A14   A(4,5,8)              120.7171         estimate D2E/DX2                !
 ! A15   A(4,5,21)             119.9339         estimate D2E/DX2                !
 ! A16   A(8,5,21)             119.3446         estimate D2E/DX2                !
 ! A17   A(3,6,7)              120.803          estimate D2E/DX2                !
 ! A18   A(3,6,22)             119.7613         estimate D2E/DX2                !
 ! A19   A(7,6,22)             119.4355         estimate D2E/DX2                !
 ! A20   A(6,7,8)              121.1856         estimate D2E/DX2                !
 ! A21   A(6,7,23)             120.1745         estimate D2E/DX2                !
 ! A22   A(8,7,23)             118.6368         estimate D2E/DX2                !
 ! A23   A(5,8,7)              118.1598         estimate D2E/DX2                !
 ! A24   A(5,8,9)              121.574          estimate D2E/DX2                !
 ! A25   A(7,8,9)              120.2629         estimate D2E/DX2                !
 ! A26   A(8,9,10)             118.4636         estimate D2E/DX2                !
 ! A27   A(8,9,11)             121.5456         estimate D2E/DX2                !
 ! A28   A(10,9,11)            119.8146         estimate D2E/DX2                !
 ! A29   A(9,10,24)            109.9412         estimate D2E/DX2                !
 ! A30   A(9,10,25)            110.0322         estimate D2E/DX2                !
 ! A31   A(9,10,26)            111.357          estimate D2E/DX2                !
 ! A32   A(24,10,25)           109.0106         estimate D2E/DX2                !
 ! A33   A(24,10,26)           107.9447         estimate D2E/DX2                !
 ! A34   A(25,10,26)           108.4928         estimate D2E/DX2                !
 ! A35   A(9,11,12)            121.5842         estimate D2E/DX2                !
 ! A36   A(9,11,16)            120.2124         estimate D2E/DX2                !
 ! A37   A(12,11,16)           118.2029         estimate D2E/DX2                !
 ! A38   A(11,12,13)           120.7176         estimate D2E/DX2                !
 ! A39   A(11,12,27)           119.3672         estimate D2E/DX2                !
 ! A40   A(13,12,27)           119.879          estimate D2E/DX2                !
 ! A41   A(12,13,14)           120.2239         estimate D2E/DX2                !
 ! A42   A(12,13,28)           119.911          estimate D2E/DX2                !
 ! A43   A(14,13,28)           119.8644         estimate D2E/DX2                !
 ! A44   A(13,14,15)           119.8709         estimate D2E/DX2                !
 ! A45   A(13,14,29)           120.0685         estimate D2E/DX2                !
 ! A46   A(15,14,29)           120.0604         estimate D2E/DX2                !
 ! A47   A(14,15,16)           120.08           estimate D2E/DX2                !
 ! A48   A(14,15,30)           119.9611         estimate D2E/DX2                !
 ! A49   A(16,15,30)           119.9588         estimate D2E/DX2                !
 ! A50   A(11,16,15)           120.9041         estimate D2E/DX2                !
 ! A51   A(11,16,31)           118.7711         estimate D2E/DX2                !
 ! A52   A(15,16,31)           120.319          estimate D2E/DX2                !
 ! D1    D(17,1,2,3)           -60.1846         estimate D2E/DX2                !
 ! D2    D(18,1,2,3)            61.7601         estimate D2E/DX2                !
 ! D3    D(19,1,2,3)          -179.219          estimate D2E/DX2                !
 ! D4    D(1,2,3,4)            178.8069         estimate D2E/DX2                !
 ! D5    D(1,2,3,6)             -1.2052         estimate D2E/DX2                !
 ! D6    D(2,3,4,5)           -179.8461         estimate D2E/DX2                !
 ! D7    D(2,3,4,20)             0.0327         estimate D2E/DX2                !
 ! D8    D(6,3,4,5)              0.1651         estimate D2E/DX2                !
 ! D9    D(6,3,4,20)          -179.9561         estimate D2E/DX2                !
 ! D10   D(2,3,6,7)            179.8582         estimate D2E/DX2                !
 ! D11   D(2,3,6,22)            -0.3095         estimate D2E/DX2                !
 ! D12   D(4,3,6,7)             -0.1539         estimate D2E/DX2                !
 ! D13   D(4,3,6,22)           179.6783         estimate D2E/DX2                !
 ! D14   D(3,4,5,8)              0.1094         estimate D2E/DX2                !
 ! D15   D(3,4,5,21)           179.3464         estimate D2E/DX2                !
 ! D16   D(20,4,5,8)          -179.7663         estimate D2E/DX2                !
 ! D17   D(20,4,5,21)           -0.5293         estimate D2E/DX2                !
 ! D18   D(4,5,8,7)             -0.3888         estimate D2E/DX2                !
 ! D19   D(4,5,8,9)           -179.7253         estimate D2E/DX2                !
 ! D20   D(21,5,8,7)          -179.6303         estimate D2E/DX2                !
 ! D21   D(21,5,8,9)             1.0332         estimate D2E/DX2                !
 ! D22   D(3,6,7,8)             -0.1318         estimate D2E/DX2                !
 ! D23   D(3,6,7,23)           179.2116         estimate D2E/DX2                !
 ! D24   D(22,6,7,8)          -179.9646         estimate D2E/DX2                !
 ! D25   D(22,6,7,23)           -0.6211         estimate D2E/DX2                !
 ! D26   D(6,7,8,5)              0.4011         estimate D2E/DX2                !
 ! D27   D(6,7,8,9)            179.7467         estimate D2E/DX2                !
 ! D28   D(23,7,8,5)          -178.9522         estimate D2E/DX2                !
 ! D29   D(23,7,8,9)             0.3934         estimate D2E/DX2                !
 ! D30   D(5,8,9,10)            29.6085         estimate D2E/DX2                !
 ! D31   D(5,8,9,11)          -145.5567         estimate D2E/DX2                !
 ! D32   D(7,8,9,10)          -149.7142         estimate D2E/DX2                !
 ! D33   D(7,8,9,11)            35.1205         estimate D2E/DX2                !
 ! D34   D(8,9,10,24)          -74.618          estimate D2E/DX2                !
 ! D35   D(8,9,10,25)           45.4557         estimate D2E/DX2                !
 ! D36   D(8,9,10,26)          165.7922         estimate D2E/DX2                !
 ! D37   D(11,9,10,24)         100.6333         estimate D2E/DX2                !
 ! D38   D(11,9,10,25)        -139.2929         estimate D2E/DX2                !
 ! D39   D(11,9,10,26)         -18.9565         estimate D2E/DX2                !
 ! D40   D(8,9,11,12)         -144.6643         estimate D2E/DX2                !
 ! D41   D(8,9,11,16)           35.0839         estimate D2E/DX2                !
 ! D42   D(10,9,11,12)          40.2346         estimate D2E/DX2                !
 ! D43   D(10,9,11,16)        -140.0172         estimate D2E/DX2                !
 ! D44   D(9,11,12,13)         179.9375         estimate D2E/DX2                !
 ! D45   D(9,11,12,27)           2.1294         estimate D2E/DX2                !
 ! D46   D(16,11,12,13)          0.1845         estimate D2E/DX2                !
 ! D47   D(16,11,12,27)       -177.6236         estimate D2E/DX2                !
 ! D48   D(9,11,16,15)         179.9839         estimate D2E/DX2                !
 ! D49   D(9,11,16,31)           0.8608         estimate D2E/DX2                !
 ! D50   D(12,11,16,15)         -0.2595         estimate D2E/DX2                !
 ! D51   D(12,11,16,31)       -179.3826         estimate D2E/DX2                !
 ! D52   D(11,12,13,14)          0.0207         estimate D2E/DX2                !
 ! D53   D(11,12,13,28)       -179.6702         estimate D2E/DX2                !
 ! D54   D(27,12,13,14)        177.8176         estimate D2E/DX2                !
 ! D55   D(27,12,13,28)         -1.8733         estimate D2E/DX2                !
 ! D56   D(12,13,14,15)         -0.1568         estimate D2E/DX2                !
 ! D57   D(12,13,14,29)        179.9743         estimate D2E/DX2                !
 ! D58   D(28,13,14,15)        179.5343         estimate D2E/DX2                !
 ! D59   D(28,13,14,29)         -0.3346         estimate D2E/DX2                !
 ! D60   D(13,14,15,16)          0.0823         estimate D2E/DX2                !
 ! D61   D(13,14,15,30)        179.9815         estimate D2E/DX2                !
 ! D62   D(29,14,15,16)        179.9513         estimate D2E/DX2                !
 ! D63   D(29,14,15,30)         -0.1496         estimate D2E/DX2                !
 ! D64   D(14,15,16,11)          0.1289         estimate D2E/DX2                !
 ! D65   D(14,15,16,31)        179.2385         estimate D2E/DX2                !
 ! D66   D(30,15,16,11)       -179.7702         estimate D2E/DX2                !
 ! D67   D(30,15,16,31)         -0.6606         estimate D2E/DX2                !
 --------------------------------------------------------------------------------
 Trust Radius=3.00D-01 FncErr=1.00D-07 GrdErr=1.00D-06 EigMax=2.50D+02 EigMin=1.00D-04
 Number of steps in this run=    161 maximum allowed number of steps=    186.
 GradGradGradGradGradGradGradGradGradGradGradGradGradGradGradGradGradGrad

                          Input orientation:                          
 ---------------------------------------------------------------------
 Center     Atomic      Atomic             Coordinates (Angstroms)
 Number     Number       Type             X           Y           Z
 ---------------------------------------------------------------------
      1          6           0        4.790410   -1.524120   -0.469670
      2          8           0        4.412460   -0.432080    0.332360
      3          6           0        3.057380   -0.071290    0.235130
      4          6           0        2.614120    0.989400    1.026150
      5          6           0        1.304400    1.404870    0.994740
      6          6           0        2.127110   -0.698050   -0.595220
      7          6           0        0.817360   -0.281240   -0.625760
      8          6           0        0.377740    0.773670    0.169550
      9          7           0       -0.991710    1.195660    0.117970
     10          6           0       -1.297940    2.602170    0.377000
     11          6           0       -2.055300    0.261070   -0.077050
     12          6           0       -3.191850    0.590940   -0.817180
     13          6           0       -4.205390   -0.323870   -0.994890
     14          6           0       -4.109020   -1.585130   -0.439600
     15          6           0       -2.990500   -1.930350    0.293580
     16          6           0       -1.974600   -1.019290    0.472190
     17          1           0        4.216320   -2.407890   -0.188950
     18          1           0        4.634400   -1.284130   -1.521970
     19          1           0        5.849810   -1.724300   -0.306340
     20          1           0        3.328000    1.475740    1.667050
     21          1           0        0.984180    2.217990    1.621470
     22          1           0        2.436120   -1.514940   -1.221410
     23          1           0        0.111410   -0.763490   -1.279140
     24          1           0       -1.208960    2.811490    1.441150
     25          1           0       -0.606310    3.241010   -0.169040
     26          1           0       -2.311060    2.849670    0.070560
     27          1           0       -3.256490    1.559060   -1.281120
     28          1           0       -5.074880   -0.057110   -1.573320
     29          1           0       -4.904020   -2.299080   -0.579930
     30          1           0       -2.913930   -2.913870    0.727710
     31          1           0       -1.107060   -1.279990    1.052870
 ---------------------------------------------------------------------
                    Distance matrix (angstroms):
                    1          2          3          4          5
     1  C    0.000000
     2  O    1.406645   0.000000
     3  C    2.368724   1.405655   0.000000
     4  C    3.645751   2.394990   1.395441   0.000000
     5  C    4.782859   3.670582   2.414331   1.374397   0.000000
     6  C    2.791294   2.480720   1.395604   2.390294   2.761720
     7  C    4.165842   3.723639   2.408921   2.751668   2.388764
     8  C    5.015984   4.214179   2.810468   2.404516   1.392139
     9  N    6.416809   5.648058   4.244292   3.724157   2.466701
    10  C    7.403454   6.466632   5.112370   4.280962   2.930410
    11  C    7.085535   6.517668   5.132973   4.852937   3.707371
    12  C    8.265030   7.758450   6.371717   6.104582   4.915465
    13  C    9.090703   8.720128   7.370521   7.232911   6.107778
    14  C    8.899690   8.633717   7.355560   7.346920   6.348429
    15  C    7.828802   7.553154   6.327430   6.361868   5.482835
    16  C    6.848891   6.415521   5.125985   5.039649   4.111137
    17  H    1.090611   2.052818   2.642477   3.947796   4.941411
    18  H    1.090536   2.052751   2.654312   3.967794   4.965224
    19  H    1.090448   2.035619   3.289878   4.428249   5.669680
    20  H    3.962748   2.568507   2.125307   1.075595   2.133537
    21  H    5.732682   4.520816   3.385395   2.126157   1.075405
    22  H    2.471412   2.737281   2.142801   3.369708   3.836327
    23  H    4.809037   4.604975   3.383917   3.827603   3.360884
    24  H    7.644684   6.584112   5.288342   4.255370   2.914591
    25  H    7.205653   6.239475   4.955533   4.107237   2.894237
    26  H    8.357797   7.486264   6.113856   5.350809   4.001638
    27  H    8.655464   8.085836   6.694924   6.333409   5.099513
    28  H   10.034645   9.684102   8.330927   8.183712   7.030472
    29  H    9.725980   9.545405   8.307302   8.361580   7.398872
    30  H    7.919721   7.745423   6.631700   6.773767   6.042940
    31  H    6.095726   5.630558   4.412733   4.358672   3.609292
                    6          7          8          9         10
     6  C    0.000000
     7  C    1.374812   0.000000
     8  C    2.410628   1.392343   0.000000
     9  N    3.717770   2.450939   1.433921   0.000000
    10  C    4.854650   3.714038   2.488845   1.462581   0.000000
    11  C    4.322148   2.974451   2.498650   1.429236   2.502100
    12  C    5.477417   4.107445   3.707964   2.465929   3.009652
    13  C    6.356123   5.036476   4.854441   3.724939   4.347075
    14  C    6.300829   5.099412   5.105489   4.214416   5.109059
    15  C    5.338395   4.250241   4.321128   3.714558   4.838952
    16  C    4.250480   3.089539   2.973180   2.448989   3.685363
    17  H    2.730093   4.033159   4.998554   6.340611   7.471818
    18  H    2.736578   4.047070   5.021448   6.363323   7.341803
    19  H    3.872355   5.244998   6.034060   7.450678   8.383056
    20  H    3.359370   3.827175   3.382225   4.597607   4.932788
    21  H    3.837094   3.365118   2.135861   2.685109   2.627617
    22  H    1.074668   2.120660   3.377785   4.570701   5.783486
    23  H    2.129572   1.076028   2.128966   2.647085   4.007086
    24  H    5.252907   4.235926   2.878766   2.099740   1.088185
    25  H    4.813461   3.826444   2.677828   2.101039   1.088406
    26  H    5.720746   4.480454   3.398414   2.116289   1.087002
    27  H    5.877768   4.518014   3.991104   2.686771   2.770083
    28  H    7.296310   5.972152   5.784363   4.593710   5.014060
    29  H    7.211125   6.066957   6.156338   5.292111   6.159690
    30  H    5.663222   4.762893   4.974393   4.577658   5.758569
    31  H    3.676236   2.742023   2.683730   2.648809   3.945174
                   11         12         13         14         15
    11  C    0.000000
    12  C    1.395834   0.000000
    13  C    2.409870   1.376852   0.000000
    14  C    2.785258   2.391453   1.381452   0.000000
    15  C    2.411283   2.762469   2.391002   1.381237   0.000000
    16  C    1.395528   2.395206   2.759050   2.388992   1.376221
    17  H    6.816824   8.016772   8.713087   8.369650   7.238725
    18  H    7.016233   8.078540   8.907401   8.815300   7.864663
    19  H    8.153835   9.347348  10.175576   9.960694   8.863038
    20  H    5.787679   7.032973   8.190024   8.313613   7.308304
    21  H    3.994114   5.102307   6.343345   6.682246   5.896617
    22  H    4.963529   6.022639   6.751268   6.592041   5.649422
    23  H    2.681301   3.599919   4.348428   4.380862   3.668359
    24  H    3.086400   3.736676   4.974270   5.592659   5.193828
    25  H    3.314827   3.758720   5.132619   5.969406   5.713260
    26  H    2.605389   2.581808   3.846430   4.812523   4.833215
    27  H    2.139491   1.075488   2.127854   3.364654   3.837501
    28  H    3.384956   2.130145   1.077847   2.133788   3.367341
    29  H    3.862960   3.367496   2.135821   1.077702   2.135542
    30  H    3.386020   3.840263   3.367985   2.134573   1.077796
    31  H    2.133247   3.368058   3.834988   3.366354   2.132331
                   16         17         18         19         20
    16  C    0.000000
    17  H    6.379091   0.000000
    18  H    6.908379   1.792922   0.000000
    19  H    7.894589   1.774645   1.774465   0.000000
    20  H    5.980839   4.395046   4.415134   4.527035   0.000000
    21  H    4.533785   5.926476   5.955683   6.552286   2.458964
    22  H    4.750621   2.243311   2.230705   3.540405   4.252390
    23  H    2.735695   4.554432   4.559328   5.899045   4.903125
    24  H    4.024918   7.702780   7.726515   8.570493   4.734899
    25  H    4.520348   7.427532   7.054952   8.145836   4.686811
    26  H    3.904275   8.385462   8.237953   9.362855   6.019590
    27  H    3.371235   8.530675   8.390941   9.729098   7.214857
    28  H    3.836879   9.683442   9.786641  11.123561   9.135536
    29  H    3.365460   9.129365   9.638414  10.772654   9.330827
    30  H    2.130039   7.206715   8.043283   8.904351   7.688480
    31  H    1.076002   5.581456   6.292391   7.102317   5.257473
                   21         22         23         24         25
    21  H    0.000000
    22  H    4.911707   0.000000
    23  H    4.250234   2.443826   0.000000
    24  H    2.279171   6.252506   4.682290   0.000000
    25  H    2.604257   5.743076   4.217044   1.772114   0.000000
    26  H    3.696343   6.576832   4.554665   1.759147   1.765426
    27  H    5.180975   6.469842   4.091087   3.629286   3.330035
    28  H    7.217685   7.659258   5.242434   5.679897   5.728675
    29  H    7.740864   7.409725   5.291641   6.622398   7.023656
    30  H    6.506155   5.863370   4.219510   6.016283   6.634140
    31  H    4.114906   4.216832   2.681364   4.111126   4.709910
                   26         27         28         29         30
    26  H    0.000000
    27  H    2.094409   0.000000
    28  H    4.334791   2.450292   0.000000
    29  H    5.801397   4.253383   2.458139   0.000000
    30  H    5.832126   4.915267   4.257408   2.459339   0.000000
    31  H    4.412328   4.257671   4.912831   4.256934   2.457656
                   31
    31  H    0.000000
 Stoichiometry    C14H15NO
 Framework group  C1[X(C14H15NO)]
 Deg. of freedom    87
 Full point group                 C1      NOp   1
 Largest Abelian subgroup         C1      NOp   1
 Largest concise Abelian subgroup C1      NOp   1
                         Standard orientation:                         
 ---------------------------------------------------------------------
 Center     Atomic      Atomic             Coordinates (Angstroms)
 Number     Number       Type             X           Y           Z
 ---------------------------------------------------------------------
      1          6           0        4.766313   -1.610424   -0.403681
      2          8           0        4.427894   -0.363712    0.152943
      3          6           0        3.065970   -0.028146    0.061161
      4          6           0        2.661993    1.185833    0.618220
      5          6           0        1.348863    1.589334    0.575261
      6          6           0        2.092465   -0.822144   -0.546758
      7          6           0        0.779346   -0.417141   -0.589172
      8          6           0        0.379322    0.792160   -0.026863
      9          7           0       -0.994726    1.197723   -0.087191
     10          6           0       -1.298031    2.627746   -0.133931
     11          6           0       -2.059208    0.248023    0.000344
     12          6           0       -3.242298    0.407214   -0.723056
     13          6           0       -4.255953   -0.519532   -0.626269
     14          6           0       -4.113384   -1.623112    0.192386
     15          6           0       -2.948568   -1.798745    0.913617
     16          6           0       -1.932466   -0.875460    0.818405
     17          1           0        4.219171   -2.405316    0.104467
     18          1           0        4.543513   -1.613729   -1.471211
     19          1           0        5.835645   -1.773273   -0.265529
     20          1           0        3.409227    1.801206    1.087114
     21          1           0        1.059971    2.524472    1.020855
     22          1           0        2.370238   -1.760782   -0.990279
     23          1           0        0.039219   -1.031386   -1.071614
     24          1           0       -1.145751    3.071713    0.847829
     25          1           0       -0.647537    3.123564   -0.852019
     26          1           0       -2.330440    2.804145   -0.424774
     27          1           0       -3.344739    1.245738   -1.388682
     28          1           0       -5.161938   -0.386477   -1.194813
     29          1           0       -4.908567   -2.346729    0.266578
     30          1           0       -2.835907   -2.659061    1.552998
     31          1           0       -1.028347   -1.002094    1.387889
 ---------------------------------------------------------------------
 Rotational constants (GHZ):           1.2053142           0.2683533           0.2325326
 Standard basis: def2SVP (5D, 7F)
 There are   315 symmetry adapted cartesian basis functions of A   symmetry.
 There are   299 symmetry adapted basis functions of A   symmetry.
   299 basis functions,   505 primitive gaussians,   315 cartesian basis functions
    57 alpha electrons       57 beta electrons
       nuclear repulsion energy      1021.0260040327 Hartrees.
 NAtoms=   31 NActive=   31 NUniq=   31 SFac= 1.00D+00 NAtFMM=   60 NAOKFM=F Big=F
 Integral buffers will be    131072 words long.
 Raffenetti 2 integral format.
 Two-electron integral symmetry is turned on.
 Nuclear repulsion after empirical dispersion term =     1021.0058189700 Hartrees.
 One-electron integrals computed using PRISM.
   1 Symmetry operations used in ECPInt.
 ECPInt:  NShTT=   10011 NPrTT=   36031 LenC2=    9204 LenP2D=   24026.
 LDataN:  DoStor=T MaxTD1= 4 Len=   56
 NBasis=   299 RedAO= T EigKep=  2.16D-04  NBF=   299
 NBsUse=   299 1.00D-06 EigRej= -1.00D+00 NBFU=   299
 ExpMin= 1.22D-01 ExpMax= 2.27D+03 ExpMxC= 3.41D+02 IAcc=3 IRadAn=         5 AccDes= 0.00D+00
 Harris functional with IExCor= 4639 and IRadAn=       5 diagonalized for initial guess.
 HarFok:  IExCor= 4639 AccDes= 0.00D+00 IRadAn=         5 IDoV= 1 UseB2=F ITyADJ=14
 ICtDFT=  3500011 ScaDFX=  1.000000  1.000000  1.000000  1.000000
 FoFCou: FMM=F IPFlag=           0 FMFlag=      100000 FMFlg1=           0
         NFxFlg=           0 DoJE=T BraDBF=F KetDBF=T FulRan=T
         wScrn=  0.000000 ICntrl=       500 IOpCl=  0 I1Cent=   200000004 NGrid=           0
         NMat0=    1 NMatS0=      1 NMatT0=    0 NMatD0=    1 NMtDS0=    0 NMtDT0=    0
 Petite list used in FoFCou.
 Requested convergence on RMS density matrix=1.00D-08 within 128 cycles.
 Requested convergence on MAX density matrix=1.00D-06.
 Requested convergence on             energy=1.00D-06.
 No special actions if energy rises.
 Integral accuracy reduced to 1.0D-05 until final iterations.
 Initial convergence to 1.0D-05 achieved.  Increase integral accuracy.
 SCF Done:  E(RwB97XD) =  -671.768949489     A.U. after   15 cycles
            NFock= 15  Conv=0.71D-08     -V/T= 2.0105

 **********************************************************************

            Population analysis using the SCF Density.

 **********************************************************************

 Orbital symmetries:
       Occupied  (A) (A) (A) (A) (A) (A) (A) (A) (A) (A) (A) (A)
                 (A) (A) (A) (A) (A) (A) (A) (A) (A) (A) (A) (A)
                 (A) (A) (A) (A) (A) (A) (A) (A) (A) (A) (A) (A)
                 (A) (A) (A) (A) (A) (A) (A) (A) (A) (A) (A) (A)
                 (A) (A) (A) (A) (A) (A) (A) (A) (A)
       Virtual   (A) (A) (A) (A) (A) (A) (A) (A) (A) (A) (A) (A)
                 (A) (A) (A) (A) (A) (A) (A) (A) (A) (A) (A) (A)
                 (A) (A) (A) (A) (A) (A) (A) (A) (A) (A) (A) (A)
                 (A) (A) (A) (A) (A) (A) (A) (A) (A) (A) (A) (A)
                 (A) (A) (A) (A) (A) (A) (A) (A) (A) (A) (A) (A)
                 (A) (A) (A) (A) (A) (A) (A) (A) (A) (A) (A) (A)
                 (A) (A) (A) (A) (A) (A) (A) (A) (A) (A) (A) (A)
                 (A) (A) (A) (A) (A) (A) (A) (A) (A) (A) (A) (A)
                 (A) (A) (A) (A) (A) (A) (A) (A) (A) (A) (A) (A)
                 (A) (A) (A) (A) (A) (A) (A) (A) (A) (A) (A) (A)
                 (A) (A) (A) (A) (A) (A) (A) (A) (A) (A) (A) (A)
                 (A) (A) (A) (A) (A) (A) (A) (A) (A) (A) (A) (A)
                 (A) (A) (A) (A) (A) (A) (A) (A) (A) (A) (A) (A)
                 (A) (A) (A) (A) (A) (A) (A) (A) (A) (A) (A) (A)
                 (A) (A) (A) (A) (A) (A) (A) (A) (A) (A) (A) (A)
                 (A) (A) (A) (A) (A) (A) (A) (A) (A) (A) (A) (A)
                 (A) (A) (A) (A) (A) (A) (A) (A) (A) (A) (A) (A)
                 (A) (A) (A) (A) (A) (A) (A) (A) (A) (A) (A) (A)
                 (A) (A) (A) (A) (A) (A) (A) (A) (A) (A) (A) (A)
                 (A) (A) (A) (A) (A) (A) (A) (A) (A) (A) (A) (A)
                 (A) (A)
 The electronic state is 1-A.
 Alpha  occ. eigenvalues --  -19.27900 -14.46120 -10.35261 -10.34544 -10.33882
 Alpha  occ. eigenvalues --  -10.33413 -10.32841 -10.29787 -10.29666 -10.29656
 Alpha  occ. eigenvalues --  -10.29543 -10.29493 -10.29450 -10.29341 -10.29028
 Alpha  occ. eigenvalues --  -10.28871  -1.14196  -1.03827  -0.95501  -0.93886
 Alpha  occ. eigenvalues --   -0.85152  -0.84903  -0.84036  -0.82952  -0.79322
 Alpha  occ. eigenvalues --   -0.75847  -0.71035  -0.69917  -0.68921  -0.66203
 Alpha  occ. eigenvalues --   -0.63200  -0.61515  -0.58450  -0.57667  -0.55821
 Alpha  occ. eigenvalues --   -0.55564  -0.53746  -0.53597  -0.52697  -0.52335
 Alpha  occ. eigenvalues --   -0.50982  -0.50755  -0.49676  -0.48767  -0.47071
 Alpha  occ. eigenvalues --   -0.46791  -0.46168  -0.44339  -0.43652  -0.42387
 Alpha  occ. eigenvalues --   -0.41086  -0.40525  -0.36755  -0.33800  -0.33100
 Alpha  occ. eigenvalues --   -0.31712  -0.25246
 Alpha virt. eigenvalues --    0.05544   0.06009   0.07349   0.09545   0.13921
 Alpha virt. eigenvalues --    0.15084   0.15734   0.17303   0.18244   0.19068
 Alpha virt. eigenvalues --    0.20317   0.20693   0.21226   0.21390   0.21593
 Alpha virt. eigenvalues --    0.22015   0.22865   0.24019   0.24169   0.24881
 Alpha virt. eigenvalues --    0.25379   0.26612   0.27738   0.31327   0.31964
 Alpha virt. eigenvalues --    0.34627   0.36240   0.37366   0.37903   0.38195
 Alpha virt. eigenvalues --    0.40582   0.41161   0.42274   0.42864   0.43497
 Alpha virt. eigenvalues --    0.45474   0.47885   0.48417   0.49326   0.49862
 Alpha virt. eigenvalues --    0.50841   0.52348   0.53819   0.54447   0.55206
 Alpha virt. eigenvalues --    0.55296   0.56293   0.57171   0.57707   0.58202
 Alpha virt. eigenvalues --    0.58576   0.59071   0.59816   0.61395   0.61695
 Alpha virt. eigenvalues --    0.63498   0.65086   0.65937   0.66443   0.67200
 Alpha virt. eigenvalues --    0.67477   0.69954   0.70411   0.72467   0.72687
 Alpha virt. eigenvalues --    0.72997   0.73423   0.74029   0.74467   0.74661
 Alpha virt. eigenvalues --    0.75297   0.75569   0.75939   0.76458   0.76597
 Alpha virt. eigenvalues --    0.77357   0.78134   0.78555   0.79682   0.81251
 Alpha virt. eigenvalues --    0.82240   0.83261   0.83591   0.84334   0.85410
 Alpha virt. eigenvalues --    0.85655   0.87210   0.88220   0.90647   0.90996
 Alpha virt. eigenvalues --    0.91890   0.92651   0.93471   0.95650   0.97990
 Alpha virt. eigenvalues --    1.02265   1.02593   1.04298   1.06458   1.07598
 Alpha virt. eigenvalues --    1.10416   1.12396   1.16575   1.17362   1.19503
 Alpha virt. eigenvalues --    1.20283   1.21378   1.25438   1.26921   1.29429
 Alpha virt. eigenvalues --    1.30464   1.32604   1.33132   1.33827   1.35251
 Alpha virt. eigenvalues --    1.36196   1.37076   1.37423   1.37916   1.39109
 Alpha virt. eigenvalues --    1.40883   1.41205   1.42332   1.44478   1.47476
 Alpha virt. eigenvalues --    1.54395   1.55741   1.58276   1.60323   1.60451
 Alpha virt. eigenvalues --    1.63210   1.64682   1.68412   1.71059   1.74556
 Alpha virt. eigenvalues --    1.76605   1.77534   1.78252   1.79063   1.79816
 Alpha virt. eigenvalues --    1.80523   1.82044   1.82749   1.83149   1.84482
 Alpha virt. eigenvalues --    1.84889   1.85642   1.86523   1.86918   1.87307
 Alpha virt. eigenvalues --    1.88566   1.88781   1.89605   1.90978   1.91044
 Alpha virt. eigenvalues --    1.91852   1.92805   1.94434   1.95026   1.96863
 Alpha virt. eigenvalues --    1.97091   1.98757   1.99933   2.02128   2.03000
 Alpha virt. eigenvalues --    2.04525   2.05331   2.06526   2.08100   2.09011
 Alpha virt. eigenvalues --    2.09376   2.10968   2.13017   2.16494   2.17613
 Alpha virt. eigenvalues --    2.18708   2.21455   2.23275   2.24990   2.25528
 Alpha virt. eigenvalues --    2.26211   2.26688   2.28858   2.29154   2.29400
 Alpha virt. eigenvalues --    2.31360   2.32422   2.36086   2.38200   2.38731
 Alpha virt. eigenvalues --    2.40450   2.41313   2.41643   2.42523   2.45213
 Alpha virt. eigenvalues --    2.45628   2.45955   2.46944   2.47212   2.50975
 Alpha virt. eigenvalues --    2.52996   2.57131   2.61861   2.65565   2.69110
 Alpha virt. eigenvalues --    2.70613   2.71747   2.73112   2.74213   2.75826
 Alpha virt. eigenvalues --    2.76125   2.77523   2.78255   2.80584   2.85013
 Alpha virt. eigenvalues --    2.85569   2.86771   2.90366   2.91529   2.92421
 Alpha virt. eigenvalues --    2.94756   2.97298   2.98014   3.00297   3.00986
 Alpha virt. eigenvalues --    3.02298   3.03047   3.05314   3.05917   3.07788
 Alpha virt. eigenvalues --    3.14798   3.17664   3.20324   3.23381   3.28146
 Alpha virt. eigenvalues --    3.29887   3.36382   3.43948   3.51524   3.55433
 Alpha virt. eigenvalues --    3.79463   3.82605
          Condensed to atoms (all electrons):
               1          2          3          4          5          6
     1  C    4.391484   0.303788  -0.059248   0.006143  -0.000239   0.001065
     2  O    0.303788   7.920477   0.380989  -0.067056   0.003448  -0.081064
     3  C   -0.059248   0.380989   5.070130   0.287731   0.114421   0.162603
     4  C    0.006143  -0.067056   0.287731   5.116162   0.265883   0.057575
     5  C   -0.000239   0.003448   0.114421   0.265883   5.176847  -0.146554
     6  C    0.001065  -0.081064   0.162603   0.057575  -0.146554   5.342870
     7  C    0.001364   0.004553   0.119824  -0.135787   0.066787   0.224571
     8  C    0.000050  -0.000002  -0.180719   0.123450   0.239991   0.123462
     9  N   -0.000000   0.000000  -0.000189   0.007587  -0.082462   0.009267
    10  C    0.000000  -0.000000   0.000090   0.000315   0.004189  -0.000237
    11  C    0.000000  -0.000000  -0.000043   0.000034   0.005664  -0.000231
    12  C   -0.000000   0.000000   0.000002   0.000002  -0.000494  -0.000070
    13  C    0.000000   0.000000  -0.000000  -0.000000   0.000000   0.000005
    14  C   -0.000000  -0.000000   0.000000  -0.000000   0.000001  -0.000004
    15  C   -0.000000   0.000000  -0.000002   0.000002  -0.000058   0.000039
    16  C   -0.000000  -0.000000   0.000041  -0.000058   0.000852  -0.001314
    17  H    0.401978  -0.031465  -0.009424  -0.000144   0.000004   0.006407
    18  H    0.402992  -0.031329  -0.009359  -0.000197   0.000044   0.005726
    19  H    0.397515  -0.020821   0.005218  -0.000078   0.000008   0.000227
    20  H   -0.000210   0.001626  -0.069618   0.445105  -0.071645   0.019988
    21  H    0.000008  -0.000062   0.016754  -0.075385   0.466212  -0.003284
    22  H    0.008791  -0.008118  -0.094985   0.013035  -0.002101   0.461919
    23  H   -0.000037  -0.000054   0.015133  -0.002860   0.016670  -0.068800
    24  H    0.000000   0.000000  -0.000048   0.000603   0.002604   0.000090
    25  H   -0.000000   0.000000  -0.000069   0.000566   0.003301  -0.000154
    26  H    0.000000   0.000000   0.000004  -0.000030   0.000575   0.000000
    27  H    0.000000  -0.000000   0.000000  -0.000000  -0.000000   0.000001
    28  H   -0.000000   0.000000   0.000000   0.000000  -0.000000  -0.000000
    29  H    0.000000   0.000000  -0.000000   0.000000   0.000000  -0.000000
    30  H    0.000000   0.000000  -0.000000  -0.000000   0.000001   0.000002
    31  H   -0.000001   0.000000   0.000100  -0.000014  -0.000730  -0.000976
               7          8          9         10         11         12
     1  C    0.001364   0.000050  -0.000000   0.000000   0.000000  -0.000000
     2  O    0.004553  -0.000002   0.000000  -0.000000  -0.000000   0.000000
     3  C    0.119824  -0.180719  -0.000189   0.000090  -0.000043   0.000002
     4  C   -0.135787   0.123450   0.007587   0.000315   0.000034   0.000002
     5  C    0.066787   0.239991  -0.082462   0.004189   0.005664  -0.000494
     6  C    0.224571   0.123462   0.009267  -0.000237  -0.000231  -0.000070
     7  C    5.169902   0.259678  -0.077717   0.005661  -0.007357   0.000692
     8  C    0.259678   5.147851   0.313673  -0.053484  -0.046168   0.005411
     9  N   -0.077717   0.313673   6.824912   0.341513   0.312609  -0.077317
    10  C    0.005661  -0.053484   0.341513   4.431832  -0.046748  -0.008858
    11  C   -0.007357  -0.046168   0.312609  -0.046748   5.089471   0.276943
    12  C    0.000692   0.005411  -0.077317  -0.008858   0.276943   5.172714
    13  C    0.000051  -0.000209   0.007795   0.000819   0.111343   0.292819
    14  C    0.000018   0.000049  -0.000427  -0.000031  -0.163181   0.082875
    15  C   -0.001196  -0.000233   0.009326  -0.000119   0.118280  -0.148878
    16  C   -0.004874  -0.004033  -0.080524   0.004426   0.281661   0.057020
    17  H    0.000751  -0.000092  -0.000000  -0.000000   0.000000   0.000000
    18  H    0.000609  -0.000084   0.000000   0.000000  -0.000000  -0.000000
    19  H   -0.000035   0.000004  -0.000000   0.000000  -0.000000   0.000000
    20  H   -0.003100   0.015826  -0.000098  -0.000027   0.000007  -0.000000
    21  H    0.017702  -0.079264  -0.015192   0.009506  -0.000203   0.000004
    22  H   -0.058028   0.016856  -0.000140   0.000005  -0.000007   0.000001
    23  H    0.460565  -0.070281  -0.013765  -0.000060   0.006110  -0.000873
    24  H   -0.000856  -0.010479  -0.037200   0.403455   0.003722   0.000180
    25  H    0.000777  -0.003538  -0.027981   0.400252   0.003890   0.000839
    26  H   -0.000101   0.005842  -0.018018   0.400626  -0.010049   0.003228
    27  H   -0.000032  -0.000278  -0.010039  -0.000901  -0.073106   0.451563
    28  H   -0.000001   0.000008  -0.000134  -0.000010   0.015320  -0.065788
    29  H   -0.000000   0.000001   0.000009   0.000000  -0.001630   0.014729
    30  H    0.000042  -0.000021  -0.000127   0.000005   0.015261  -0.002140
    31  H    0.003472   0.005295  -0.014422  -0.000134  -0.066323   0.016212
              13         14         15         16         17         18
     1  C    0.000000  -0.000000  -0.000000  -0.000000   0.401978   0.402992
     2  O    0.000000  -0.000000   0.000000  -0.000000  -0.031465  -0.031329
     3  C   -0.000000   0.000000  -0.000002   0.000041  -0.009424  -0.009359
     4  C   -0.000000  -0.000000   0.000002  -0.000058  -0.000144  -0.000197
     5  C    0.000000   0.000001  -0.000058   0.000852   0.000004   0.000044
     6  C    0.000005  -0.000004   0.000039  -0.001314   0.006407   0.005726
     7  C    0.000051   0.000018  -0.001196  -0.004874   0.000751   0.000609
     8  C   -0.000209   0.000049  -0.000233  -0.004033  -0.000092  -0.000084
     9  N    0.007795  -0.000427   0.009326  -0.080524  -0.000000   0.000000
    10  C    0.000819  -0.000031  -0.000119   0.004426  -0.000000   0.000000
    11  C    0.111343  -0.163181   0.118280   0.281661   0.000000  -0.000000
    12  C    0.292819   0.082875  -0.148878   0.057020   0.000000  -0.000000
    13  C    5.027897   0.287217   0.097865  -0.146954  -0.000000   0.000000
    14  C    0.287217   5.106679   0.275825   0.086324   0.000000   0.000000
    15  C    0.097865   0.275825   5.066362   0.268413  -0.000000  -0.000000
    16  C   -0.146954   0.086324   0.268413   5.169257   0.000001  -0.000000
    17  H   -0.000000   0.000000  -0.000000   0.000001   0.666422  -0.044592
    18  H    0.000000   0.000000  -0.000000  -0.000000  -0.044592   0.666096
    19  H    0.000000  -0.000000   0.000000  -0.000000  -0.023522  -0.023915
    20  H    0.000000   0.000000  -0.000000  -0.000001   0.000073   0.000092
    21  H    0.000000   0.000000   0.000000  -0.000024  -0.000000   0.000000
    22  H   -0.000000  -0.000000   0.000001   0.000044   0.000761   0.000197
    23  H   -0.000000   0.000072  -0.000726   0.002913   0.000028   0.000022
    24  H    0.000010  -0.000005  -0.000070   0.001138  -0.000000   0.000000
    25  H   -0.000047   0.000002   0.000021  -0.000484   0.000000  -0.000000
    26  H    0.000474  -0.000050   0.000032   0.000018   0.000000  -0.000000
    27  H   -0.064483   0.015052  -0.002521   0.016175  -0.000000   0.000000
    28  H    0.449904  -0.070891   0.014134  -0.001981   0.000000  -0.000000
    29  H   -0.070212   0.452840  -0.070078   0.014882  -0.000000   0.000000
    30  H    0.014416  -0.072599   0.453296  -0.067726  -0.000000   0.000000
    31  H   -0.002463   0.014835  -0.072237   0.459280   0.000001  -0.000000
              19         20         21         22         23         24
     1  C    0.397515  -0.000210   0.000008   0.008791  -0.000037   0.000000
     2  O   -0.020821   0.001626  -0.000062  -0.008118  -0.000054   0.000000
     3  C    0.005218  -0.069618   0.016754  -0.094985   0.015133  -0.000048
     4  C   -0.000078   0.445105  -0.075385   0.013035  -0.002860   0.000603
     5  C    0.000008  -0.071645   0.466212  -0.002101   0.016670   0.002604
     6  C    0.000227   0.019988  -0.003284   0.461919  -0.068800   0.000090
     7  C   -0.000035  -0.003100   0.017702  -0.058028   0.460565  -0.000856
     8  C    0.000004   0.015826  -0.079264   0.016856  -0.070281  -0.010479
     9  N   -0.000000  -0.000098  -0.015192  -0.000140  -0.013765  -0.037200
    10  C    0.000000  -0.000027   0.009506   0.000005  -0.000060   0.403455
    11  C   -0.000000   0.000007  -0.000203  -0.000007   0.006110   0.003722
    12  C    0.000000  -0.000000   0.000004   0.000001  -0.000873   0.000180
    13  C    0.000000   0.000000   0.000000  -0.000000  -0.000000   0.000010
    14  C   -0.000000   0.000000   0.000000  -0.000000   0.000072  -0.000005
    15  C    0.000000  -0.000000   0.000000   0.000001  -0.000726  -0.000070
    16  C   -0.000000  -0.000001  -0.000024   0.000044   0.002913   0.001138
    17  H   -0.023522   0.000073  -0.000000   0.000761   0.000028  -0.000000
    18  H   -0.023915   0.000092   0.000000   0.000197   0.000022   0.000000
    19  H    0.613897  -0.000099  -0.000000  -0.000319  -0.000001  -0.000000
    20  H   -0.000099   0.666890  -0.014000  -0.000220   0.000018   0.000030
    21  H   -0.000000  -0.014000   0.688056   0.000014  -0.000218  -0.001090
    22  H   -0.000319  -0.000220   0.000014   0.681023  -0.014047  -0.000001
    23  H   -0.000001   0.000018  -0.000218  -0.014047   0.655225  -0.000016
    24  H   -0.000000   0.000030  -0.001090  -0.000001  -0.000016   0.664460
    25  H    0.000000  -0.000005  -0.000993   0.000002   0.000007  -0.038788
    26  H   -0.000000  -0.000001  -0.000024  -0.000000  -0.000013  -0.025088
    27  H   -0.000000   0.000000  -0.000002  -0.000000  -0.000004   0.000336
    28  H   -0.000000  -0.000000  -0.000000   0.000000  -0.000004  -0.000003
    29  H    0.000000   0.000000   0.000000   0.000000   0.000000  -0.000000
    30  H    0.000000   0.000000  -0.000000  -0.000000   0.000011   0.000001
    31  H   -0.000000  -0.000003  -0.000019   0.000008  -0.001866   0.000059
              25         26         27         28         29         30
     1  C   -0.000000   0.000000   0.000000  -0.000000   0.000000   0.000000
     2  O    0.000000   0.000000  -0.000000   0.000000   0.000000   0.000000
     3  C   -0.000069   0.000004   0.000000   0.000000  -0.000000  -0.000000
     4  C    0.000566  -0.000030  -0.000000   0.000000   0.000000  -0.000000
     5  C    0.003301   0.000575  -0.000000  -0.000000   0.000000   0.000001
     6  C   -0.000154   0.000000   0.000001  -0.000000  -0.000000   0.000002
     7  C    0.000777  -0.000101  -0.000032  -0.000001  -0.000000   0.000042
     8  C   -0.003538   0.005842  -0.000278   0.000008   0.000001  -0.000021
     9  N   -0.027981  -0.018018  -0.010039  -0.000134   0.000009  -0.000127
    10  C    0.400252   0.400626  -0.000901  -0.000010   0.000000   0.000005
    11  C    0.003890  -0.010049  -0.073106   0.015320  -0.001630   0.015261
    12  C    0.000839   0.003228   0.451563  -0.065788   0.014729  -0.002140
    13  C   -0.000047   0.000474  -0.064483   0.449904  -0.070212   0.014416
    14  C    0.000002  -0.000050   0.015052  -0.070891   0.452840  -0.072599
    15  C    0.000021   0.000032  -0.002521   0.014134  -0.070078   0.453296
    16  C   -0.000484   0.000018   0.016175  -0.001981   0.014882  -0.067726
    17  H    0.000000   0.000000  -0.000000   0.000000  -0.000000  -0.000000
    18  H   -0.000000  -0.000000   0.000000  -0.000000   0.000000   0.000000
    19  H    0.000000  -0.000000  -0.000000  -0.000000   0.000000   0.000000
    20  H   -0.000005  -0.000001   0.000000  -0.000000   0.000000   0.000000
    21  H   -0.000993  -0.000024  -0.000002  -0.000000   0.000000  -0.000000
    22  H    0.000002  -0.000000  -0.000000   0.000000   0.000000  -0.000000
    23  H    0.000007  -0.000013  -0.000004  -0.000004   0.000000   0.000011
    24  H   -0.038788  -0.025088   0.000336  -0.000003  -0.000000   0.000001
    25  H    0.635635  -0.015456  -0.000498   0.000001   0.000000  -0.000000
    26  H   -0.015456   0.609993   0.000913   0.000062  -0.000001   0.000000
    27  H   -0.000498   0.000913   0.684365  -0.013543  -0.000240   0.000026
    28  H    0.000001   0.000062  -0.013543   0.676272  -0.012416  -0.000270
    29  H    0.000000  -0.000001  -0.000240  -0.012416   0.678056  -0.012419
    30  H   -0.000000   0.000000   0.000026  -0.000270  -0.012419   0.674487
    31  H   -0.000010  -0.000038  -0.000188   0.000020  -0.000232  -0.012655
              31
     1  C   -0.000001
     2  O    0.000000
     3  C    0.000100
     4  C   -0.000014
     5  C   -0.000730
     6  C   -0.000976
     7  C    0.003472
     8  C    0.005295
     9  N   -0.014422
    10  C   -0.000134
    11  C   -0.066323
    12  C    0.016212
    13  C   -0.002463
    14  C    0.014835
    15  C   -0.072237
    16  C    0.459280
    17  H    0.000001
    18  H   -0.000000
    19  H   -0.000000
    20  H   -0.000003
    21  H   -0.000019
    22  H    0.000008
    23  H   -0.001866
    24  H    0.000059
    25  H   -0.000010
    26  H   -0.000038
    27  H   -0.000188
    28  H    0.000020
    29  H   -0.000232
    30  H   -0.012655
    31  H    0.658116
 Mulliken charges:
               1
     1  C    0.144558
     2  O   -0.374909
     3  C    0.250666
     4  C   -0.042586
     5  C   -0.063219
     6  C   -0.113129
     7  C   -0.047933
     8  C    0.191440
     9  N   -0.370939
    10  C    0.107914
    11  C    0.174730
    12  C   -0.070815
    13  C   -0.006247
    14  C   -0.014599
    15  C   -0.007481
    16  C   -0.054471
    17  H    0.032813
    18  H    0.033697
    19  H    0.051922
    20  H    0.009372
    21  H   -0.008495
    22  H   -0.004689
    23  H    0.016850
    24  H    0.036955
    25  H    0.042732
    26  H    0.047105
    27  H   -0.002594
    28  H    0.009320
    29  H    0.006710
    30  H    0.010410
    31  H    0.014914
 Sum of Mulliken charges =  -0.00000
 Mulliken charges with hydrogens summed into heavy atoms:
               1
     1  C    0.262991
     2  O   -0.374909
     3  C    0.250666
     4  C   -0.033214
     5  C   -0.071714
     6  C   -0.117819
     7  C   -0.031082
     8  C    0.191440
     9  N   -0.370939
    10  C    0.234705
    11  C    0.174730
    12  C   -0.073409
    13  C    0.003074
    14  C   -0.007890
    15  C    0.002929
    16  C   -0.039557
 Electronic spatial extent (au):  <R**2>=           4644.9641
 Charge=             -0.0000 electrons
 Dipole moment (field-independent basis, Debye):
    X=             -0.3178    Y=             -0.2879    Z=             -0.6285  Tot=              0.7609
 Quadrupole moment (field-independent basis, Debye-Ang):
   XX=            -90.8666   YY=            -84.0913   ZZ=            -95.6077
   XY=             -6.9094   XZ=              0.1021   YZ=              0.4156
 Traceless Quadrupole moment (field-independent basis, Debye-Ang):
   XX=             -0.6780   YY=              6.0972   ZZ=             -5.4192
   XY=             -6.9094   XZ=              0.1021   YZ=              0.4156
 Octapole moment (field-independent basis, Debye-Ang**2):
  XXX=             13.9781  YYY=              7.0750  ZZZ=             -0.6648  XYY=             11.5564
  XXY=            -35.2382  XXZ=            -25.9933  XZZ=              7.5485  YZZ=             -0.4070
  YYZ=              5.1970  XYZ=             15.9607
 Hexadecapole moment (field-independent basis, Debye-Ang**3):
 XXXX=          -4646.7410 YYYY=          -1058.1549 ZZZZ=           -300.3758 XXXY=           -139.4901
 XXXZ=             19.9732 YYYX=            -35.9470 YYYZ=             -5.6642 ZZZX=              4.3092
 ZZZY=             -2.4650 XXYY=           -886.8745 XXZZ=           -868.2508 YYZZ=           -221.8540
 XXYZ=              7.4642 YYXZ=             -7.5000 ZZXY=            -10.5354
 N-N= 1.021005818970D+03 E-N=-3.599936859081D+03  KE= 6.648163042356D+02
   1 Symmetry operations used in ECPInt.
 ECPInt:  NShTT=   10011 NPrTT=   36031 LenC2=    9204 LenP2D=   24026.
 LDataN:  DoStor=T MaxTD1= 5 Len=  102
 Calling FoFJK, ICntrl=      2127 FMM=F ISym2X=0 I1Cent= 0 IOpClX= 0 NMat=1 NMatS=1 NMatT=0.
 ***** Axes restored to original set *****
 -------------------------------------------------------------------
 Center     Atomic                   Forces (Hartrees/Bohr)
 Number     Number              X              Y              Z
 -------------------------------------------------------------------
      1        6          -0.000797554    0.010793436    0.008558548
      2        8          -0.033206437    0.006691233   -0.003832501
      3        6           0.026052537   -0.003761203    0.004903091
      4        6           0.013418721   -0.006692499   -0.003586185
      5        6          -0.007313884    0.000329524   -0.002486903
      6        6           0.015206283   -0.002573913    0.004028583
      7        6          -0.006122045    0.006890895    0.001414546
      8        6          -0.030206088    0.003641206   -0.001403368
      9        7          -0.000145154   -0.005051437   -0.005855853
     10        6           0.006719672   -0.019720057   -0.001477805
     11        6           0.019489040    0.013358669    0.002955977
     12        6           0.008348678    0.004453908    0.001029686
     13        6          -0.002654928   -0.002362915    0.001477570
     14        6          -0.006200146   -0.004473609   -0.001536401
     15        6          -0.000773110   -0.001129084   -0.001656327
     16        6           0.003665982    0.004919229    0.002754791
     17        1          -0.002885284   -0.009414296   -0.001360341
     18        1          -0.000184725   -0.002508001   -0.009668205
     19        1           0.004532803    0.001525940    0.002654810
     20        1           0.007679267    0.005532354    0.007205554
     21        1          -0.001240212    0.008552195    0.007323260
     22        1           0.000469055   -0.008399634   -0.007587378
     23        1          -0.005666072   -0.006161541   -0.007244790
     24        1          -0.000399894    0.006181660    0.010369413
     25        1           0.004948562    0.005707845   -0.003743937
     26        1          -0.005255501   -0.000441011   -0.001786035
     27        1          -0.001690251    0.010443856   -0.005111495
     28        1          -0.008016594    0.003187782   -0.005849988
     29        1          -0.007769396   -0.006865925   -0.001432724
     30        1           0.001227100   -0.009259318    0.004742846
     31        1           0.008769574   -0.003395289    0.006201563
 -------------------------------------------------------------------
 Cartesian Forces:  Max     0.033206437 RMS     0.008363298

 GradGradGradGradGradGradGradGradGradGradGradGradGradGradGradGradGradGrad
 Berny optimization.
 FormGI is forming the generalized inverse of G from B-inverse, IUseBI=4.
 Internal  Forces:  Max     0.033441114 RMS     0.006272110
 Search for a local minimum.
 Step number   1 out of a maximum of  161
 All quantities printed in internal units (Hartrees-Bohrs-Radians)
 Mixed Optimization -- RFO/linear search
 Second derivative matrix not updated -- first step.
 ITU=  0
     Eigenvalues ---    0.00864   0.01116   0.01243   0.01305   0.01604
     Eigenvalues ---    0.01617   0.01892   0.01893   0.02062   0.02167
     Eigenvalues ---    0.02175   0.02240   0.02254   0.02260   0.02283
     Eigenvalues ---    0.02297   0.02301   0.02333   0.02336   0.02336
     Eigenvalues ---    0.02342   0.02354   0.02367   0.02374   0.07337
     Eigenvalues ---    0.07465   0.10347   0.10571   0.15989   0.15998
     Eigenvalues ---    0.15999   0.15999   0.16000   0.16000   0.16000
     Eigenvalues ---    0.16000   0.16000   0.16000   0.16000   0.16000
     Eigenvalues ---    0.16000   0.16000   0.16000   0.22000   0.22000
     Eigenvalues ---    0.22001   0.22953   0.23467   0.24000   0.24923
     Eigenvalues ---    0.24947   0.24998   0.25000   0.25000   0.25000
     Eigenvalues ---    0.34742   0.34751   0.34761   0.34997   0.35023
     Eigenvalues ---    0.35161   0.36256   0.36262   0.36273   0.36479
     Eigenvalues ---    0.36482   0.36532   0.36545   0.36555   0.36643
     Eigenvalues ---    0.36646   0.40431   0.41099   0.42704   0.42974
     Eigenvalues ---    0.43444   0.43703   0.44537   0.44696   0.46650
     Eigenvalues ---    0.46667   0.47255   0.47871   0.48364   0.49074
     Eigenvalues ---    0.49743   0.50102
 RFO step:  Lambda=-1.56918462D-02 EMin= 8.63951236D-03
 Linear search not attempted -- first point.
 Iteration  1 RMS(Cart)=  0.06510122 RMS(Int)=  0.00227137
 Iteration  2 RMS(Cart)=  0.00354182 RMS(Int)=  0.00015947
 Iteration  3 RMS(Cart)=  0.00001293 RMS(Int)=  0.00015931
 Iteration  4 RMS(Cart)=  0.00000001 RMS(Int)=  0.00015931
 Variable       Old X    -DE/DX   Delta X   Delta X   Delta X     New X
                                 (Linear)    (Quad)   (Total)
    R1        2.65817  -0.00024   0.00000  -0.00051  -0.00051   2.65766
    R2        2.06096   0.00880   0.00000   0.02423   0.02423   2.08519
    R3        2.06082   0.00880   0.00000   0.02423   0.02423   2.08505
    R4        2.06065   0.00452   0.00000   0.01245   0.01245   2.07309
    R5        2.65630  -0.03344   0.00000  -0.07228  -0.07228   2.58402
    R6        2.63700   0.00034   0.00000   0.00003   0.00004   2.63704
    R7        2.63731   0.00426   0.00000   0.00845   0.00845   2.64576
    R8        2.59723   0.01474   0.00000   0.02829   0.02829   2.62552
    R9        2.03258   0.01189   0.00000   0.03121   0.03121   2.06379
   R10        2.63076   0.01053   0.00000   0.02214   0.02213   2.65289
   R11        2.03222   0.01110   0.00000   0.02913   0.02913   2.06135
   R12        2.59802   0.01681   0.00000   0.03278   0.03278   2.63080
   R13        2.03083   0.01094   0.00000   0.02863   0.02863   2.05946
   R14        2.63115   0.00871   0.00000   0.01862   0.01862   2.64977
   R15        2.03340   0.01088   0.00000   0.02859   0.02859   2.06199
   R16        2.70972  -0.02070   0.00000  -0.04928  -0.04928   2.66044
   R17        2.76388  -0.00862   0.00000  -0.02255  -0.02255   2.74133
   R18        2.70086  -0.01701   0.00000  -0.03986  -0.03986   2.66100
   R19        2.05637   0.01130   0.00000   0.03088   0.03088   2.08725
   R20        2.05679   0.00837   0.00000   0.02290   0.02290   2.07969
   R21        2.05414   0.00530   0.00000   0.01443   0.01443   2.06857
   R22        2.63774   0.00789   0.00000   0.01593   0.01593   2.65367
   R23        2.63717   0.00959   0.00000   0.01954   0.01953   2.65670
   R24        2.60187   0.01652   0.00000   0.03218   0.03218   2.63406
   R25        2.03238   0.01171   0.00000   0.03072   0.03072   2.06310
   R26        2.61057   0.01240   0.00000   0.02505   0.02506   2.63563
   R27        2.03684   0.01040   0.00000   0.02749   0.02749   2.06432
   R28        2.61016   0.01382   0.00000   0.02790   0.02791   2.63807
   R29        2.03656   0.01047   0.00000   0.02766   0.02766   2.06422
   R30        2.60068   0.01572   0.00000   0.03066   0.03066   2.63134
   R31        2.03674   0.01045   0.00000   0.02761   0.02761   2.06435
   R32        2.03335   0.01124   0.00000   0.02954   0.02954   2.06288
    A1        1.91868   0.00667   0.00000   0.03946   0.03905   1.95773
    A2        1.91867   0.00684   0.00000   0.04037   0.03997   1.95864
    A3        1.89458  -0.00731   0.00000  -0.04450  -0.04424   1.85034
    A4        1.92986  -0.00446   0.00000  -0.01986  -0.02076   1.90910
    A5        1.90085  -0.00092   0.00000  -0.00815  -0.00789   1.89295
    A6        1.90066  -0.00103   0.00000  -0.00880  -0.00854   1.89212
    A7        2.00297   0.01680   0.00000   0.06325   0.06325   2.06622
    A8        2.05117  -0.00879   0.00000  -0.03227  -0.03228   2.01889
    A9        2.17545   0.00263   0.00000   0.01072   0.01071   2.18615
   A10        2.05657   0.00617   0.00000   0.02155   0.02155   2.07812
   A11        2.11709  -0.00212   0.00000  -0.01038  -0.01039   2.10670
   A12        2.06080   0.00135   0.00000   0.00685   0.00685   2.06765
   A13        2.10529   0.00077   0.00000   0.00352   0.00352   2.10881
   A14        2.10691   0.00019   0.00000   0.00168   0.00167   2.10858
   A15        2.09324  -0.00237   0.00000  -0.01376  -0.01376   2.07949
   A16        2.08296   0.00218   0.00000   0.01214   0.01214   2.09510
   A17        2.10841  -0.00292   0.00000  -0.01237  -0.01238   2.09603
   A18        2.09023   0.00443   0.00000   0.02310   0.02307   2.11330
   A19        2.08454  -0.00152   0.00000  -0.01076  -0.01078   2.07376
   A20        2.11509  -0.00041   0.00000   0.00055   0.00055   2.11563
   A21        2.09744  -0.00188   0.00000  -0.01214  -0.01215   2.08529
   A22        2.07060   0.00230   0.00000   0.01166   0.01165   2.08226
   A23        2.06228  -0.00092   0.00000  -0.00111  -0.00121   2.06106
   A24        2.12187  -0.00310   0.00000  -0.01297  -0.01306   2.10881
   A25        2.09898   0.00401   0.00000   0.01381   0.01371   2.11269
   A26        2.06758  -0.00299   0.00000  -0.01184  -0.01192   2.05566
   A27        2.12137   0.00030   0.00000   0.00056   0.00046   2.12183
   A28        2.09116   0.00264   0.00000   0.00940   0.00930   2.10046
   A29        1.91884   0.00669   0.00000   0.04087   0.04080   1.95964
   A30        1.92042   0.00093   0.00000   0.00542   0.00518   1.92560
   A31        1.94355  -0.00406   0.00000  -0.02609  -0.02600   1.91755
   A32        1.90259  -0.00252   0.00000  -0.00843  -0.00880   1.89379
   A33        1.88399  -0.00153   0.00000  -0.00908  -0.00884   1.87516
   A34        1.89356   0.00036   0.00000  -0.00334  -0.00342   1.89013
   A35        2.12204  -0.00294   0.00000  -0.01014  -0.01017   2.11188
   A36        2.09810   0.00161   0.00000   0.00698   0.00695   2.10505
   A37        2.06303   0.00133   0.00000   0.00322   0.00316   2.06619
   A38        2.10692  -0.00017   0.00000  -0.00181  -0.00184   2.10508
   A39        2.08335   0.00103   0.00000   0.00645   0.00643   2.08978
   A40        2.09228  -0.00085   0.00000  -0.00423  -0.00425   2.08803
   A41        2.09830   0.00160   0.00000   0.00768   0.00768   2.10598
   A42        2.09284  -0.00156   0.00000  -0.00819  -0.00821   2.08464
   A43        2.09203  -0.00004   0.00000   0.00047   0.00046   2.09248
   A44        2.09214  -0.00384   0.00000  -0.01416  -0.01414   2.07800
   A45        2.09559   0.00181   0.00000   0.00643   0.00643   2.10202
   A46        2.09545   0.00203   0.00000   0.00773   0.00772   2.10317
   A47        2.09579   0.00189   0.00000   0.00933   0.00930   2.10510
   A48        2.09372  -0.00024   0.00000  -0.00062  -0.00064   2.09308
   A49        2.09368  -0.00166   0.00000  -0.00873  -0.00875   2.08493
   A50        2.11017  -0.00081   0.00000  -0.00422  -0.00425   2.10593
   A51        2.07295   0.00117   0.00000   0.00648   0.00648   2.07943
   A52        2.09996  -0.00035   0.00000  -0.00217  -0.00217   2.09779
    D1       -1.05042  -0.00160   0.00000  -0.01281  -0.01369  -1.06411
    D2        1.07792   0.00166   0.00000   0.01456   0.01545   1.09337
    D3       -3.12796   0.00002   0.00000   0.00075   0.00074  -3.12722
    D4        3.12077   0.00027   0.00000   0.00807   0.00804   3.12881
    D5       -0.02103   0.00006   0.00000   0.00217   0.00220  -0.01884
    D6       -3.13891   0.00015   0.00000   0.00356   0.00357  -3.13533
    D7        0.00057  -0.00009   0.00000  -0.00239  -0.00240  -0.00183
    D8        0.00288   0.00034   0.00000   0.00905   0.00904   0.01192
    D9       -3.14083   0.00010   0.00000   0.00310   0.00306  -3.13776
   D10        3.13912   0.00032   0.00000   0.00830   0.00839  -3.13568
   D11       -0.00540  -0.00013   0.00000  -0.00320  -0.00326  -0.00867
   D12       -0.00269   0.00011   0.00000   0.00237   0.00235  -0.00033
   D13        3.13598  -0.00034   0.00000  -0.00913  -0.00930   3.12668
   D14        0.00191  -0.00031   0.00000  -0.00770  -0.00769  -0.00578
   D15        3.13019  -0.00008   0.00000  -0.00211  -0.00218   3.12801
   D16       -3.13751  -0.00007   0.00000  -0.00160  -0.00158  -3.13909
   D17       -0.00924   0.00016   0.00000   0.00399   0.00393  -0.00531
   D18       -0.00679  -0.00014   0.00000  -0.00501  -0.00496  -0.01175
   D19       -3.13680   0.00074   0.00000   0.02122   0.02103  -3.11577
   D20       -3.13514  -0.00034   0.00000  -0.01037  -0.01032   3.13772
   D21        0.01803   0.00054   0.00000   0.01585   0.01567   0.03370
   D22       -0.00230  -0.00059   0.00000  -0.01534  -0.01536  -0.01766
   D23        3.12783  -0.00031   0.00000  -0.00818  -0.00826   3.11957
   D24       -3.14097  -0.00016   0.00000  -0.00393  -0.00402   3.13819
   D25       -0.01084   0.00012   0.00000   0.00323   0.00307  -0.00777
   D26        0.00700   0.00059   0.00000   0.01646   0.01646   0.02346
   D27        3.13717  -0.00033   0.00000  -0.00959  -0.00977   3.12740
   D28       -3.12330   0.00034   0.00000   0.00956   0.00953  -3.11378
   D29        0.00687  -0.00058   0.00000  -0.01649  -0.01670  -0.00984
   D30        0.51677  -0.00072   0.00000  -0.02485  -0.02477   0.49200
   D31       -2.54044  -0.00015   0.00000   0.00044   0.00037  -2.54008
   D32       -2.61301   0.00022   0.00000   0.00203   0.00210  -2.61091
   D33        0.61297   0.00078   0.00000   0.02731   0.02723   0.64020
   D34       -1.30233  -0.00032   0.00000   0.00407   0.00382  -1.29851
   D35        0.79335   0.00138   0.00000   0.02286   0.02297   0.81632
   D36        2.89362  -0.00020   0.00000   0.00529   0.00541   2.89903
   D37        1.75638  -0.00099   0.00000  -0.02118  -0.02141   1.73497
   D38       -2.43112   0.00071   0.00000  -0.00239  -0.00227  -2.43339
   D39       -0.33085  -0.00086   0.00000  -0.01996  -0.01982  -0.35067
   D40       -2.52487   0.00016   0.00000   0.00872   0.00865  -2.51621
   D41        0.61233   0.00073   0.00000   0.02520   0.02511   0.63744
   D42        0.70223   0.00101   0.00000   0.03535   0.03544   0.73767
   D43       -2.44376   0.00158   0.00000   0.05183   0.05190  -2.39186
   D44        3.14050   0.00064   0.00000   0.01737   0.01726  -3.12542
   D45        0.03717   0.00018   0.00000   0.00514   0.00501   0.04218
   D46        0.00322   0.00008   0.00000   0.00120   0.00115   0.00437
   D47       -3.10012  -0.00039   0.00000  -0.01104  -0.01110  -3.11122
   D48        3.14131  -0.00010   0.00000  -0.00381  -0.00396   3.13736
   D49        0.01502  -0.00033   0.00000  -0.00998  -0.01010   0.00492
   D50       -0.00453   0.00044   0.00000   0.01208   0.01205   0.00752
   D51       -3.13082   0.00021   0.00000   0.00592   0.00590  -3.12491
   D52        0.00036  -0.00046   0.00000  -0.01167  -0.01171  -0.01135
   D53       -3.13584  -0.00013   0.00000  -0.00318  -0.00320  -3.13904
   D54        3.10350   0.00004   0.00000   0.00086   0.00076   3.10426
   D55       -0.03269   0.00037   0.00000   0.00935   0.00927  -0.02343
   D56       -0.00274   0.00035   0.00000   0.00902   0.00902   0.00629
   D57        3.14114   0.00023   0.00000   0.00585   0.00587  -3.13617
   D58        3.13346   0.00001   0.00000   0.00051   0.00045   3.13392
   D59       -0.00584  -0.00010   0.00000  -0.00266  -0.00270  -0.00854
   D60        0.00144   0.00017   0.00000   0.00418   0.00420   0.00564
   D61        3.14127  -0.00031   0.00000  -0.00814  -0.00818   3.13309
   D62        3.14074   0.00029   0.00000   0.00734   0.00736  -3.13509
   D63       -0.00261  -0.00019   0.00000  -0.00498  -0.00502  -0.00763
   D64        0.00225  -0.00057   0.00000  -0.01487  -0.01488  -0.01263
   D65        3.12830  -0.00032   0.00000  -0.00853  -0.00860   3.11971
   D66       -3.13758  -0.00010   0.00000  -0.00256  -0.00257  -3.14015
   D67       -0.01153   0.00016   0.00000   0.00378   0.00371  -0.00782
         Item               Value     Threshold  Converged?
 Maximum Force            0.033441     0.000450     NO 
 RMS     Force            0.006272     0.000300     NO 
 Maximum Displacement     0.321088     0.001800     NO 
 RMS     Displacement     0.067094     0.001200     NO 
 Predicted change in Energy=-8.287456D-03
 GradGradGradGradGradGradGradGradGradGradGradGradGradGradGradGradGradGrad

                          Input orientation:                          
 ---------------------------------------------------------------------
 Center     Atomic      Atomic             Coordinates (Angstroms)
 Number     Number       Type             X           Y           Z
 ---------------------------------------------------------------------
      1          6           0        4.868706   -1.469838   -0.450931
      2          8           0        4.370574   -0.402546    0.317601
      3          6           0        3.044876   -0.085807    0.208057
      4          6           0        2.607842    0.971434    1.007150
      5          6           0        1.278904    1.376061    0.983878
      6          6           0        2.127280   -0.727869   -0.632176
      7          6           0        0.799299   -0.311217   -0.663477
      8          6           0        0.346830    0.736102    0.151723
      9          7           0       -0.993006    1.165838    0.104914
     10          6           0       -1.265822    2.561487    0.391463
     11          6           0       -2.052717    0.257074   -0.079543
     12          6           0       -3.184978    0.609349   -0.831763
     13          6           0       -4.237812   -0.289764   -0.993154
     14          6           0       -4.181392   -1.561034   -0.422258
     15          6           0       -3.056496   -1.920783    0.322067
     16          6           0       -2.006923   -1.023131    0.499621
     17          1           0        4.374341   -2.425486   -0.206172
     18          1           0        4.782352   -1.279833   -1.534373
     19          1           0        5.932767   -1.554387   -0.197731
     20          1           0        3.332628    1.467609    1.656151
     21          1           0        0.962183    2.197104    1.628439
     22          1           0        2.435953   -1.547970   -1.280139
     23          1           0        0.097321   -0.805110   -1.337212
     24          1           0       -1.178813    2.792711    1.468002
     25          1           0       -0.569023    3.208782   -0.162279
     26          1           0       -2.285961    2.811964    0.083545
     27          1           0       -3.231274    1.587215   -1.315027
     28          1           0       -5.108423    0.003391   -1.584268
     29          1           0       -5.006392   -2.264504   -0.555326
     30          1           0       -3.000984   -2.910032    0.782130
     31          1           0       -1.139641   -1.304291    1.099979
 ---------------------------------------------------------------------
                    Distance matrix (angstroms):
                    1          2          3          4          5
     1  C    0.000000
     2  O    1.406374   0.000000
     3  C    2.382469   1.367405   0.000000
     4  C    3.632811   2.338915   1.395460   0.000000
     5  C    4.800468   3.628469   2.420251   1.389366   0.000000
     6  C    2.845836   2.457698   1.400078   2.409556   2.785300
     7  C    4.236467   3.704707   2.419297   2.776151   2.406389
     8  C    5.067221   4.185038   2.821021   2.428849   1.403850
     9  N    6.451001   5.592231   4.228682   3.717247   2.445067
    10  C    7.388752   6.368666   5.062009   4.232330   2.869116
    11  C    7.143266   6.469272   5.117200   4.838596   3.671879
    12  C    8.326457   7.709172   6.354176   6.088470   4.879616
    13  C    9.198654   8.708335   7.383905   7.242569   6.092437
    14  C    9.050603   8.661732   7.402198   7.385817   6.357561
    15  C    7.975569   7.580661   6.372352   6.396794   5.486608
    16  C    6.955385   6.410205   5.146287   5.052913   4.097230
    17  H    1.103434   2.089650   2.722712   4.016433   5.044771
    18  H    1.103361   2.090215   2.735065   4.031877   5.066508
    19  H    1.097034   2.008172   3.265165   4.345876   5.625137
    20  H    3.927839   2.523198   2.143100   1.092112   2.162895
    21  H    5.747275   4.482589   3.400997   2.143936   1.090817
    22  H    2.571376   2.758174   2.173347   3.407145   3.874855
    23  H    4.898313   4.600125   3.404898   3.867151   3.397221
    24  H    7.643566   6.506057   5.264302   4.227078   2.877785
    25  H    7.179255   6.137718   4.904257   4.057802   2.843832
    26  H    8.355163   7.395763   6.068806   5.309416   3.947237
    27  H    8.700684   8.025753   6.671495   6.314029   5.066682
    28  H   10.148791   9.676429   8.348454   8.197152   7.019798
    29  H    9.907570   9.599811   8.375702   8.419571   7.424811
    30  H    8.094851   7.800201   6.697629   6.824612   6.060424
    31  H    6.207492   5.638060   4.448642   4.385335   3.612081
                    6          7          8          9         10
     6  C    0.000000
     7  C    1.392161   0.000000
     8  C    2.434689   1.402197   0.000000
     9  N    3.723656   2.446318   1.407844   0.000000
    10  C    4.835375   3.691890   2.447479   1.450647   0.000000
    11  C    4.329883   2.966130   2.457799   1.408141   2.480196
    12  C    5.481613   4.092705   3.668376   2.447812   2.998380
    13  C    6.390355   5.047934   4.835503   3.722001   4.345057
    14  C    6.366912   5.140770   5.109900   4.228421   5.114477
    15  C    5.404179   4.292919   4.320959   3.719190   4.827222
    16  C    4.296485   3.120017   2.959069   2.444464   3.662024
    17  H    2.848274   4.178539   5.132696   6.465508   7.552385
    18  H    2.857976   4.190630   5.155654   6.482540   7.419231
    19  H    3.918367   5.302347   6.047408   7.446982   8.313078
    20  H    3.392555   3.868158   3.422484   4.605270   4.893031
    21  H    3.875990   3.401629   2.166535   2.684661   2.574275
    22  H    1.089817   2.142071   3.410521   4.587035   5.777979
    23  H    2.150296   1.091157   2.157433   2.674542   4.022494
    24  H    5.266449   4.253292   2.879204   2.130552   1.104524
    25  H    4.794588   3.809711   2.655472   2.103515   1.100523
    26  H    5.702576   4.453215   3.353422   2.093304   1.094639
    27  H    5.877074   4.502675   3.959618   2.683959   2.779265
    28  H    7.334618   5.987322   5.771509   4.597964   5.021250
    29  H    7.297700   6.126424   6.177422   5.320754   6.178872
    30  H    5.749885   4.825533   4.989946   4.593834   5.753341
    31  H    3.742378   2.802760   2.696663   2.667056   3.932195
                   11         12         13         14         15
    11  C    0.000000
    12  C    1.404261   0.000000
    13  C    2.430711   1.393883   0.000000
    14  C    2.820324   2.423035   1.394715   0.000000
    15  C    2.431445   2.783775   2.405314   1.396005   0.000000
    16  C    1.405864   2.413584   2.782636   2.422295   1.392446
    17  H    6.965575   8.169755   8.907852   8.602008   7.466666
    18  H    7.155192   8.218334   9.090462   9.036845   8.081133
    19  H    8.189219   9.392392  10.279719  10.116652   9.011730
[...]
    19  H    0.000348  -0.000062  -0.000000  -0.000000   0.000000   0.000000
    20  H   -0.007427   0.016374  -0.000064  -0.000031   0.000017   0.000000
    21  H    0.008106  -0.071302  -0.006404   0.005560  -0.001940  -0.000055
    22  H   -0.015623   0.009723  -0.000155   0.000012   0.000158  -0.000014
    23  H    0.418676  -0.041499  -0.001214   0.000022  -0.000265   0.000469
    24  H   -0.000948  -0.007529  -0.054856   0.409440  -0.010907   0.003511
    25  H    0.001172  -0.003665  -0.042443   0.412324   0.016164  -0.000833
    26  H   -0.000372   0.007051  -0.026729   0.405378  -0.008996  -0.001982
    27  H   -0.000126   0.000902   0.006371  -0.003531  -0.050580   0.419391
    28  H    0.000003  -0.000018  -0.000220   0.000023   0.014293  -0.055791
    29  H    0.000003   0.000003   0.000015  -0.000001  -0.003863   0.011703
    30  H   -0.000094   0.000081  -0.000194   0.000005   0.012426  -0.003387
    31  H   -0.000156   0.001154  -0.005216   0.000040  -0.042165   0.007407
              13         14         15         16         17         18
     1  C    0.000000  -0.000000   0.000000  -0.000004   0.412360   0.413661
     2  O   -0.000000   0.000000  -0.000000   0.000000  -0.042573  -0.043256
     3  C   -0.000002   0.000004  -0.000032   0.000313  -0.018229  -0.016088
     4  C   -0.000002  -0.000009   0.000109  -0.000222   0.000603   0.000672
     5  C    0.000081   0.000127  -0.001169   0.005310  -0.000393  -0.000005
     6  C   -0.000016  -0.000037   0.000111   0.001722   0.014122   0.012140
     7  C   -0.000040   0.000300  -0.001295  -0.002019  -0.001140  -0.000918
     8  C   -0.000465   0.001347  -0.004318   0.029776   0.000420  -0.000051
     9  N    0.003382   0.000821   0.006897  -0.065811   0.000002  -0.000001
    10  C    0.001541   0.000029  -0.000101  -0.001717  -0.000000   0.000000
    11  C   -0.030160  -0.075897  -0.005917   0.383965   0.000005  -0.000004
    12  C    0.472627   0.003856  -0.052928   0.014018   0.000000  -0.000000
    13  C    4.857378   0.463973  -0.005577  -0.055501  -0.000000   0.000000
    14  C    0.463973   4.940199   0.444341   0.025017  -0.000000   0.000000
    15  C   -0.005577   0.444341   4.927602   0.411948   0.000000   0.000000
    16  C   -0.055501   0.025017   0.411948   5.129625   0.000005  -0.000001
    17  H   -0.000000  -0.000000   0.000000   0.000005   0.595399  -0.058270
    18  H    0.000000   0.000000   0.000000  -0.000001  -0.058270   0.593231
    19  H   -0.000000  -0.000000  -0.000000  -0.000000  -0.020392  -0.020339
    20  H    0.000000   0.000000  -0.000000  -0.000004   0.000094   0.000144
    21  H    0.000009   0.000000  -0.000016   0.000493  -0.000005   0.000002
    22  H    0.000003  -0.000004   0.000009  -0.000148   0.001124   0.000837
    23  H    0.000161   0.000288  -0.000761  -0.001682  -0.000050  -0.000007
    24  H    0.000054   0.000112  -0.000999   0.006958  -0.000000   0.000000
    25  H   -0.000167  -0.000036   0.000160  -0.001791   0.000000  -0.000000
    26  H    0.000252  -0.000177   0.000504  -0.001309   0.000000  -0.000000
    27  H   -0.028566   0.006851  -0.002061   0.007806  -0.000000   0.000000
    28  H    0.441116  -0.057027   0.011437  -0.004438   0.000000  -0.000000
    29  H   -0.057370   0.444966  -0.057285   0.012088   0.000000  -0.000000
    30  H    0.010560  -0.056522   0.440057  -0.053966  -0.000000   0.000000
    31  H   -0.001820   0.007399  -0.040657   0.431759  -0.000001   0.000000
              19         20         21         22         23         24
     1  C    0.400875  -0.000141   0.000018   0.009616  -0.000175   0.000000
     2  O   -0.030852   0.008402  -0.000100  -0.006322  -0.000010   0.000000
     3  C    0.007178  -0.075514   0.012318  -0.068981   0.005613   0.000235
     4  C   -0.000359   0.446708  -0.036845   0.003464  -0.000830  -0.001527
     5  C    0.000110  -0.058792   0.446740  -0.001055   0.006697   0.010357
     6  C   -0.002777   0.021398  -0.004377   0.427036  -0.029458  -0.000146
     7  C    0.000348  -0.007427   0.008106  -0.015623   0.418676  -0.000948
     8  C   -0.000062   0.016374  -0.071302   0.009723  -0.041499  -0.007529
     9  N   -0.000000  -0.000064  -0.006404  -0.000155  -0.001214  -0.054856
    10  C   -0.000000  -0.000031   0.005560   0.000012   0.000022   0.409440
    11  C    0.000000   0.000017  -0.001940   0.000158  -0.000265  -0.010907
    12  C    0.000000   0.000000  -0.000055  -0.000014   0.000469   0.003511
    13  C   -0.000000   0.000000   0.000009   0.000003   0.000161   0.000054
    14  C   -0.000000   0.000000   0.000000  -0.000004   0.000288   0.000112
    15  C   -0.000000  -0.000000  -0.000016   0.000009  -0.000761  -0.000999
    16  C   -0.000000  -0.000004   0.000493  -0.000148  -0.001682   0.006958
    17  H   -0.020392   0.000094  -0.000005   0.001124  -0.000050  -0.000000
    18  H   -0.020339   0.000144   0.000002   0.000837  -0.000007   0.000000
    19  H    0.528416  -0.000202   0.000000  -0.000385   0.000002  -0.000000
    20  H   -0.000202   0.539690  -0.008497  -0.000021   0.000017   0.000003
    21  H    0.000000  -0.008497   0.529827   0.000011  -0.000150   0.005587
    22  H   -0.000385  -0.000021   0.000011   0.516749  -0.005381  -0.000000
    23  H    0.000002   0.000017  -0.000150  -0.005381   0.502333   0.000055
    24  H   -0.000000   0.000003   0.005587  -0.000000   0.000055   0.597801
    25  H    0.000000  -0.000005  -0.007997   0.000001  -0.000061  -0.048554
    26  H   -0.000000  -0.000001   0.000154  -0.000000  -0.000041  -0.031314
    27  H    0.000000   0.000000   0.000005  -0.000000  -0.000014   0.000816
    28  H    0.000000  -0.000000  -0.000000   0.000000  -0.000008  -0.000013
    29  H    0.000000   0.000000   0.000000  -0.000000   0.000003   0.000000
    30  H    0.000000   0.000000   0.000000   0.000001  -0.000008   0.000001
    31  H   -0.000000  -0.000001   0.000036  -0.000003  -0.000524   0.000593
              25         26         27         28         29         30
     1  C   -0.000000   0.000000   0.000000   0.000000  -0.000000   0.000000
     2  O    0.000001  -0.000000   0.000000  -0.000000   0.000000   0.000000
     3  C   -0.000422  -0.000023   0.000001  -0.000000   0.000000  -0.000002
     4  C    0.001954   0.000127  -0.000007   0.000000  -0.000000   0.000001
     5  C   -0.008008   0.000134   0.000020  -0.000002   0.000000   0.000004
     6  C    0.000025   0.000078   0.000025   0.000000  -0.000000  -0.000005
     7  C    0.001172  -0.000372  -0.000126   0.000003   0.000003  -0.000094
     8  C   -0.003665   0.007051   0.000902  -0.000018   0.000003   0.000081
     9  N   -0.042443  -0.026729   0.006371  -0.000220   0.000015  -0.000194
    10  C    0.412324   0.405378  -0.003531   0.000023  -0.000001   0.000005
    11  C    0.016164  -0.008996  -0.050580   0.014293  -0.003863   0.012426
    12  C   -0.000833  -0.001982   0.419391  -0.055791   0.011703  -0.003387
    13  C   -0.000167   0.000252  -0.028566   0.441116  -0.057370   0.010560
    14  C   -0.000036  -0.000177   0.006851  -0.057027   0.444966  -0.056522
    15  C    0.000160   0.000504  -0.002061   0.011437  -0.057285   0.440057
    16  C   -0.001791  -0.001309   0.007806  -0.004438   0.012088  -0.053966
    17  H    0.000000   0.000000  -0.000000   0.000000   0.000000  -0.000000
    18  H   -0.000000  -0.000000   0.000000  -0.000000  -0.000000   0.000000
    19  H    0.000000  -0.000000   0.000000   0.000000   0.000000   0.000000
    20  H   -0.000005  -0.000001   0.000000  -0.000000   0.000000   0.000000
    21  H   -0.007997   0.000154   0.000005  -0.000000   0.000000   0.000000
    22  H    0.000001  -0.000000  -0.000000   0.000000  -0.000000   0.000001
    23  H   -0.000061  -0.000041  -0.000014  -0.000008   0.000003  -0.000008
    24  H   -0.048554  -0.031314   0.000816  -0.000013   0.000000   0.000001
    25  H    0.552012  -0.009519  -0.000626   0.000006   0.000000  -0.000000
    26  H   -0.009519   0.531626  -0.003031   0.000046  -0.000001   0.000001
    27  H   -0.000626  -0.003031   0.516076  -0.007083  -0.000101   0.000036
    28  H    0.000006   0.000046  -0.007083   0.546318  -0.006924  -0.000151
    29  H    0.000000  -0.000001  -0.000101  -0.006924   0.545096  -0.006886
    30  H   -0.000000   0.000001   0.000036  -0.000151  -0.006886   0.543925
    31  H   -0.000053  -0.000175  -0.000146   0.000017  -0.000083  -0.006303
              31
     1  C   -0.000001
     2  O    0.000000
     3  C    0.000019
     4  C   -0.000175
     5  C    0.002397
     6  C   -0.000702
     7  C   -0.000156
     8  C    0.001154
     9  N   -0.005216
    10  C    0.000040
    11  C   -0.042165
    12  C    0.007407
    13  C   -0.001820
    14  C    0.007399
    15  C   -0.040657
    16  C    0.431759
    17  H   -0.000001
    18  H    0.000000
    19  H   -0.000000
    20  H   -0.000001
    21  H    0.000036
    22  H   -0.000003
    23  H   -0.000524
    24  H    0.000593
    25  H   -0.000053
    26  H   -0.000175
    27  H   -0.000146
    28  H    0.000017
    29  H   -0.000083
    30  H   -0.006303
    31  H    0.500223
 Mulliken charges:
               1
     1  C   -0.203359
     2  O   -0.291031
     3  C    0.339192
     4  C   -0.214129
     5  C   -0.230659
     6  C   -0.236728
     7  C   -0.266188
     8  C    0.178104
     9  N   -0.069583
    10  C   -0.306592
    11  C    0.212393
    12  C   -0.287371
    13  C   -0.071449
    14  C   -0.149920
    15  C   -0.070058
    16  C   -0.272192
    17  H    0.116920
    18  H    0.118254
    19  H    0.138437
    20  H    0.117853
    21  H    0.128821
    22  H    0.129350
    23  H    0.147802
    24  H    0.121268
    25  H    0.140363
    26  H    0.138320
    27  H    0.137573
    28  H    0.118417
    29  H    0.118638
    30  H    0.120420
    31  H    0.147136
 Sum of Mulliken charges =  -0.00000
 Mulliken charges with hydrogens summed into heavy atoms:
               1
     1  C    0.170252
     2  O   -0.291031
     3  C    0.339192
     4  C   -0.096276
     5  C   -0.101839
     6  C   -0.107378
     7  C   -0.118386
     8  C    0.178104
     9  N   -0.069583
    10  C    0.093358
    11  C    0.212393
    12  C   -0.149798
    13  C    0.046968
    14  C   -0.031283
    15  C    0.050362
    16  C   -0.125056
 Electronic spatial extent (au):  <R**2>=           4647.2269
 Charge=             -0.0000 electrons
 Dipole moment (field-independent basis, Debye):
    X=             -0.4067    Y=             -0.4694    Z=             -0.3297  Tot=              0.7032
 Quadrupole moment (field-independent basis, Debye-Ang):
   XX=            -88.7783   YY=            -85.7402   ZZ=            -95.7421
   XY=             -5.5848   XZ=              0.5818   YZ=              0.1981
 Traceless Quadrupole moment (field-independent basis, Debye-Ang):
   XX=              1.3086   YY=              4.3466   ZZ=             -5.6552
   XY=             -5.5848   XZ=              0.5818   YZ=              0.1981
 Octapole moment (field-independent basis, Debye-Ang**2):
  XXX=             23.8428  YYY=              7.4632  ZZZ=              0.0501  XYY=             12.0444
  XXY=            -38.8516  XXZ=            -23.8938  XZZ=              2.9573  YZZ=             -1.9700
  YYZ=              6.0519  XYZ=             15.9297
 Hexadecapole moment (field-independent basis, Debye-Ang**3):
 XXXX=          -4614.0105 YYYY=          -1053.8792 ZZZZ=           -333.7167 XXXY=           -100.2559
 XXXZ=             43.1654 YYYX=            -28.8012 YYYZ=             -4.7945 ZZZX=              7.1019
 ZZZY=             -8.3816 XXYY=           -897.9677 XXZZ=           -875.0083 YYZZ=           -225.4173
 XXYZ=              0.1654 YYXZ=            -10.1237 ZZXY=             -7.4560
 N-N= 1.020156715766D+03 E-N=-3.603739015886D+03  KE= 6.688009964672D+02
 Breneman (CHELPG) radii used.
 Read replacement radii for each type of atom:
 Atom Element Radius
    1     6    1.50
    2     8    1.70
    3     6    1.50
    4     6    1.50
    5     6    1.50
    6     6    1.50
    7     6    1.50
    8     6    1.50
    9     7    1.70
   10     6    1.50
   11     6    1.50
   12     6    1.50
   13     6    1.50
   14     6    1.50
   15     6    1.50
   16     6    1.50
   17     1    1.45
   18     1    1.45
   19     1    1.45
   20     1    1.45
   21     1    1.45
   22     1    1.45
   23     1    1.45
   24     1    1.45
   25     1    1.45
   26     1    1.45
   27     1    1.45
   28     1    1.45
   29     1    1.45
   30     1    1.45
   31     1    1.45
 Generate Potential Derived Charges using the Breneman model, NDens= 1.
 Grid spacing= 0.300 Box extension= 2.800
 NStep X,Y,Z=   57     39     31   Total possible points=       68913
 Number of Points to Fit=   19002

 **********************************************************************

            Electrostatic Properties Using The SCF Density.

 **********************************************************************

       Atomic Center    1 is at   4.820553 -1.591908 -0.338930
       Atomic Center    2 is at   4.379271 -0.360652  0.155615
       Atomic Center    3 is at   3.064700 -0.048819  0.049133
       Atomic Center    4 is at   2.672688  1.196823  0.545048
       Atomic Center    5 is at   1.344203  1.601888  0.490205
       Atomic Center    6 is at   2.092295 -0.879779 -0.518174
       Atomic Center    7 is at   0.765402 -0.463398 -0.587252
       Atomic Center    8 is at   0.356744  0.777769 -0.076945
       Atomic Center    9 is at  -0.981806  1.188238 -0.178920
       Atomic Center   10 is at  -1.298567  2.586162  0.014480
       Atomic Center   11 is at  -2.030612  0.248006 -0.046269
       Atomic Center   12 is at  -3.156356  0.328973 -0.877569
       Atomic Center   13 is at  -4.209862 -0.570832 -0.735297
       Atomic Center   14 is at  -4.150538 -1.581359  0.223246
       Atomic Center   15 is at  -3.028075 -1.675580  1.045854
       Atomic Center   16 is at  -1.981847 -0.765776  0.922049
       Atomic Center   17 is at   4.335988 -2.441530  0.175147
       Atomic Center   18 is at   4.642131 -1.689088 -1.424974
       Atomic Center   19 is at   5.901012 -1.639013 -0.154216
       Atomic Center   20 is at   3.433707  1.843106  0.986008
       Atomic Center   21 is at   1.081208  2.575603  0.904053
       Atomic Center   22 is at   2.354467 -1.855716 -0.927749
       Atomic Center   23 is at   0.028251 -1.120980 -1.051342
       Atomic Center   24 is at  -1.202317  2.905845  1.070625
       Atomic Center   25 is at  -0.639780  3.219733 -0.598877
       Atomic Center   26 is at  -2.333920  2.776453 -0.292846
       Atomic Center   27 is at  -3.194678  1.099301 -1.650988
       Atomic Center   28 is at  -5.078065 -0.490365 -1.393420
       Atomic Center   29 is at  -4.972546 -2.292358  0.327306
       Atomic Center   30 is at  -2.970710 -2.458933  1.805195
       Atomic Center   31 is at  -1.110642 -0.837515  1.576127
   19002 points will be used for fitting atomic charges
 Fitting point charges to electrostatic potential
 Charges from ESP fit, RMS=   0.00367 RRMS=   0.35663:
 ESP charges:
               1
     1  C    0.155539
     2  O   -0.370512
     3  C    0.360335
     4  C   -0.276203
     5  C   -0.167965
     6  C   -0.224353
     7  C   -0.202950
     8  C    0.302500
     9  N   -0.425638
    10  C    0.055138
    11  C    0.361855
    12  C   -0.249680
    13  C   -0.070620
    14  C   -0.132539
    15  C   -0.100286
    16  C   -0.142764
    17  H    0.000813
    18  H   -0.001992
    19  H    0.047968
    20  H    0.137794
    21  H    0.130541
    22  H    0.138937
    23  H    0.092615
    24  H    0.008962
    25  H    0.029751
    26  H    0.036840
    27  H    0.137441
    28  H    0.095134
    29  H    0.096536
    30  H    0.102791
    31  H    0.074013
 Sum of ESP charges =  -0.00000
 ESP charges with hydrogens summed into heavy atoms:
               1
     1  C    0.202327
     2  O   -0.370512
     3  C    0.360335
     4  C   -0.138410
     5  C   -0.037423
     6  C   -0.085416
     7  C   -0.110334
     8  C    0.302500
     9  N   -0.425638
    10  C    0.130691
    11  C    0.361855
    12  C   -0.112239
    13  C    0.024513
    14  C   -0.036003
    15  C    0.002506
    16  C   -0.068751
 Charge=  -0.00000 Dipole=    -0.4798    -0.4273    -0.3349 Tot=     0.7245
 -----------------------------------------------------------------

              Electrostatic Properties (Atomic Units)

 -----------------------------------------------------------------
    Center     Electric         -------- Electric Field --------
               Potential          X             Y             Z
 -----------------------------------------------------------------
    1 Atom    -14.717297
    2 Atom    -22.332118
    3 Atom    -14.718277
    4 Atom    -14.777585
    5 Atom    -14.773774
    6 Atom    -14.773098
    7 Atom    -14.775443
    8 Atom    -14.734937
    9 Atom    -18.364730
   10 Atom    -14.738173
   11 Atom    -14.728626
   12 Atom    -14.771102
   13 Atom    -14.767859
   14 Atom    -14.772573
   15 Atom    -14.768648
   16 Atom    -14.772773
   17 Atom     -1.110216
   18 Atom     -1.110287
   19 Atom     -1.108041
   20 Atom     -1.110072
   21 Atom     -1.107573
   22 Atom     -1.103467
   23 Atom     -1.111116
   24 Atom     -1.118218
   25 Atom     -1.112361
   26 Atom     -1.107147
   27 Atom     -1.103841
   28 Atom     -1.106894
   29 Atom     -1.109077
   30 Atom     -1.108028
   31 Atom     -1.107559
 -----------------------------------------------------------------
 Unable to Open any file for archive entry.
 1\1\GINC-NOTCH445\SP\RwB97XD\def2TZVP\C14H15N1O1\U1366379\17-Feb-2026\
 0\\#N Guess=Read Geom=Check Integral(Ultrafine) Density Pop=(ChelpG,Re
 adRadii) NMR wB97XD def2TZVP\\prod_5e_4\\0,1\C,0,4.8384370997,-1.49322
 1533,-0.4763695577\O,0,4.362298341,-0.4182904296,0.2806727818\C,0,3.05
 38866383,-0.0795677348,0.1806687253\C,0,2.6267710662,1.0085825829,0.94
 53460895\C,0,1.3009760952,1.4250525088,0.917492559\C,0,2.1202031974,-0
 .7375700863,-0.6275213405\C,0,0.7967285286,-0.3066389638,-0.6662709136
 \C,0,0.3522115384,0.773759709,0.1102941368\N,0,-0.9810125009,1.2071546
 698,0.0376038533\C,0,-1.3169097518,2.5168114952,0.5513196183\C,0,-2.02
 97186378,0.2714473436,-0.1245460431\C,0,-3.1073315875,0.5634700162,-0.
 9721237379\C,0,-4.1615258065,-0.3353901475,-1.1152702668\C,0,-4.149967
 3084,-1.5513083037,-0.4334346404\C,0,-3.0750572731,-1.8540096351,0.402
 2835343\C,0,-2.0292325793,-0.9499507243,0.5653521443\H,0,4.3310105486,
 -2.4394707947,-0.2154736855\H,0,4.7220880457,-1.3185159922,-1.56113276
 83\H,0,5.9070490653,-1.5928180455,-0.2486001343\H,0,3.3576815779,1.520
 3757947,1.573929138\H,0,1.0089958294,2.2688658752,1.5430199655\H,0,2.4
 111352081,-1.5845823902,-1.2495083355\H,0,0.091021167,-0.8238721999,-1
 .3186767989\H,0,-1.2823099539,2.5657546077,1.6573537618\H,0,-0.6285960
 756,3.2767627003,0.1509213\H,0,-2.3344778378,2.7850251614,0.2427212305
 \H,0,-3.1068466798,1.5008361133,-1.5328331831\H,0,-4.9917640462,-0.088
 5186956,-1.780954434\H,0,-4.9720650972,-2.2595826209,-0.5540468219\H,0
 ,-3.0556552606,-2.8006807547,0.9472323345\H,0,-1.1958235503,-1.1873895
 263,1.2294414884\\Version=ES64L-G16RevC.01\State=1-A\HF=-672.4907915\R
 MSD=1.918e-09\Dipole=-0.1512874,-0.145777,-0.1799877\Quadrupole=0.9599
 08,2.7746544,-3.7345624,-4.2174092,-0.327499,1.675146\PG=C01 [X(C14H15
 N1O1)]\\@
 The archive entry for this job was punched.


       THE DEATH-KNELL OF THE ATOM

 SO THE ATOMS IN TURN, WE NOW CLEARLY DISCERN,
 FLY TO BITS WITH THE UTMOST FACILITY;
 THEY WEND ON THEIR WAY, AND, IN SPLITTING, DISPLAY
 AN ABSOLUTE LACK OF STABILITY.

          SIR WM. RAMSAY, 1905
 Job cpu time:       0 days  0 hours 49 minutes 37.2 seconds.
 Elapsed time:       0 days  0 hours  6 minutes 23.9 seconds.
 File lengths (MBytes):  RWF=    209 Int=      0 D2E=      0 Chk=     32 Scr=      2
 Normal termination of Gaussian 16 at Tue Feb 17 16:15:00 2026.
