 Entering Gaussian System, Link 0=g16
 Input=prod_5l_32.com
 Output=prod_5l_32.log
 Initial command:
 /uufs/chpc.utah.edu/sys/installdir/gaussian16/C01/AVX/g16/l1.exe "/scratch/general/vast/u1366379/GAUSSSCRDIR/11028708-notchpeak.peaks/Gau-1511723.inp" -scrdir="/scratch/general/vast/u1366379/GAUSSSCRDIR/11028708-notchpeak.peaks/"
 Entering Link 1 = /uufs/chpc.utah.edu/sys/installdir/gaussian16/C01/AVX/g16/l1.exe PID=   1511731.
  
 Copyright (c) 1988-2019, Gaussian, Inc.  All Rights Reserved.
  
 This is part of the Gaussian(R) 16 program.  It is based on
 the Gaussian(R) 09 system (copyright 2009, Gaussian, Inc.),
 the Gaussian(R) 03 system (copyright 2003, Gaussian, Inc.),
 the Gaussian(R) 98 system (copyright 1998, Gaussian, Inc.),
 the Gaussian(R) 94 system (copyright 1995, Gaussian, Inc.),
 the Gaussian 92(TM) system (copyright 1992, Gaussian, Inc.),
 the Gaussian 90(TM) system (copyright 1990, Gaussian, Inc.),
 the Gaussian 88(TM) system (copyright 1988, Gaussian, Inc.),
 the Gaussian 86(TM) system (copyright 1986, Carnegie Mellon
 University), and the Gaussian 82(TM) system (copyright 1983,
 Carnegie Mellon University). Gaussian is a federally registered
 trademark of Gaussian, Inc.
  
 This software contains proprietary and confidential information,
 including trade secrets, belonging to Gaussian, Inc.
  
 This software is provided under written license and may be
 used, copied, transmitted, or stored only in accord with that
 written license.
  
 The following legend is applicable only to US Government
 contracts under FAR:
  
                    RESTRICTED RIGHTS LEGEND
  
 Use, reproduction and disclosure by the US Government is
 subject to restrictions as set forth in subparagraphs (a)
 and (c) of the Commercial Computer Software - Restricted
 Rights clause in FAR 52.227-19.
  
 Gaussian, Inc.
 340 Quinnipiac St., Bldg. 40, Wallingford CT 06492
  
  
 ---------------------------------------------------------------
 Warning -- This program may not be used in any manner that
 competes with the business of Gaussian, Inc. or will provide
 assistance to any competitor of Gaussian, Inc.  The licensee
 of this program is prohibited from giving any competitor of
 Gaussian, Inc. access to this program.  By using this program,
 the user acknowledges that Gaussian, Inc. is engaged in the
 business of creating and licensing software in the field of
 computational chemistry and represents and warrants to the
 licensee that it is not a competitor of Gaussian, Inc. and that
 it will not use this program in any manner prohibited above.
 ---------------------------------------------------------------
  

 Cite this work as:
 Gaussian 16, Revision C.01,
 M. J. Frisch, G. W. Trucks, H. B. Schlegel, G. E. Scuseria, 
 M. A. Robb, J. R. Cheeseman, G. Scalmani, V. Barone, 
 G. A. Petersson, H. Nakatsuji, X. Li, M. Caricato, A. V. Marenich, 
 J. Bloino, B. G. Janesko, R. Gomperts, B. Mennucci, H. P. Hratchian, 
 J. V. Ortiz, A. F. Izmaylov, J. L. Sonnenberg, D. Williams-Young, 
 F. Ding, F. Lipparini, F. Egidi, J. Goings, B. Peng, A. Petrone, 
 T. Henderson, D. Ranasinghe, V. G. Zakrzewski, J. Gao, N. Rega, 
 G. Zheng, W. Liang, M. Hada, M. Ehara, K. Toyota, R. Fukuda, 
 J. Hasegawa, M. Ishida, T. Nakajima, Y. Honda, O. Kitao, H. Nakai, 
 T. Vreven, K. Throssell, J. A. Montgomery, Jr., J. E. Peralta, 
 F. Ogliaro, M. J. Bearpark, J. J. Heyd, E. N. Brothers, K. N. Kudin, 
 V. N. Staroverov, T. A. Keith, R. Kobayashi, J. Normand, 
 K. Raghavachari, A. P. Rendell, J. C. Burant, S. S. Iyengar, 
 J. Tomasi, M. Cossi, J. M. Millam, M. Klene, C. Adamo, R. Cammi, 
 J. W. Ochterski, R. L. Martin, K. Morokuma, O. Farkas, 
 J. B. Foresman, and D. J. Fox, Gaussian, Inc., Wallingford CT, 2019.
 
 ******************************************
 Gaussian 16:  ES64L-G16RevC.01  3-Jul-2019
                17-Feb-2026 
 ******************************************
 %NProcShared=8
 Will use up to    8 processors via shared memory.
 %Mem=8GB
 %chk=prod_5l_32.chk
 ------------------------------------------------------
 #N OPT FREQ=NORAMAN Integral(Ultrafine) wB97XD def2SVP
 ------------------------------------------------------
 1/18=20,19=15,26=4,38=1/1,3;
 2/9=110,12=2,17=6,18=5,40=1/2;
 3/5=43,7=101,11=2,25=1,30=1,71=1,74=-58,75=-5/1,2,3;
 4//1;
 5/5=2,38=5/2;
 6/7=2,8=2,9=2,10=2,28=1/1;
 7//1,2,3,16;
 1/18=20,19=15,26=4/3(2);
 2/9=110/2;
 99//99;
 2/9=110/2;
 3/5=43,7=101,11=2,25=1,30=1,71=1,74=-58,75=-5/1,2,3;
 4/5=5,16=3,69=1/1;
 5/5=2,38=5/2;
 7//1,2,3,16;
 1/18=20,19=15,26=4/3(-5);
 2/9=110/2;
 6/7=2,8=2,9=2,10=2,19=2,28=1/1;
 99/9=1/99;
 ----------
 prod_5l_32
 ----------
 Symbolic Z-matrix:
 Charge =  0 Multiplicity = 1
 O                     0.42247   1.89498   1.28172 
 S                     0.00447   1.63094  -0.13513 
 N                     1.04807   0.60638  -1.0215 
 C                     2.06104  -0.13432  -0.4141 
 C                     2.17622  -0.28449   0.97201 
 C                     3.17168  -1.0548    1.52342 
 C                     4.08285  -1.69639   0.70867 
 C                     3.9947   -1.55963  -0.66239 
 C                     2.9997   -0.79028  -1.21831 
 C                    -1.37759   0.4879   -0.04962 
 C                    -1.88483   0.12382   1.17433 
 C                    -2.94605  -0.75553   1.24733 
 C                    -3.50981  -1.27757   0.09277 
 C                    -4.65329  -2.22585   0.18046 
 C                    -2.98472  -0.89902  -1.13495 
 C                    -1.92365  -0.01886  -1.20402 
 O                    -0.37157   2.74358  -1.06837 
 H                     1.29972   1.14035  -1.82972 
 H                     1.48938   0.24414   1.6065 
 H                     3.24586  -1.1513    2.59415 
 H                     4.86385  -2.29908   1.14201 
 H                     4.70723  -2.05812  -1.29882 
 H                     2.92303  -0.6888   -2.28651 
 H                    -1.44562   0.53786   2.0671 
 H                    -3.34684  -1.04165   2.20444 
 H                    -5.48631  -1.77926   0.72414 
 H                    -5.01433  -2.50679  -0.80917 
 H                    -4.36106  -3.13835   0.70091 
 H                    -3.41399  -1.29652  -2.03827 
 H                    -1.51725   0.28177  -2.15554 
 

 GradGradGradGradGradGradGradGradGradGradGradGradGradGradGradGradGradGrad
 Berny optimization.
 Initialization pass.
                           ----------------------------
                           !    Initial Parameters    !
                           ! (Angstroms and Degrees)  !
 --------------------------                            --------------------------
 ! Name  Definition              Value          Derivative Info.                !
 --------------------------------------------------------------------------------
 ! R1    R(1,2)                  1.5006         estimate D2E/DX2                !
 ! R2    R(2,3)                  1.7101         estimate D2E/DX2                !
 ! R3    R(2,10)                 1.7955         estimate D2E/DX2                !
 ! R4    R(2,17)                 1.5001         estimate D2E/DX2                !
 ! R5    R(3,4)                  1.3942         estimate D2E/DX2                !
 ! R6    R(3,18)                 1.0008         estimate D2E/DX2                !
 ! R7    R(4,5)                  1.399          estimate D2E/DX2                !
 ! R8    R(4,9)                  1.3993         estimate D2E/DX2                !
 ! R9    R(5,6)                  1.3742         estimate D2E/DX2                !
 ! R10   R(5,19)                 1.0741         estimate D2E/DX2                !
 ! R11   R(6,7)                  1.3805         estimate D2E/DX2                !
 ! R12   R(6,20)                 1.0776         estimate D2E/DX2                !
 ! R13   R(7,8)                  1.3807         estimate D2E/DX2                !
 ! R14   R(7,21)                 1.0775         estimate D2E/DX2                !
 ! R15   R(8,9)                  1.3751         estimate D2E/DX2                !
 ! R16   R(8,22)                 1.0776         estimate D2E/DX2                !
 ! R17   R(9,23)                 1.0757         estimate D2E/DX2                !
 ! R18   R(10,11)                1.374          estimate D2E/DX2                !
 ! R19   R(10,16)                1.3739         estimate D2E/DX2                !
 ! R20   R(11,12)                1.3801         estimate D2E/DX2                !
 ! R21   R(11,24)                1.0777         estimate D2E/DX2                !
 ! R22   R(12,13)                1.3869         estimate D2E/DX2                !
 ! R23   R(12,25)                1.0764         estimate D2E/DX2                !
 ! R24   R(13,14)                1.4881         estimate D2E/DX2                !
 ! R25   R(13,15)                1.3879         estimate D2E/DX2                !
 ! R26   R(14,26)                1.0904         estimate D2E/DX2                !
 ! R27   R(14,27)                1.0902         estimate D2E/DX2                !
 ! R28   R(14,28)                1.0904         estimate D2E/DX2                !
 ! R29   R(15,16)                1.3803         estimate D2E/DX2                !
 ! R30   R(15,29)                1.0762         estimate D2E/DX2                !
 ! R31   R(16,30)                1.0775         estimate D2E/DX2                !
 ! A1    A(1,2,3)              115.1383         estimate D2E/DX2                !
 ! A2    A(1,2,10)             106.3469         estimate D2E/DX2                !
 ! A3    A(1,2,17)             121.7829         estimate D2E/DX2                !
 ! A4    A(3,2,10)              96.4887         estimate D2E/DX2                !
 ! A5    A(3,2,17)             105.9559         estimate D2E/DX2                !
 ! A6    A(10,2,17)            107.9899         estimate D2E/DX2                !
 ! A7    A(2,3,4)              122.4042         estimate D2E/DX2                !
 ! A8    A(2,3,18)             104.6171         estimate D2E/DX2                !
 ! A9    A(4,3,18)             116.91           estimate D2E/DX2                !
 ! A10   A(3,4,5)              123.2656         estimate D2E/DX2                !
 ! A11   A(3,4,9)              119.0812         estimate D2E/DX2                !
 ! A12   A(5,4,9)              117.6379         estimate D2E/DX2                !
 ! A13   A(4,5,6)              121.1573         estimate D2E/DX2                !
 ! A14   A(4,5,19)             118.6718         estimate D2E/DX2                !
 ! A15   A(6,5,19)             120.1362         estimate D2E/DX2                !
 ! A16   A(5,6,7)              120.1218         estimate D2E/DX2                !
 ! A17   A(5,6,20)             119.918          estimate D2E/DX2                !
 ! A18   A(7,6,20)             119.9582         estimate D2E/DX2                !
 ! A19   A(6,7,8)              119.8618         estimate D2E/DX2                !
 ! A20   A(6,7,21)             120.0677         estimate D2E/DX2                !
 ! A21   A(8,7,21)             120.0699         estimate D2E/DX2                !
 ! A22   A(7,8,9)              120.203          estimate D2E/DX2                !
 ! A23   A(7,8,22)             119.8972         estimate D2E/DX2                !
 ! A24   A(9,8,22)             119.8998         estimate D2E/DX2                !
 ! A25   A(4,9,8)              121.017          estimate D2E/DX2                !
 ! A26   A(4,9,23)             118.5973         estimate D2E/DX2                !
 ! A27   A(8,9,23)             120.3832         estimate D2E/DX2                !
 ! A28   A(2,10,11)            119.6871         estimate D2E/DX2                !
 ! A29   A(2,10,16)            120.0475         estimate D2E/DX2                !
 ! A30   A(11,10,16)           120.2654         estimate D2E/DX2                !
 ! A31   A(10,11,12)           119.9873         estimate D2E/DX2                !
 ! A32   A(10,11,24)           119.0578         estimate D2E/DX2                !
 ! A33   A(12,11,24)           120.9542         estimate D2E/DX2                !
 ! A34   A(11,12,13)           120.5554         estimate D2E/DX2                !
 ! A35   A(11,12,25)           120.1797         estimate D2E/DX2                !
 ! A36   A(13,12,25)           119.2646         estimate D2E/DX2                !
 ! A37   A(12,13,14)           120.2102         estimate D2E/DX2                !
 ! A38   A(12,13,15)           118.6824         estimate D2E/DX2                !
 ! A39   A(14,13,15)           121.1073         estimate D2E/DX2                !
 ! A40   A(13,14,26)           110.8197         estimate D2E/DX2                !
 ! A41   A(13,14,27)           111.4186         estimate D2E/DX2                !
 ! A42   A(13,14,28)           110.8222         estimate D2E/DX2                !
 ! A43   A(26,14,27)           107.7668         estimate D2E/DX2                !
 ! A44   A(26,14,28)           108.0297         estimate D2E/DX2                !
 ! A45   A(27,14,28)           107.8403         estimate D2E/DX2                !
 ! A46   A(13,15,16)           120.5974         estimate D2E/DX2                !
 ! A47   A(13,15,29)           119.3945         estimate D2E/DX2                !
 ! A48   A(16,15,29)           120.008          estimate D2E/DX2                !
 ! A49   A(10,16,15)           119.912          estimate D2E/DX2                !
 ! A50   A(10,16,30)           119.2874         estimate D2E/DX2                !
 ! A51   A(15,16,30)           120.8001         estimate D2E/DX2                !
 ! D1    D(1,2,3,4)             11.8971         estimate D2E/DX2                !
 ! D2    D(1,2,3,18)          -124.1182         estimate D2E/DX2                !
 ! D3    D(10,2,3,4)           -99.5888         estimate D2E/DX2                !
 ! D4    D(10,2,3,18)          124.3958         estimate D2E/DX2                !
 ! D5    D(17,2,3,4)           149.5677         estimate D2E/DX2                !
 ! D6    D(17,2,3,18)           13.5524         estimate D2E/DX2                !
 ! D7    D(1,2,10,11)            4.5558         estimate D2E/DX2                !
 ! D8    D(1,2,10,16)         -175.4476         estimate D2E/DX2                !
 ! D9    D(3,2,10,11)          123.1703         estimate D2E/DX2                !
 ! D10   D(3,2,10,16)          -56.8331         estimate D2E/DX2                !
 ! D11   D(17,2,10,11)        -127.6929         estimate D2E/DX2                !
 ! D12   D(17,2,10,16)          52.3036         estimate D2E/DX2                !
 ! D13   D(2,3,4,5)             11.014          estimate D2E/DX2                !
 ! D14   D(2,3,4,9)           -170.4445         estimate D2E/DX2                !
 ! D15   D(18,3,4,5)           142.1119         estimate D2E/DX2                !
 ! D16   D(18,3,4,9)           -39.3466         estimate D2E/DX2                !
 ! D17   D(3,4,5,6)            178.2183         estimate D2E/DX2                !
 ! D18   D(3,4,5,19)            -3.922          estimate D2E/DX2                !
 ! D19   D(9,4,5,6)             -0.3428         estimate D2E/DX2                !
 ! D20   D(9,4,5,19)           177.5168         estimate D2E/DX2                !
 ! D21   D(3,4,9,8)           -178.3138         estimate D2E/DX2                !
 ! D22   D(3,4,9,23)             1.1177         estimate D2E/DX2                !
 ! D23   D(5,4,9,8)              0.3096         estimate D2E/DX2                !
 ! D24   D(5,4,9,23)           179.7411         estimate D2E/DX2                !
 ! D25   D(4,5,6,7)              0.0992         estimate D2E/DX2                !
 ! D26   D(4,5,6,20)           179.5861         estimate D2E/DX2                !
 ! D27   D(19,5,6,7)          -177.7294         estimate D2E/DX2                !
 ! D28   D(19,5,6,20)            1.7575         estimate D2E/DX2                !
 ! D29   D(5,6,7,8)              0.1885         estimate D2E/DX2                !
 ! D30   D(5,6,7,21)           179.9163         estimate D2E/DX2                !
 ! D31   D(20,6,7,8)          -179.2982         estimate D2E/DX2                !
 ! D32   D(20,6,7,21)            0.4297         estimate D2E/DX2                !
 ! D33   D(6,7,8,9)             -0.2211         estimate D2E/DX2                !
 ! D34   D(6,7,8,22)           179.8399         estimate D2E/DX2                !
 ! D35   D(21,7,8,9)          -179.949          estimate D2E/DX2                !
 ! D36   D(21,7,8,22)            0.112          estimate D2E/DX2                !
 ! D37   D(7,8,9,4)             -0.0333         estimate D2E/DX2                !
 ! D38   D(7,8,9,23)          -179.4547         estimate D2E/DX2                !
 ! D39   D(22,8,9,4)           179.9056         estimate D2E/DX2                !
 ! D40   D(22,8,9,23)            0.4842         estimate D2E/DX2                !
 ! D41   D(2,10,11,12)        -179.9261         estimate D2E/DX2                !
 ! D42   D(2,10,11,24)           0.3754         estimate D2E/DX2                !
 ! D43   D(16,10,11,12)          0.0773         estimate D2E/DX2                !
 ! D44   D(16,10,11,24)       -179.6211         estimate D2E/DX2                !
 ! D45   D(2,10,16,15)         179.8985         estimate D2E/DX2                !
 ! D46   D(2,10,16,30)          -0.3518         estimate D2E/DX2                !
 ! D47   D(11,10,16,15)         -0.105          estimate D2E/DX2                !
 ! D48   D(11,10,16,30)        179.6447         estimate D2E/DX2                !
 ! D49   D(10,11,12,13)         -0.0566         estimate D2E/DX2                !
 ! D50   D(10,11,12,25)       -179.9042         estimate D2E/DX2                !
 ! D51   D(24,11,12,13)        179.636          estimate D2E/DX2                !
 ! D52   D(24,11,12,25)         -0.2115         estimate D2E/DX2                !
 ! D53   D(11,12,13,14)        179.9595         estimate D2E/DX2                !
 ! D54   D(11,12,13,15)          0.0627         estimate D2E/DX2                !
 ! D55   D(25,12,13,14)         -0.1916         estimate D2E/DX2                !
 ! D56   D(25,12,13,15)        179.9116         estimate D2E/DX2                !
 ! D57   D(12,13,14,26)         57.2013         estimate D2E/DX2                !
 ! D58   D(12,13,14,27)        177.1909         estimate D2E/DX2                !
 ! D59   D(12,13,14,28)        -62.7249         estimate D2E/DX2                !
 ! D60   D(15,13,14,26)       -122.9044         estimate D2E/DX2                !
 ! D61   D(15,13,14,27)         -2.9149         estimate D2E/DX2                !
 ! D62   D(15,13,14,28)        117.1693         estimate D2E/DX2                !
 ! D63   D(12,13,15,16)         -0.0906         estimate D2E/DX2                !
 ! D64   D(12,13,15,29)       -179.9467         estimate D2E/DX2                !
 ! D65   D(14,13,15,16)       -179.9864         estimate D2E/DX2                !
 ! D66   D(14,13,15,29)          0.1574         estimate D2E/DX2                !
 ! D67   D(13,15,16,10)          0.1123         estimate D2E/DX2                !
 ! D68   D(13,15,16,30)       -179.6335         estimate D2E/DX2                !
 ! D69   D(29,15,16,10)        179.9676         estimate D2E/DX2                !
 ! D70   D(29,15,16,30)          0.2218         estimate D2E/DX2                !
 --------------------------------------------------------------------------------
 Trust Radius=3.00D-01 FncErr=1.00D-07 GrdErr=1.00D-06 EigMax=2.50D+02 EigMin=1.00D-04
 Number of steps in this run=    162 maximum allowed number of steps=    180.
 GradGradGradGradGradGradGradGradGradGradGradGradGradGradGradGradGradGrad

                          Input orientation:                          
 ---------------------------------------------------------------------
 Center     Atomic      Atomic             Coordinates (Angstroms)
 Number     Number       Type             X           Y           Z
 ---------------------------------------------------------------------
      1          8           0        0.422470    1.894980    1.281720
      2         16           0        0.004470    1.630940   -0.135130
      3          7           0        1.048070    0.606380   -1.021500
      4          6           0        2.061040   -0.134320   -0.414100
      5          6           0        2.176220   -0.284490    0.972010
      6          6           0        3.171680   -1.054800    1.523420
      7          6           0        4.082850   -1.696390    0.708670
      8          6           0        3.994700   -1.559630   -0.662390
      9          6           0        2.999700   -0.790280   -1.218310
     10          6           0       -1.377590    0.487900   -0.049620
     11          6           0       -1.884830    0.123820    1.174330
     12          6           0       -2.946050   -0.755530    1.247330
     13          6           0       -3.509810   -1.277570    0.092770
     14          6           0       -4.653290   -2.225850    0.180460
     15          6           0       -2.984720   -0.899020   -1.134950
     16          6           0       -1.923650   -0.018860   -1.204020
     17          8           0       -0.371570    2.743580   -1.068370
     18          1           0        1.299720    1.140350   -1.829720
     19          1           0        1.489380    0.244140    1.606500
     20          1           0        3.245860   -1.151300    2.594150
     21          1           0        4.863850   -2.299080    1.142010
     22          1           0        4.707230   -2.058120   -1.298820
     23          1           0        2.923030   -0.688800   -2.286510
     24          1           0       -1.445620    0.537860    2.067100
     25          1           0       -3.346840   -1.041650    2.204440
     26          1           0       -5.486310   -1.779260    0.724140
     27          1           0       -5.014330   -2.506790   -0.809170
     28          1           0       -4.361060   -3.138350    0.700910
     29          1           0       -3.413990   -1.296520   -2.038270
     30          1           0       -1.517250    0.281770   -2.155540
 ---------------------------------------------------------------------
                    Distance matrix (angstroms):
                    1          2          3          4          5
     1  O    0.000000
     2  S    1.500635   0.000000
     3  N    2.712321   1.710110   0.000000
     4  C    3.111073   2.724600   1.394159   0.000000
     5  C    2.814542   3.100182   2.457733   1.398970   0.000000
     6  C    4.039527   4.471600   3.707540   2.415531   1.374180
     7  C    5.159913   5.330695   4.184032   2.790769   2.387058
     8  C    5.336171   5.136115   3.674668   2.414994   2.757556
     9  C    4.483624   4.000873   2.407956   1.399328   2.394044
    10  C    2.644344   1.795534   2.615801   3.513428   3.777549
    11  C    2.910700   2.748736   3.695462   4.261412   4.086536
    12  C    4.286410   4.038812   4.791178   5.311987   5.151245
    13  C    5.190520   4.567443   5.056198   5.709493   5.838682
    14  C    6.630034   6.055506   6.478560   7.057636   7.144063
    15  C    5.025502   4.041732   4.306100   5.154036   5.608229
    16  C    3.917393   2.753545   3.042262   4.063872   4.649150
    17  O    2.621745   1.500104   2.566164   3.824653   4.452369
    18  H    3.319653   2.188604   1.000835   2.051432   3.263145
    19  H    1.992248   2.676088   2.689304   2.133741   1.074140
    20  H    4.355895   5.069165   4.581773   3.389338   2.127634
    21  H    6.110279   6.378849   5.261430   3.868256   3.363157
    22  H    6.375371   6.089277   4.534966   3.389109   3.835159
    23  H    5.065667   4.304372   2.606380   2.134571   3.367365
    24  H    2.438925   2.854365   3.970218   4.347970   3.872106
    25  H    4.866509   4.883401   5.695430   6.076608   5.709323
    26  H    6.980302   6.520466   7.171936   7.807939   7.810899
    27  H    7.301109   6.539380   6.818329   7.472988   7.734031
    28  H    6.968064   6.519428   6.800617   7.177103   7.138210
    29  H    5.993866   4.886495   4.956292   5.827915   6.429342
    30  H    4.263768   2.866696   2.823524   4.001238   4.872775
                    6          7          8          9         10
     6  C    0.000000
     7  C    1.380466   0.000000
     8  C    2.389557   1.380681   0.000000
     9  C    2.759825   2.389038   1.375126   0.000000
    10  C    5.054724   5.929800   5.781813   4.707467   0.000000
    11  C    5.203778   6.256453   6.385641   5.515337   1.374009
    12  C    6.131265   7.112019   7.243453   6.436811   2.385008
    13  C    6.836570   7.629104   7.547681   6.658086   2.771917
    14  C    8.025276   8.768094   8.714469   7.911111   4.259998
    15  C    6.707642   7.347468   7.026523   5.985988   2.384189
    16  C    5.871498   6.523077   6.139560   4.983439   1.373909
    17  O    5.805143   6.535523   6.143838   4.886319   2.671707
    18  H    4.423400   4.715541   3.989420   2.644066   3.280615
    19  H    2.127036   3.361226   3.831198   3.366102   3.319890
    20  H    1.077626   2.133708   3.366385   3.837419   5.572503
    21  H    2.134747   1.077488   2.134963   3.364914   6.938502
    22  H    3.365948   2.133241   1.077606   2.128276   6.713252
    23  H    3.835538   3.366233   2.131804   1.075745   4.988350
    24  H    4.914429   6.115651   6.437908   5.684958   2.118402
    25  H    6.554011   7.606991   7.898432   7.215052   3.361288
    26  H    8.724934   9.569531   9.584375   8.761482   4.756080
    27  H    8.634814   9.258470   9.059872   8.206003   4.771893
    28  H    7.858745   8.566150   8.612181   7.961007   4.755426
    29  H    7.491002   7.994260   7.539958   6.485679   3.359436
    30  H    6.107965   6.593780   6.000154   4.736088   2.120588
                   11         12         13         14         15
    11  C    0.000000
    12  C    1.380135   0.000000
    13  C    2.402962   1.386853   0.000000
    14  C    3.764717   2.492934   1.488110   0.000000
    15  C    2.754766   2.386911   1.387918   2.504976   0.000000
    16  C    2.382942   2.756284   2.404562   3.773397   1.380334
    17  O    3.766006   4.922823   5.231295   6.677420   4.483472
    18  H    4.494331   5.575765   5.716107   7.128145   4.795640
    19  H    3.403901   4.560853   5.440485   6.772506   5.370282
    20  H    5.474103   6.349040   7.204993   8.329293   7.265670
    21  H    7.170507   7.961669   8.500739   9.565871   8.291246
    22  H    7.371064   8.170209   8.370515   9.478172   7.780518
    23  H    5.979405   6.851173   6.883971   8.114745   6.022607
    24  H    1.077670   2.143868   3.384471   4.635369   3.832307
    25  H    2.134694   1.076363   2.131048   2.684332   3.361993
    26  H    4.098176   2.788310   2.134683   1.090391   3.238671
    27  H    4.544024   3.402041   2.141975   1.090250   2.609669
    28  H    4.122814   2.824652   2.134704   1.090377   3.206134
    29  H    3.830991   3.362559   2.133277   2.705971   1.076228
    30  H    3.353818   3.833665   3.384780   4.645406   2.142274
                   16         17         18         19         20
    16  C    0.000000
    17  O    3.171502   0.000000
    18  H    3.482152   2.437870   0.000000
    19  H    4.429104   4.106734   3.556230   0.000000
    20  H    6.514012   6.455226   5.348808   2.451107   0.000000
    21  H    7.534814   7.597620   5.776148   4.250972   2.458455
    22  H    6.938021   6.993114   4.703529   4.908752   4.255954
    23  H    5.011079   4.911159   2.487887   4.252206   4.913142
    24  H    3.352413   3.981200   4.804695   2.985406   5.014083
    25  H    3.832645   5.821639   6.528866   5.039823   6.605118
    26  H    4.416940   7.059018   7.816427   7.316622   8.952210
    27  H    3.987230   7.013472   7.362770   7.463332   9.036077
    28  H    4.393284   7.324171   7.533644   6.818283   8.086900
    29  H    2.132956   5.149702   5.310451   6.300874   8.113816
    30  H    1.077464   2.924898   2.962877   4.816034   6.877533
                   21         22         23         24         25
    21  H    0.000000
    22  H    2.457691   0.000000
    23  H    4.256117   2.456408   0.000000
    24  H    6.979501   7.478375   6.288380   0.000000
    25  H    8.374086   8.841611   7.720389   2.475551   0.000000
    26  H   10.371627  10.396076   8.998340   4.847655   2.704198
    27  H   10.071181   9.744218   8.275827   5.502592   3.742860
    28  H    9.273506   9.348781   8.245177   4.886797   2.772255
    29  H    8.924233   8.190301   6.370932   4.908512   4.250889
    30  H    7.632369   6.704715   4.547004   4.231005   4.910017
                   26         27         28         29         30
    26  H    0.000000
    27  H    1.761563   0.000000
    28  H    1.764611   1.762377   0.000000
    29  H    3.486898   2.352983   3.434004   0.000000
    30  H    5.319195   4.671011   5.286188   2.470298   0.000000
 Stoichiometry    C13H13NO2S
 Framework group  C1[X(C13H13NO2S)]
 Deg. of freedom    84
 Full point group                 C1      NOp   1
 Largest Abelian subgroup         C1      NOp   1
 Largest concise Abelian subgroup C1      NOp   1
                         Standard orientation:                         
 ---------------------------------------------------------------------
 Center     Atomic      Atomic             Coordinates (Angstroms)
 Number     Number       Type             X           Y           Z
 ---------------------------------------------------------------------
      1          8           0        0.500741    1.666214    1.612670
      2         16           0        0.065715    1.678681    0.176529
      3          7           0        1.078250    0.814229   -0.896771
      4          6           0        2.078375   -0.047868   -0.449312
      5          6           0        2.200785   -0.455055    0.883479
      6          6           0        3.182281   -1.335476    1.270643
      7          6           0        4.071903   -1.834146    0.340274
      8          6           0        3.976320   -1.443505   -0.980537
      9          6           0        2.995227   -0.563200   -1.372316
     10          6           0       -1.341893    0.569539    0.065233
     11          6           0       -1.847958   -0.004354    1.206481
     12          6           0       -2.928777   -0.859008    1.127927
     13          6           0       -3.513493   -1.145541   -0.096559
     14          6           0       -4.678038   -2.068873   -0.172470
     15          6           0       -2.989275   -0.557117   -1.239042
     16          6           0       -1.908557    0.297607   -1.156475
     17          8           0       -0.291538    2.952967   -0.529783
     18          1           0        1.335988    1.483366   -1.594981
     19          1           0        1.531393   -0.038723    1.613108
     20          1           0        3.262504   -1.630540    2.303977
     21          1           0        4.841992   -2.523388    0.645049
     22          1           0        4.672081   -1.830419   -1.706794
     23          1           0        2.912650   -0.263659   -2.402211
     24          1           0       -1.392303    0.227326    2.155204
     25          1           0       -3.328680   -1.309085    2.020152
     26          1           0       -5.496182   -1.713152    0.454472
     27          1           0       -5.053198   -2.153501   -1.192635
     28          1           0       -4.403113   -3.068152    0.166325
     29          1           0       -3.434689   -0.770804   -2.195186
     30          1           0       -1.502664    0.760781   -2.040586
 ---------------------------------------------------------------------
 Rotational constants (GHZ):           0.6951746           0.2687004           0.2357146
 Standard basis: def2SVP (5D, 7F)
 There are   324 symmetry adapted cartesian basis functions of A   symmetry.
 There are   307 symmetry adapted basis functions of A   symmetry.
   307 basis functions,   528 primitive gaussians,   324 cartesian basis functions
    65 alpha electrons       65 beta electrons
       nuclear repulsion energy      1308.9102885014 Hartrees.
 NAtoms=   30 NActive=   30 NUniq=   30 SFac= 1.00D+00 NAtFMM=   60 NAOKFM=F Big=F
 Integral buffers will be    131072 words long.
 Raffenetti 2 integral format.
 Two-electron integral symmetry is turned on.
 Nuclear repulsion after empirical dispersion term =     1308.8914876872 Hartrees.
 One-electron integrals computed using PRISM.
   1 Symmetry operations used in ECPInt.
 ECPInt:  NShTT=   10296 NPrTT=   38220 LenC2=    9407 LenP2D=   24637.
 LDataN:  DoStor=T MaxTD1= 4 Len=   56
 NBasis=   307 RedAO= T EigKep=  2.43D-04  NBF=   307
 NBsUse=   307 1.00D-06 EigRej= -1.00D+00 NBFU=   307
 ExpMin= 1.22D-01 ExpMax= 9.18D+03 ExpMxC= 1.38D+03 IAcc=3 IRadAn=         5 AccDes= 0.00D+00
 Harris functional with IExCor= 4639 and IRadAn=       5 diagonalized for initial guess.
 HarFok:  IExCor= 4639 AccDes= 0.00D+00 IRadAn=         5 IDoV= 1 UseB2=F ITyADJ=14
 ICtDFT=  3500011 ScaDFX=  1.000000  1.000000  1.000000  1.000000
 FoFCou: FMM=F IPFlag=           0 FMFlag=      100000 FMFlg1=           0
         NFxFlg=           0 DoJE=T BraDBF=F KetDBF=T FulRan=T
         wScrn=  0.000000 ICntrl=       500 IOpCl=  0 I1Cent=   200000004 NGrid=           0
         NMat0=    1 NMatS0=      1 NMatT0=    0 NMatD0=    1 NMtDS0=    0 NMtDT0=    0
 Petite list used in FoFCou.
 Requested convergence on RMS density matrix=1.00D-08 within 128 cycles.
 Requested convergence on MAX density matrix=1.00D-06.
 Requested convergence on             energy=1.00D-06.
 No special actions if energy rises.
 Integral accuracy reduced to 1.0D-05 until final iterations.
 Initial convergence to 1.0D-05 achieved.  Increase integral accuracy.
 SCF Done:  E(RwB97XD) =  -1105.64455717     A.U. after   15 cycles
            NFock= 15  Conv=0.97D-08     -V/T= 2.0071

 **********************************************************************

            Population analysis using the SCF Density.

 **********************************************************************

 Orbital symmetries:
       Occupied  (A) (A) (A) (A) (A) (A) (A) (A) (A) (A) (A) (A)
                 (A) (A) (A) (A) (A) (A) (A) (A) (A) (A) (A) (A)
                 (A) (A) (A) (A) (A) (A) (A) (A) (A) (A) (A) (A)
                 (A) (A) (A) (A) (A) (A) (A) (A) (A) (A) (A) (A)
                 (A) (A) (A) (A) (A) (A) (A) (A) (A) (A) (A) (A)
                 (A) (A) (A) (A) (A)
       Virtual   (A) (A) (A) (A) (A) (A) (A) (A) (A) (A) (A) (A)
                 (A) (A) (A) (A) (A) (A) (A) (A) (A) (A) (A) (A)
                 (A) (A) (A) (A) (A) (A) (A) (A) (A) (A) (A) (A)
                 (A) (A) (A) (A) (A) (A) (A) (A) (A) (A) (A) (A)
                 (A) (A) (A) (A) (A) (A) (A) (A) (A) (A) (A) (A)
                 (A) (A) (A) (A) (A) (A) (A) (A) (A) (A) (A) (A)
                 (A) (A) (A) (A) (A) (A) (A) (A) (A) (A) (A) (A)
                 (A) (A) (A) (A) (A) (A) (A) (A) (A) (A) (A) (A)
                 (A) (A) (A) (A) (A) (A) (A) (A) (A) (A) (A) (A)
                 (A) (A) (A) (A) (A) (A) (A) (A) (A) (A) (A) (A)
                 (A) (A) (A) (A) (A) (A) (A) (A) (A) (A) (A) (A)
                 (A) (A) (A) (A) (A) (A) (A) (A) (A) (A) (A) (A)
                 (A) (A) (A) (A) (A) (A) (A) (A) (A) (A) (A) (A)
                 (A) (A) (A) (A) (A) (A) (A) (A) (A) (A) (A) (A)
                 (A) (A) (A) (A) (A) (A) (A) (A) (A) (A) (A) (A)
                 (A) (A) (A) (A) (A) (A) (A) (A) (A) (A) (A) (A)
                 (A) (A) (A) (A) (A) (A) (A) (A) (A) (A) (A) (A)
                 (A) (A) (A) (A) (A) (A) (A) (A) (A) (A) (A) (A)
                 (A) (A) (A) (A) (A) (A) (A) (A) (A) (A) (A) (A)
                 (A) (A) (A) (A) (A) (A) (A) (A) (A) (A) (A) (A)
                 (A) (A)
 The electronic state is 1-A.
 Alpha  occ. eigenvalues --  -89.25807 -19.26372 -19.25817 -14.49900 -10.35532
 Alpha  occ. eigenvalues --  -10.33317 -10.32566 -10.32340 -10.32082 -10.31475
 Alpha  occ. eigenvalues --  -10.31289 -10.30731 -10.30500 -10.30347 -10.30022
 Alpha  occ. eigenvalues --  -10.29527 -10.29368  -8.27562  -6.22999  -6.22897
 Alpha  occ. eigenvalues --   -6.22753  -1.20407  -1.09056  -1.05271  -0.98604
 Alpha  occ. eigenvalues --   -0.95322  -0.90212  -0.86357  -0.85068  -0.84644
 Alpha  occ. eigenvalues --   -0.81399  -0.75915  -0.72565  -0.71532  -0.70822
 Alpha  occ. eigenvalues --   -0.68019  -0.64549  -0.63626  -0.60474  -0.58772
 Alpha  occ. eigenvalues --   -0.58239  -0.56422  -0.54807  -0.54112  -0.53422
 Alpha  occ. eigenvalues --   -0.52937  -0.52840  -0.52687  -0.51508  -0.49632
 Alpha  occ. eigenvalues --   -0.48535  -0.47344  -0.46321  -0.46061  -0.44215
 Alpha  occ. eigenvalues --   -0.44088  -0.42780  -0.41531  -0.40815  -0.39216
 Alpha  occ. eigenvalues --   -0.38681  -0.35348  -0.34525  -0.33837  -0.30601
 Alpha virt. eigenvalues --    0.02667   0.04563   0.05975   0.06357   0.10841
 Alpha virt. eigenvalues --    0.12967   0.13619   0.14805   0.15288   0.16064
 Alpha virt. eigenvalues --    0.16987   0.17180   0.18795   0.19295   0.20536
 Alpha virt. eigenvalues --    0.20765   0.21210   0.23029   0.23745   0.24272
 Alpha virt. eigenvalues --    0.24965   0.25502   0.28593   0.30035   0.31967
 Alpha virt. eigenvalues --    0.34406   0.36197   0.36824   0.37342   0.37658
 Alpha virt. eigenvalues --    0.39168   0.39700   0.39831   0.41877   0.43751
 Alpha virt. eigenvalues --    0.46253   0.47124   0.48100   0.48545   0.49099
 Alpha virt. eigenvalues --    0.49841   0.51413   0.52236   0.52346   0.53682
 Alpha virt. eigenvalues --    0.54611   0.54997   0.55446   0.56302   0.57224
 Alpha virt. eigenvalues --    0.57891   0.58704   0.59282   0.60911   0.62081
 Alpha virt. eigenvalues --    0.62245   0.63739   0.63864   0.65666   0.66410
 Alpha virt. eigenvalues --    0.66880   0.68743   0.70294   0.71161   0.71419
 Alpha virt. eigenvalues --    0.72008   0.72242   0.73219   0.73910   0.74352
 Alpha virt. eigenvalues --    0.74655   0.75596   0.75998   0.76678   0.77203
 Alpha virt. eigenvalues --    0.78033   0.78224   0.78519   0.79706   0.80268
 Alpha virt. eigenvalues --    0.81577   0.82856   0.82986   0.83244   0.84463
 Alpha virt. eigenvalues --    0.84818   0.84991   0.87293   0.89312   0.90244
 Alpha virt. eigenvalues --    0.91514   0.93428   0.93922   0.94106   0.96482
 Alpha virt. eigenvalues --    0.98269   0.99897   1.01233   1.03964   1.05074
 Alpha virt. eigenvalues --    1.08098   1.10560   1.12546   1.12953   1.13722
 Alpha virt. eigenvalues --    1.15252   1.16783   1.18603   1.19832   1.22197
 Alpha virt. eigenvalues --    1.23471   1.24981   1.27623   1.28359   1.29402
 Alpha virt. eigenvalues --    1.30666   1.31027   1.31705   1.32134   1.33018
 Alpha virt. eigenvalues --    1.34242   1.34496   1.37262   1.38024   1.38475
 Alpha virt. eigenvalues --    1.39112   1.40341   1.41077   1.43892   1.51163
 Alpha virt. eigenvalues --    1.54779   1.57175   1.59820   1.59883   1.61919
 Alpha virt. eigenvalues --    1.62867   1.66143   1.70422   1.73803   1.75332
 Alpha virt. eigenvalues --    1.77723   1.77789   1.78677   1.80386   1.81256
 Alpha virt. eigenvalues --    1.81756   1.82322   1.83359   1.83587   1.84651
 Alpha virt. eigenvalues --    1.84972   1.85843   1.86523   1.87188   1.87856
 Alpha virt. eigenvalues --    1.88347   1.88578   1.89846   1.91631   1.92256
 Alpha virt. eigenvalues --    1.94424   1.94751   1.97003   1.97445   2.02914
 Alpha virt. eigenvalues --    2.04108   2.04927   2.05713   2.06283   2.08452
 Alpha virt. eigenvalues --    2.10136   2.10352   2.13033   2.14368   2.15200
 Alpha virt. eigenvalues --    2.19855   2.20237   2.21159   2.22067   2.22955
 Alpha virt. eigenvalues --    2.24504   2.24902   2.29556   2.30542   2.30869
 Alpha virt. eigenvalues --    2.32796   2.35260   2.37004   2.38824   2.39454
 Alpha virt. eigenvalues --    2.40666   2.42230   2.43371   2.44447   2.45888
 Alpha virt. eigenvalues --    2.47029   2.52337   2.54689   2.56375   2.57930
 Alpha virt. eigenvalues --    2.59984   2.61179   2.68172   2.69921   2.71535
 Alpha virt. eigenvalues --    2.71791   2.72298   2.72988   2.73663   2.74680
 Alpha virt. eigenvalues --    2.74845   2.75260   2.77791   2.77933   2.81130
 Alpha virt. eigenvalues --    2.83111   2.83358   2.84395   2.85125   2.85365
 Alpha virt. eigenvalues --    2.88325   2.93831   2.94587   2.98332   2.99627
 Alpha virt. eigenvalues --    3.00980   3.01345   3.02144   3.03535   3.05181
 Alpha virt. eigenvalues --    3.05944   3.08911   3.23107   3.23771   3.25595
 Alpha virt. eigenvalues --    3.31815   3.33554   3.33983   3.46710   3.47333
 Alpha virt. eigenvalues --    3.69762   3.78733
          Condensed to atoms (all electrons):
               1          2          3          4          5          6
     1  O    8.152744   0.399224  -0.038345   0.001732  -0.021319   0.001378
     2  S    0.399224  13.938082   0.197156  -0.031575  -0.000012  -0.001064
     3  N   -0.038345   0.197156   6.870453   0.266221  -0.078435   0.007642
     4  C    0.001732  -0.031575   0.266221   5.174482   0.253885   0.109218
     5  C   -0.021319  -0.000012  -0.078435   0.253885   5.202144   0.265041
     6  C    0.001378  -0.001064   0.007642   0.109218   0.265041   5.049580
     7  C   -0.000029   0.000058  -0.000461  -0.163460   0.088618   0.274072
     8  C   -0.000006  -0.000180   0.006639   0.111135  -0.146695   0.096090
     9  C    0.000268   0.000609  -0.073120   0.261178   0.075640  -0.146219
    10  C   -0.065563   0.234208  -0.102430   0.003939  -0.000452  -0.000329
    11  C    0.002217  -0.034910   0.001610   0.000433   0.000261  -0.000029
    12  C    0.001700   0.002139   0.000014  -0.000141  -0.000064   0.000009
    13  C   -0.000041   0.001030  -0.000070   0.000031  -0.000016  -0.000000
    14  C    0.000000   0.000008  -0.000000  -0.000000  -0.000000   0.000000
    15  C    0.000011  -0.000718   0.000224  -0.000027  -0.000008  -0.000000
    16  C    0.004665  -0.029669  -0.004356   0.000575  -0.000094   0.000009
    17  O   -0.025555   0.425457  -0.047535   0.000703   0.000142   0.000006
    18  H    0.001238  -0.002301   0.316810  -0.002325   0.004334  -0.000270
    19  H    0.031073  -0.001408  -0.013742  -0.071062   0.447565  -0.051034
    20  H    0.000018  -0.000013  -0.000103   0.015337  -0.066948   0.456782
    21  H    0.000000   0.000000   0.000011  -0.001449   0.014769  -0.067939
    22  H   -0.000000   0.000003  -0.000110   0.015541  -0.001911   0.013863
    23  H    0.000014  -0.000158  -0.009490  -0.082458   0.016841  -0.002195
    24  H    0.016164  -0.014026   0.000743  -0.000275  -0.000241   0.000090
    25  H   -0.000007  -0.000156   0.000003  -0.000001  -0.000001   0.000000
    26  H    0.000000  -0.000000   0.000000   0.000000  -0.000000   0.000000
    27  H    0.000000  -0.000000   0.000000  -0.000000  -0.000000   0.000000
    28  H   -0.000000  -0.000000  -0.000000  -0.000000   0.000000  -0.000000
    29  H    0.000000  -0.000180  -0.000004  -0.000002   0.000000   0.000000
    30  H    0.000230  -0.006911   0.007009   0.000042  -0.000057   0.000001
               7          8          9         10         11         12
     1  O   -0.000029  -0.000006   0.000268  -0.065563   0.002217   0.001700
     2  S    0.000058  -0.000180   0.000609   0.234208  -0.034910   0.002139
     3  N   -0.000461   0.006639  -0.073120  -0.102430   0.001610   0.000014
     4  C   -0.163460   0.111135   0.261178   0.003939   0.000433  -0.000141
     5  C    0.088618  -0.146695   0.075640  -0.000452   0.000261  -0.000064
     6  C    0.274072   0.096090  -0.146219  -0.000329  -0.000029   0.000009
     7  C    5.104537   0.285600   0.085517   0.000003   0.000003  -0.000000
     8  C    0.285600   5.005947   0.311480  -0.000007  -0.000002   0.000000
     9  C    0.085517   0.311480   5.143200  -0.000869   0.000014  -0.000003
    10  C    0.000003  -0.000007  -0.000869   5.733938   0.280575   0.092806
    11  C    0.000003  -0.000002   0.000014   0.280575   5.054992   0.265785
    12  C   -0.000000   0.000000  -0.000003   0.092806   0.265785   5.116444
    13  C    0.000000  -0.000000   0.000001  -0.184940   0.101642   0.276244
    14  C   -0.000000   0.000000  -0.000000   0.000712   0.008087  -0.077673
    15  C    0.000000   0.000000   0.000001   0.093663  -0.122132   0.049474
    16  C   -0.000002   0.000006  -0.000139   0.164375   0.041489  -0.119124
    17  O   -0.000000   0.000000  -0.000069  -0.056720  -0.000372  -0.000041
    18  H    0.000009   0.000219  -0.014808   0.002595  -0.000442   0.000006
    19  H    0.013788  -0.002164   0.013915  -0.003122   0.001784   0.000266
    20  H   -0.074028   0.014104  -0.001916  -0.000002  -0.000000  -0.000000
    21  H    0.451752  -0.070389   0.014472   0.000000  -0.000000  -0.000000
    22  H   -0.069204   0.453952  -0.069370  -0.000000  -0.000000   0.000000
    23  H    0.014887  -0.059606   0.451933   0.000003   0.000000  -0.000000
    24  H   -0.000001   0.000000  -0.000008  -0.065894   0.449462  -0.055603
    25  H    0.000000  -0.000000   0.000000   0.016567  -0.066557   0.462883
    26  H   -0.000000  -0.000000   0.000000   0.000043   0.000413  -0.006055
    27  H    0.000000   0.000000   0.000000  -0.000040  -0.000494   0.008858
    28  H    0.000000  -0.000000  -0.000000   0.000101   0.000316  -0.005587
    29  H   -0.000000   0.000000  -0.000000   0.016365  -0.001907   0.014683
    30  H    0.000000   0.000001   0.000059  -0.084160   0.012525  -0.001578
              13         14         15         16         17         18
     1  O   -0.000041   0.000000   0.000011   0.004665  -0.025555   0.001238
     2  S    0.001030   0.000008  -0.000718  -0.029669   0.425457  -0.002301
     3  N   -0.000070  -0.000000   0.000224  -0.004356  -0.047535   0.316810
     4  C    0.000031  -0.000000  -0.000027   0.000575   0.000703  -0.002325
     5  C   -0.000016  -0.000000  -0.000008  -0.000094   0.000142   0.004334
     6  C   -0.000000   0.000000  -0.000000   0.000009   0.000006  -0.000270
     7  C    0.000000  -0.000000   0.000000  -0.000002  -0.000000   0.000009
     8  C   -0.000000   0.000000   0.000000   0.000006   0.000000   0.000219
     9  C    0.000001  -0.000000   0.000001  -0.000139  -0.000069  -0.014808
    10  C   -0.184940   0.000712   0.093663   0.164375  -0.056720   0.002595
    11  C    0.101642   0.008087  -0.122132   0.041489  -0.000372  -0.000442
    12  C    0.276244  -0.077673   0.049474  -0.119124  -0.000041   0.000006
    13  C    5.255226   0.405864   0.305981   0.085658  -0.000021   0.000011
    14  C    0.405864   4.548065  -0.074703   0.011566  -0.000000   0.000000
    15  C    0.305981  -0.074703   5.035301   0.328827   0.000588   0.000040
    16  C    0.085658   0.011566   0.328827   5.074349   0.006806   0.002465
    17  O   -0.000021  -0.000000   0.000588   0.006806   8.151552   0.011790
    18  H    0.000011   0.000000   0.000040   0.002465   0.011790   0.511969
    19  H   -0.000003  -0.000000  -0.000027  -0.000455   0.000341  -0.000330
    20  H    0.000000  -0.000000  -0.000000   0.000000  -0.000000   0.000010
    21  H    0.000000   0.000000  -0.000000   0.000000   0.000000  -0.000001
    22  H   -0.000000  -0.000000   0.000000  -0.000000  -0.000000  -0.000024
    23  H   -0.000000  -0.000000  -0.000001  -0.000009  -0.000025   0.003021
    24  H    0.013484  -0.000190  -0.001904   0.013954   0.000132  -0.000036
    25  H   -0.080183  -0.011327   0.014440  -0.002079   0.000001  -0.000000
    26  H   -0.016057   0.390614   0.002698  -0.000506  -0.000000  -0.000000
    27  H   -0.017447   0.392624  -0.011721   0.000874   0.000000   0.000000
    28  H   -0.015449   0.389864   0.001911  -0.000592   0.000000   0.000000
    29  H   -0.071664  -0.015895   0.457390  -0.066650  -0.000004  -0.000005
    30  H    0.014891  -0.000279  -0.046701   0.446935   0.005834  -0.000486
              19         20         21         22         23         24
     1  O    0.031073   0.000018   0.000000  -0.000000   0.000014   0.016164
     2  S   -0.001408  -0.000013   0.000000   0.000003  -0.000158  -0.014026
     3  N   -0.013742  -0.000103   0.000011  -0.000110  -0.009490   0.000743
     4  C   -0.071062   0.015337  -0.001449   0.015541  -0.082458  -0.000275
     5  C    0.447565  -0.066948   0.014769  -0.001911   0.016841  -0.000241
     6  C   -0.051034   0.456782  -0.067939   0.013863  -0.002195   0.000090
     7  C    0.013788  -0.074028   0.451752  -0.069204   0.014887  -0.000001
     8  C   -0.002164   0.014104  -0.070389   0.453952  -0.059606   0.000000
     9  C    0.013915  -0.001916   0.014472  -0.069370   0.451933  -0.000008
    10  C   -0.003122  -0.000002   0.000000  -0.000000   0.000003  -0.065894
    11  C    0.001784  -0.000000  -0.000000  -0.000000   0.000000   0.449462
    12  C    0.000266  -0.000000  -0.000000   0.000000  -0.000000  -0.055603
    13  C   -0.000003   0.000000   0.000000  -0.000000  -0.000000   0.013484
    14  C   -0.000000  -0.000000   0.000000  -0.000000  -0.000000  -0.000190
    15  C   -0.000027  -0.000000  -0.000000   0.000000  -0.000001  -0.001904
    16  C   -0.000455   0.000000   0.000000  -0.000000  -0.000009   0.013954
    17  O    0.000341  -0.000000   0.000000  -0.000000  -0.000025   0.000132
    18  H   -0.000330   0.000010  -0.000001  -0.000024   0.003021  -0.000036
    19  H    0.622661  -0.013081  -0.000203   0.000015  -0.000113   0.000950
    20  H   -0.013081   0.667335  -0.012069  -0.000258   0.000024  -0.000001
    21  H   -0.000203  -0.012069   0.673008  -0.012359  -0.000235  -0.000000
    22  H    0.000015  -0.000258  -0.012359   0.668083  -0.013139   0.000000
    23  H   -0.000113   0.000024  -0.000235  -0.013139   0.688387  -0.000000
    24  H    0.000950  -0.000001  -0.000000   0.000000  -0.000000   0.619314
    25  H    0.000002  -0.000000  -0.000000   0.000000   0.000000  -0.011220
    26  H   -0.000000   0.000000  -0.000000   0.000000   0.000000  -0.000000
    27  H   -0.000000   0.000000  -0.000000  -0.000000  -0.000000   0.000008
    28  H    0.000000  -0.000000   0.000000   0.000000   0.000000  -0.000004
    29  H    0.000000  -0.000000  -0.000000   0.000000  -0.000000   0.000022
    30  H   -0.000032   0.000000  -0.000000  -0.000000   0.000014  -0.000239
              25         26         27         28         29         30
     1  O   -0.000007   0.000000   0.000000  -0.000000   0.000000   0.000230
     2  S   -0.000156  -0.000000  -0.000000  -0.000000  -0.000180  -0.006911
     3  N    0.000003   0.000000   0.000000  -0.000000  -0.000004   0.007009
     4  C   -0.000001   0.000000  -0.000000  -0.000000  -0.000002   0.000042
     5  C   -0.000001  -0.000000  -0.000000   0.000000   0.000000  -0.000057
     6  C    0.000000   0.000000   0.000000  -0.000000   0.000000   0.000001
     7  C    0.000000  -0.000000   0.000000   0.000000  -0.000000   0.000000
     8  C   -0.000000  -0.000000   0.000000  -0.000000   0.000000   0.000001
     9  C    0.000000   0.000000   0.000000  -0.000000  -0.000000   0.000059
    10  C    0.016567   0.000043  -0.000040   0.000101   0.016365  -0.084160
    11  C   -0.066557   0.000413  -0.000494   0.000316  -0.001907   0.012525
    12  C    0.462883  -0.006055   0.008858  -0.005587   0.014683  -0.001578
    13  C   -0.080183  -0.016057  -0.017447  -0.015449  -0.071664   0.014891
    14  C   -0.011327   0.390614   0.392624   0.389864  -0.015895  -0.000279
    15  C    0.014440   0.002698  -0.011721   0.001911   0.457390  -0.046701
    16  C   -0.002079  -0.000506   0.000874  -0.000592  -0.066650   0.446935
    17  O    0.000001  -0.000000   0.000000   0.000000  -0.000004   0.005834
    18  H   -0.000000  -0.000000   0.000000   0.000000  -0.000005  -0.000486
    19  H    0.000002  -0.000000  -0.000000   0.000000   0.000000  -0.000032
    20  H   -0.000000   0.000000   0.000000  -0.000000  -0.000000   0.000000
    21  H   -0.000000  -0.000000  -0.000000   0.000000  -0.000000  -0.000000
    22  H    0.000000   0.000000  -0.000000   0.000000   0.000000  -0.000000
    23  H    0.000000   0.000000  -0.000000   0.000000  -0.000000   0.000014
    24  H   -0.011220  -0.000000   0.000008  -0.000004   0.000022  -0.000239
    25  H    0.666753   0.002267   0.000109   0.001908  -0.000229   0.000027
    26  H    0.002267   0.607608  -0.019967  -0.017308   0.000279   0.000008
    27  H    0.000109  -0.019967   0.627320  -0.019350   0.005689   0.000008
    28  H    0.001908  -0.017308  -0.019350   0.605971   0.000348   0.000006
    29  H   -0.000229   0.000279   0.005689   0.000348   0.666947  -0.012254
    30  H    0.000027   0.000008   0.000008   0.000006  -0.012254   0.651916
 Mulliken charges:
               1
     1  O   -0.461813
     2  S    0.925306
     3  N   -0.306337
     4  C    0.138321
     5  C   -0.052984
     6  C   -0.004700
     7  C   -0.011659
     8  C   -0.006124
     9  C   -0.051768
    10  C   -0.075364
    11  C    0.005238
    12  C   -0.025443
    13  C   -0.074172
    14  C    0.032662
    15  C   -0.032608
    16  C    0.041122
    17  O   -0.473011
    18  H    0.166510
    19  H    0.024415
    20  H    0.014810
    21  H    0.010632
    22  H    0.014918
    23  H   -0.007695
    24  H    0.035322
    25  H    0.006801
    26  H    0.055965
    27  H    0.033530
    28  H    0.057864
    29  H    0.007069
    30  H    0.013190
 Sum of Mulliken charges =  -0.00000
 Mulliken charges with hydrogens summed into heavy atoms:
               1
     1  O   -0.461813
     2  S    0.925306
     3  N   -0.139827
     4  C    0.138321
     5  C   -0.028568
     6  C    0.010110
     7  C   -0.001027
     8  C    0.008795
     9  C   -0.059463
    10  C   -0.075364
    11  C    0.040561
    12  C   -0.018642
    13  C   -0.074172
    14  C    0.180021
    15  C   -0.025538
    16  C    0.054312
    17  O   -0.473011
 Electronic spatial extent (au):  <R**2>=           4904.5277
 Charge=             -0.0000 electrons
 Dipole moment (field-independent basis, Debye):
    X=             -1.3483    Y=             -3.7736    Z=             -1.7588  Tot=              4.3762
 Quadrupole moment (field-independent basis, Debye-Ang):
   XX=            -91.9853   YY=           -115.8122   ZZ=            -98.7121
   XY=              4.3452   XZ=             -3.7490   YZ=             -4.6179
 Traceless Quadrupole moment (field-independent basis, Debye-Ang):
   XX=             10.1846   YY=            -13.6424   ZZ=              3.4578
   XY=              4.3452   XZ=             -3.7490   YZ=             -4.6179
 Octapole moment (field-independent basis, Debye-Ang**2):
  XXX=            -29.5851  YYY=            -16.1964  ZZZ=             -8.4525  XYY=              4.3927
  XXY=            -36.6732  XXZ=             -8.5245  XZZ=             -0.7111  YZZ=             -1.6113
  YYZ=              2.8901  XYZ=             -7.6369
 Hexadecapole moment (field-independent basis, Debye-Ang**3):
 XXXX=          -4389.7553 YYYY=          -1439.7549 ZZZZ=           -683.6421 XXXY=              8.9820
 XXXZ=            -25.3858 YYYX=             39.3858 YYYZ=              7.2667 ZZZX=             -6.9717
 ZZZY=            -27.7553 XXYY=           -910.8023 XXZZ=           -810.7120 YYZZ=           -344.7208
 XXYZ=             -9.0477 YYXZ=             -9.7344 ZZXY=             -0.8722
 N-N= 1.308891487687D+03 E-N=-5.206526765415D+03  KE= 1.097864309116D+03
   1 Symmetry operations used in ECPInt.
 ECPInt:  NShTT=   10296 NPrTT=   38220 LenC2=    9407 LenP2D=   24637.
 LDataN:  DoStor=T MaxTD1= 5 Len=  102
 Calling FoFJK, ICntrl=      2127 FMM=F ISym2X=0 I1Cent= 0 IOpClX= 0 NMat=1 NMatS=1 NMatT=0.
 ***** Axes restored to original set *****
 -------------------------------------------------------------------
 Center     Atomic                   Forces (Hartrees/Bohr)
 Number     Number              X              Y              Z
 -------------------------------------------------------------------
      1        8          -0.010055923    0.000846880   -0.053827249
      2       16          -0.027940051    0.022536926    0.009693786
      3        7          -0.010268617    0.025067708    0.017213822
      4        6           0.018641308   -0.013899496    0.009659871
      5        6          -0.011876914    0.005015777   -0.004799674
      6        6           0.005065687   -0.004425512   -0.002915519
      7        6           0.005374034   -0.004265895    0.003933673
      8        6           0.002595790   -0.001502505    0.001460364
      9        6          -0.012076519    0.008514833   -0.002539018
     10        6           0.009096430    0.011410978    0.006263758
     11        6           0.001192788    0.002750195    0.011926836
     12        6           0.000770598    0.000508287   -0.002494309
     13        6          -0.003354692   -0.002946440    0.000404347
     14        6          -0.002985673   -0.002002487   -0.002745994
     15        6           0.002489697    0.002289882    0.001334937
     16        6          -0.000484986    0.001300987   -0.012066352
     17        8           0.022455988   -0.039682381    0.031260038
     18        1           0.008090859    0.004605686   -0.016147637
     19        1          -0.003382534    0.000822128    0.007416173
     20        1          -0.000344910   -0.000216845    0.010215127
     21        1           0.007827727   -0.005986099    0.003981120
     22        1           0.006415700   -0.004381601   -0.006932162
     23        1          -0.000083387    0.000553969   -0.013023599
     24        1           0.003846439    0.003409561    0.008867418
     25        1          -0.003390225   -0.002344971    0.011098843
     26        1          -0.005287364    0.001802363    0.004177301
     27        1          -0.002243752   -0.001964532   -0.004937463
     28        1           0.000961826   -0.005860166    0.004014547
     29        1          -0.003888776   -0.003643122   -0.010377104
     30        1           0.002839454    0.001685890   -0.010115881
 -------------------------------------------------------------------
 Cartesian Forces:  Max     0.053827249 RMS     0.011447242

 GradGradGradGradGradGradGradGradGradGradGradGradGradGradGradGradGradGrad
 Berny optimization.
 FormGI is forming the generalized inverse of G from B-inverse, IUseBI=4.
 Internal  Forces:  Max     0.054509981 RMS     0.010094282
 Search for a local minimum.
 Step number   1 out of a maximum of  162
 All quantities printed in internal units (Hartrees-Bohrs-Radians)
 Mixed Optimization -- RFO/linear search
 Second derivative matrix not updated -- first step.
 ITU=  0
     Eigenvalues ---    0.00429   0.00923   0.01162   0.01609   0.01742
     Eigenvalues ---    0.01769   0.02009   0.02142   0.02247   0.02270
     Eigenvalues ---    0.02277   0.02299   0.02310   0.02340   0.02346
     Eigenvalues ---    0.02348   0.02368   0.02385   0.02386   0.02393
     Eigenvalues ---    0.02394   0.02422   0.02549   0.07293   0.07353
     Eigenvalues ---    0.10207   0.11462   0.11947   0.13590   0.15990
     Eigenvalues ---    0.15999   0.15999   0.16000   0.16000   0.16000
     Eigenvalues ---    0.16000   0.16000   0.16000   0.16000   0.16000
     Eigenvalues ---    0.16000   0.17406   0.22000   0.22000   0.22000
     Eigenvalues ---    0.22877   0.22978   0.23459   0.24000   0.24992
     Eigenvalues ---    0.25000   0.25000   0.25000   0.26472   0.33657
     Eigenvalues ---    0.34700   0.34767   0.34769   0.34784   0.36277
     Eigenvalues ---    0.36283   0.36285   0.36300   0.36302   0.36437
     Eigenvalues ---    0.36454   0.36513   0.36712   0.42641   0.43509
     Eigenvalues ---    0.44012   0.44293   0.46602   0.47114   0.47542
     Eigenvalues ---    0.47817   0.48074   0.49059   0.49253   0.49274
     Eigenvalues ---    0.50043   0.50097   0.76467   0.76642
 RFO step:  Lambda=-4.01256570D-02 EMin= 4.29378478D-03
 Linear search not attempted -- first point.
 Maximum step size (   0.300) exceeded in Quadratic search.
    -- Step size scaled by   0.959
 Iteration  1 RMS(Cart)=  0.19031073 RMS(Int)=  0.00801583
 Iteration  2 RMS(Cart)=  0.03778511 RMS(Int)=  0.00091322
 Iteration  3 RMS(Cart)=  0.00058784 RMS(Int)=  0.00088883
 Iteration  4 RMS(Cart)=  0.00000123 RMS(Int)=  0.00088883
 Iteration  5 RMS(Cart)=  0.00000001 RMS(Int)=  0.00088883
 Variable       Old X    -DE/DX   Delta X   Delta X   Delta X     New X
                                 (Linear)    (Quad)   (Total)
    R1        2.83579  -0.05347   0.00000  -0.06373  -0.06373   2.77206
    R2        3.23164  -0.00008   0.00000  -0.00020  -0.00020   3.23144
    R3        3.39307  -0.00348   0.00000  -0.01094  -0.01094   3.38213
    R4        2.83478  -0.05451   0.00000  -0.06482  -0.06482   2.76996
    R5        2.63458   0.02651   0.00000   0.05023   0.05023   2.68481
    R6        1.89130   0.01753   0.00000   0.03262   0.03262   1.92392
    R7        2.64367   0.00742   0.00000   0.01396   0.01397   2.65765
    R8        2.64435   0.00533   0.00000   0.00959   0.00959   2.65393
    R9        2.59682   0.01944   0.00000   0.03473   0.03474   2.63156
   R10        2.02983   0.00695   0.00000   0.01636   0.01636   2.04619
   R11        2.60870   0.01218   0.00000   0.02266   0.02266   2.63137
   R12        2.03642   0.01015   0.00000   0.02415   0.02415   2.06057
   R13        2.60911   0.01139   0.00000   0.02092   0.02092   2.63002
   R14        2.03616   0.01062   0.00000   0.02527   0.02527   2.06143
   R15        2.59861   0.01562   0.00000   0.02742   0.02741   2.62602
   R16        2.03638   0.01036   0.00000   0.02467   0.02467   2.06105
   R17        2.03286   0.01299   0.00000   0.03075   0.03075   2.06361
   R18        2.59650   0.01771   0.00000   0.03189   0.03189   2.62839
   R19        2.59631   0.01894   0.00000   0.03397   0.03397   2.63028
   R20        2.60808   0.01194   0.00000   0.02165   0.02165   2.62972
   R21        2.03650   0.01022   0.00000   0.02434   0.02434   2.06084
   R22        2.62077   0.01474   0.00000   0.02675   0.02675   2.64752
   R23        2.03403   0.01176   0.00000   0.02787   0.02787   2.06190
   R24        2.81212   0.01249   0.00000   0.03179   0.03179   2.84391
   R25        2.62278   0.01494   0.00000   0.02714   0.02713   2.64992
   R26        2.06054   0.00686   0.00000   0.01697   0.01697   2.07751
   R27        2.06027   0.00573   0.00000   0.01417   0.01417   2.07444
   R28        2.06051   0.00708   0.00000   0.01751   0.01751   2.07802
   R29        2.60845   0.01012   0.00000   0.01822   0.01822   2.62667
   R30        2.03378   0.01161   0.00000   0.02751   0.02751   2.06129
   R31        2.03611   0.01047   0.00000   0.02492   0.02492   2.06103
    A1        2.00954  -0.00311   0.00000  -0.01014  -0.01507   1.99447
    A2        1.85610  -0.00099   0.00000   0.02822   0.02738   1.88348
    A3        2.12551  -0.00196   0.00000  -0.03862  -0.04226   2.08326
    A4        1.68405   0.02638   0.00000   0.10993   0.10880   1.79285
    A5        1.84928  -0.01529   0.00000  -0.07620  -0.07951   1.76977
    A6        1.88478   0.00295   0.00000   0.03016   0.03273   1.91751
    A7        2.13636   0.04207   0.00000   0.15713   0.15530   2.29165
    A8        1.82591  -0.01250   0.00000  -0.02390  -0.02569   1.80023
    A9        2.04046  -0.01618   0.00000  -0.04943  -0.05265   1.98781
   A10        2.15139   0.01967   0.00000   0.06571   0.06553   2.21692
   A11        2.07836  -0.02197   0.00000  -0.07200  -0.07207   2.00629
   A12        2.05317   0.00226   0.00000   0.00568   0.00558   2.05875
   A13        2.11459  -0.00427   0.00000  -0.01552  -0.01551   2.09909
   A14        2.07121   0.00633   0.00000   0.02801   0.02797   2.09919
   A15        2.09677  -0.00204   0.00000  -0.01216  -0.01218   2.08459
   A16        2.09652   0.00446   0.00000   0.01856   0.01858   2.11510
   A17        2.09296  -0.00351   0.00000  -0.01542  -0.01543   2.07753
   A18        2.09367  -0.00095   0.00000  -0.00312  -0.00313   2.09053
   A19        2.09198  -0.00498   0.00000  -0.01626  -0.01627   2.07571
   A20        2.09558   0.00281   0.00000   0.00971   0.00970   2.10528
   A21        2.09561   0.00216   0.00000   0.00658   0.00658   2.10219
   A22        2.09794   0.00054   0.00000   0.00210   0.00208   2.10002
   A23        2.09260   0.00076   0.00000   0.00388   0.00388   2.09648
   A24        2.09265  -0.00130   0.00000  -0.00598  -0.00598   2.08667
   A25        2.11215   0.00199   0.00000   0.00553   0.00551   2.11765
   A26        2.06991   0.00011   0.00000   0.00254   0.00254   2.07246
   A27        2.10108  -0.00209   0.00000  -0.00802  -0.00802   2.09306
   A28        2.08893  -0.00111   0.00000  -0.00473  -0.00475   2.08419
   A29        2.09522  -0.00208   0.00000  -0.00791  -0.00793   2.08729
   A30        2.09903   0.00319   0.00000   0.01264   0.01264   2.11166
   A31        2.09417  -0.00387   0.00000  -0.01279  -0.01279   2.08138
   A32        2.07795   0.00265   0.00000   0.00982   0.00981   2.08776
   A33        2.11105   0.00123   0.00000   0.00300   0.00299   2.11404
   A34        2.10409   0.00224   0.00000   0.00757   0.00757   2.11166
   A35        2.09753  -0.00256   0.00000  -0.01067  -0.01067   2.08687
   A36        2.08156   0.00032   0.00000   0.00309   0.00310   2.08466
   A37        2.09806   0.00010   0.00000   0.00125   0.00125   2.09932
   A38        2.07140  -0.00042   0.00000  -0.00320  -0.00321   2.06819
   A39        2.11372   0.00032   0.00000   0.00195   0.00196   2.11568
   A40        1.93417   0.00067   0.00000   0.00281   0.00281   1.93697
   A41        1.94462   0.00087   0.00000   0.00533   0.00532   1.94994
   A42        1.93421   0.00057   0.00000   0.00202   0.00202   1.93623
   A43        1.88088  -0.00033   0.00000  -0.00022  -0.00024   1.88065
   A44        1.88547  -0.00142   0.00000  -0.00898  -0.00898   1.87649
   A45        1.88217  -0.00049   0.00000  -0.00157  -0.00158   1.88059
   A46        2.10482   0.00239   0.00000   0.00768   0.00767   2.11249
   A47        2.08383  -0.00000   0.00000   0.00186   0.00186   2.08569
   A48        2.09454  -0.00238   0.00000  -0.00953  -0.00953   2.08500
   A49        2.09286  -0.00352   0.00000  -0.01191  -0.01191   2.08095
   A50        2.08196   0.00365   0.00000   0.01505   0.01504   2.09700
   A51        2.10836  -0.00014   0.00000  -0.00313  -0.00313   2.10523
    D1        0.20764   0.01564   0.00000   0.15762   0.15702   0.36467
    D2       -2.16627   0.01239   0.00000   0.10127   0.09860  -2.06767
    D3       -1.73815   0.00324   0.00000   0.06803   0.06776  -1.67040
    D4        2.17112  -0.00000   0.00000   0.01168   0.00934   2.18045
    D5        2.61045  -0.00558   0.00000   0.01507   0.01905   2.62950
    D6        0.23653  -0.00883   0.00000  -0.04128  -0.03937   0.19716
    D7        0.07951  -0.00278   0.00000  -0.02043  -0.02190   0.05762
    D8       -3.06214  -0.00335   0.00000  -0.03025  -0.03166  -3.09380
    D9        2.14973   0.00402   0.00000   0.02033   0.02078   2.17050
   D10       -0.99193   0.00344   0.00000   0.01051   0.01102  -0.98091
   D11       -2.22866  -0.00165   0.00000  -0.01258  -0.01164  -2.24030
   D12        0.91287  -0.00223   0.00000  -0.02239  -0.02140   0.89147
   D13        0.19223  -0.00031   0.00000   0.02930   0.03009   0.22232
   D14       -2.97482  -0.00211   0.00000   0.00016   0.00096  -2.97386
   D15        2.48032   0.00922   0.00000   0.11785   0.11705   2.59737
   D16       -0.68673   0.00742   0.00000   0.08871   0.08792  -0.59881
   D17        3.11050  -0.00134   0.00000  -0.01793  -0.01900   3.09149
   D18       -0.06845  -0.00072   0.00000  -0.00817  -0.00890  -0.07736
   D19       -0.00598   0.00078   0.00000   0.01189   0.01191   0.00593
   D20        3.09825   0.00139   0.00000   0.02165   0.02201   3.12027
   D21       -3.11216   0.00040   0.00000   0.01020   0.00909  -3.10307
   D22        0.01951   0.00078   0.00000   0.01545   0.01452   0.03403
   D23        0.00540  -0.00102   0.00000  -0.01633  -0.01622  -0.01081
   D24        3.13707  -0.00064   0.00000  -0.01109  -0.01079   3.12629
   D25        0.00173  -0.00008   0.00000  -0.00071  -0.00086   0.00087
   D26        3.13437   0.00008   0.00000   0.00098   0.00099   3.13536
   D27       -3.10196  -0.00088   0.00000  -0.01146  -0.01173  -3.11369
   D28        0.03067  -0.00072   0.00000  -0.00977  -0.00988   0.02080
   D29        0.00329  -0.00041   0.00000  -0.00649  -0.00633  -0.00304
   D30        3.14013  -0.00006   0.00000  -0.00115  -0.00104   3.13909
   D31       -3.12934  -0.00056   0.00000  -0.00811  -0.00813  -3.13748
   D32        0.00750  -0.00021   0.00000  -0.00277  -0.00284   0.00466
   D33       -0.00386   0.00015   0.00000   0.00202   0.00209  -0.00177
   D34        3.13880   0.00035   0.00000   0.00563   0.00549  -3.13890
   D35       -3.14070  -0.00020   0.00000  -0.00333  -0.00320   3.13928
   D36        0.00196  -0.00001   0.00000   0.00028   0.00020   0.00215
   D37       -0.00058   0.00060   0.00000   0.00972   0.00945   0.00887
   D38       -3.13208   0.00020   0.00000   0.00432   0.00390  -3.12818
   D39        3.13995   0.00040   0.00000   0.00611   0.00607  -3.13717
   D40        0.00845   0.00000   0.00000   0.00072   0.00052   0.00897
   D41       -3.14030  -0.00016   0.00000  -0.00300  -0.00304   3.13985
   D42        0.00655  -0.00042   0.00000  -0.00698  -0.00700  -0.00045
   D43        0.00135   0.00042   0.00000   0.00684   0.00686   0.00821
   D44       -3.13498   0.00016   0.00000   0.00286   0.00290  -3.13208
   D45        3.13982   0.00023   0.00000   0.00411   0.00412  -3.13924
   D46       -0.00614   0.00039   0.00000   0.00661   0.00663   0.00049
   D47       -0.00183  -0.00035   0.00000  -0.00576  -0.00580  -0.00763
   D48        3.13539  -0.00019   0.00000  -0.00326  -0.00329   3.13210
   D49       -0.00099  -0.00019   0.00000  -0.00311  -0.00309  -0.00408
   D50       -3.13992  -0.00024   0.00000  -0.00370  -0.00368   3.13959
   D51        3.13524   0.00007   0.00000   0.00096   0.00096   3.13620
   D52       -0.00369   0.00003   0.00000   0.00037   0.00037  -0.00332
   D53        3.14089  -0.00009   0.00000  -0.00138  -0.00137   3.13951
   D54        0.00109  -0.00010   0.00000  -0.00161  -0.00160  -0.00050
   D55       -0.00334  -0.00005   0.00000  -0.00082  -0.00081  -0.00415
   D56        3.14005  -0.00006   0.00000  -0.00105  -0.00104   3.13901
   D57        0.99835  -0.00053   0.00000  -0.00461  -0.00462   0.99373
   D58        3.09256   0.00008   0.00000   0.00055   0.00055   3.09312
   D59       -1.09476   0.00043   0.00000   0.00349   0.00349  -1.09126
   D60       -2.14509  -0.00052   0.00000  -0.00438  -0.00439  -2.14948
   D61       -0.05087   0.00009   0.00000   0.00078   0.00078  -0.05009
   D62        2.04499   0.00044   0.00000   0.00372   0.00372   2.04871
   D63       -0.00158   0.00017   0.00000   0.00268   0.00268   0.00110
   D64       -3.14066   0.00009   0.00000   0.00155   0.00154  -3.13912
   D65       -3.14136   0.00016   0.00000   0.00244   0.00245  -3.13890
   D66        0.00275   0.00008   0.00000   0.00132   0.00131   0.00406
   D67        0.00196   0.00005   0.00000   0.00096   0.00094   0.00290
   D68       -3.13520  -0.00012   0.00000  -0.00162  -0.00163  -3.13682
   D69        3.14103   0.00013   0.00000   0.00211   0.00210  -3.14006
   D70        0.00387  -0.00004   0.00000  -0.00047  -0.00047   0.00340
         Item               Value     Threshold  Converged?
 Maximum Force            0.054510     0.000450     NO 
 RMS     Force            0.010094     0.000300     NO 
 Maximum Displacement     0.615541     0.001800     NO 
 RMS     Displacement     0.220700     0.001200     NO 
 Predicted change in Energy=-2.312172D-02
 GradGradGradGradGradGradGradGradGradGradGradGradGradGradGradGradGradGrad

                          Input orientation:                          
 ---------------------------------------------------------------------
 Center     Atomic      Atomic             Coordinates (Angstroms)
 Number     Number       Type             X           Y           Z
 ---------------------------------------------------------------------
      1          8           0        0.215094    2.075736    1.185837
      2         16           0       -0.089429    1.605943   -0.170036
      3          7           0        1.130022    0.630176   -0.866403
      4          6           0        2.180729   -0.121742   -0.275529
      5          6           0        2.329680   -0.444243    1.085232
      6          6           0        3.389283   -1.244374    1.505071
      7          6           0        4.321434   -1.740993    0.597654
      8          6           0        4.180199   -1.428980   -0.751296
      9          6           0        3.123044   -0.635994   -1.181029
     10          6           0       -1.479781    0.483895   -0.064638
     11          6           0       -2.094210    0.271134    1.164904
     12          6           0       -3.176312   -0.600379    1.242642
     13          6           0       -3.655293   -1.259151    0.102721
     14          6           0       -4.825018   -2.200429    0.205516
     15          6           0       -3.019636   -1.021023   -1.124312
     16          6           0       -1.937527   -0.153289   -1.214339
     17          8           0       -0.319916    2.585960   -1.235407
     18          1           0        1.415092    1.164654   -1.684685
     19          1           0        1.636095   -0.051864    1.818330
     20          1           0        3.488847   -1.477030    2.565703
     21          1           0        5.149306   -2.365088    0.936941
     22          1           0        4.897722   -1.809683   -1.479142
     23          1           0        3.011333   -0.405585   -2.242598
     24          1           0       -1.722698    0.788914    2.049879
     25          1           0       -3.660969   -0.772508    2.204934
     26          1           0       -5.702388   -1.692960    0.631320
     27          1           0       -5.112739   -2.599647   -0.775755
     28          1           0       -4.587052   -3.053200    0.857714
     29          1           0       -3.380577   -1.523501   -2.022670
     30          1           0       -1.450977    0.030363   -2.173016
 ---------------------------------------------------------------------
                    Distance matrix (angstroms):
                    1          2          3          4          5
     1  O    0.000000
     2  S    1.466912   0.000000
     3  N    2.671784   1.710003   0.000000
     4  C    3.290626   2.854758   1.420739   0.000000
     5  C    3.291183   3.410432   2.530303   1.406366   0.000000
     6  C    4.604402   4.799138   3.773869   2.427229   1.392564
     7  C    5.636968   5.589905   4.236864   2.822595   2.426186
     8  C    5.635386   5.270516   3.681977   2.435796   2.786927
     9  C    4.627279   4.045785   2.382082   1.404402   2.408762
    10  C    2.640123   1.789743   2.734100   3.716263   4.086029
    11  C    2.930855   2.753711   3.827635   4.528168   4.482066
    12  C    4.320469   4.048749   4.950439   5.588544   5.510454
    13  C    5.222501   4.582418   5.235265   5.957846   6.119584
    14  C    6.682016   6.087307   6.680107   7.323444   7.419420
    15  C    5.038867   4.049408   4.473548   5.345366   5.816351
    16  C    3.919589   2.756980   3.185080   4.224026   4.856103
    17  O    2.531598   1.465801   2.462433   3.808706   4.646273
    18  H    3.241908   2.180019   1.018095   2.055903   3.331285
    19  H    2.635521   3.111166   2.815862   2.164661   1.082799
    20  H    5.024304   5.458301   4.667304   3.408897   2.145253
    21  H    6.642989   6.666245   5.327129   3.913455   3.414956
    22  H    6.642711   6.184815   4.530334   3.417584   3.877536
    23  H    5.072482   4.237509   2.550695   2.154027   3.397146
    24  H    2.481434   2.874565   4.082635   4.633957   4.344305
    25  H    4.916799   4.904428   5.861248   6.379783   6.103226
    26  H    7.037553   6.559744   7.370343   8.089168   8.141219
    27  H    7.354785   6.579326   7.029370   7.719127   7.968604
    28  H    7.033794   6.556867   7.016037   7.461940   7.395918
    29  H    6.014805   4.904828   5.130379   5.995462   6.590212
    30  H    4.270976   2.889325   2.954415   4.100352   5.013462
                    6          7          8          9         10
     6  C    0.000000
     7  C    1.392459   0.000000
     8  C    2.398086   1.391749   0.000000
     9  C    2.766974   2.412649   1.389631   0.000000
    10  C    5.399878   6.248429   6.013815   4.866877   0.000000
    11  C    5.699226   6.747660   6.777198   5.791893   1.390885
    12  C    6.602320   7.611387   7.666852   6.749618   2.400593
    13  C    7.182817   8.006580   7.883726   6.926919   2.792682
    14  C    8.371237   9.166375   9.088704   8.218373   4.297579
    15  C    6.930929   7.574617   7.221024   6.154997   2.399758
    16  C    6.079520   6.706618   6.266448   5.083650   1.391887
    17  O    5.994985   6.604905   6.050219   4.715711   2.671079
    18  H    4.458183   4.700924   3.904353   2.532411   3.386485
    19  H    2.143334   3.399155   3.869353   3.398291   3.679849
    20  H    1.090404   2.153160   3.388622   3.857351   5.954090
    21  H    2.162510   1.090863   2.160002   3.403131   7.284550
    22  H    3.391238   2.156365   1.090658   2.148464   6.923430
    23  H    3.858943   3.400987   2.153501   1.092015   5.069990
    24  H    5.528419   6.711253   6.899987   5.995861   2.150169
    25  H    7.100600   8.200004   8.405603   7.583285   3.389260
    26  H    9.144569  10.023994   9.982326   9.071386   4.801402
    27  H    8.906364   9.572208   9.366417   8.476338   4.817915
    28  H    8.204441   9.008366   9.060447   8.333364   4.797594
    29  H    7.638971   8.138451   7.667507   6.617637   3.387707
    30  H    6.211393   6.643422   5.988415   4.727551   2.156799
                   11         12         13         14         15
    11  C    0.000000
    12  C    1.391590   0.000000
    13  C    2.430430   1.401008   0.000000
    14  C    3.806095   2.520718   1.504933   0.000000
    15  C    2.786860   2.409140   1.402275   2.533543   0.000000
    16  C    2.421876   2.787693   2.430699   3.813708   1.389973
    17  O    3.777304   4.944945   5.263098   6.729169   4.506790
    18  H    4.608008   5.724122   5.897327   7.337275   4.975742
    19  H    3.800851   4.877657   5.692069   6.997390   5.592337
    20  H    6.015716   6.851521   7.559926   8.672608   7.495631
    21  H    7.711690   8.516076   8.912911  10.002461   8.531523
    22  H    7.759375   8.605844   8.715472   9.875344   7.964449
    23  H    6.175402   7.104350   7.118497   8.403756   6.164569
    24  H    1.090549   2.166740   3.423583   4.686388   3.877293
    25  H    2.150718   1.091113   2.157812   2.718757   3.399550
    26  H    4.142623   2.819310   2.158287   1.099369   3.275805
    27  H    4.595548   3.438132   2.166287   1.097748   2.644736
    28  H    4.166513   2.855642   2.157962   1.099641   3.242679
    29  H    3.877639   3.399433   2.159314   2.740338   1.090785
    30  H    3.407848   3.878316   3.420649   4.692334   2.160066
                   16         17         18         19         20
    16  C    0.000000
    17  O    3.181288   0.000000
    18  H    3.632940   2.287404   0.000000
    19  H    4.688085   4.484351   3.714818   0.000000
    20  H    6.744371   6.742626   5.417080   2.454049   0.000000
    21  H    7.729377   7.690537   5.768566   4.297732   2.489706
    22  H    7.038068   6.826774   4.584500   4.959987   4.296087
    23  H    5.060848   4.589227   2.307575   4.302039   4.949321
    24  H    3.404265   3.998784   4.892226   3.470160   5.706205
    25  H    3.878803   5.854732   6.681926   5.359820   7.193495
    26  H    4.466679   7.124944   8.011764   7.612852   9.395066
    27  H    4.032244   7.076225   7.590040   7.665979   9.295853
    28  H    4.441044   7.374940   7.764008   6.975554   8.403670
[...]
     2  S    0.000025   0.000735   0.007033   0.307983  -0.016550   0.004868
     3  N    0.000974   0.013251  -0.039570  -0.061452   0.006357   0.000051
     4  C   -0.112017   0.009907   0.333993   0.045010  -0.002555   0.001885
     5  C    0.048675  -0.090388   0.057846   0.003467   0.000872  -0.002490
     6  C    0.413199   0.022544  -0.098003  -0.000068  -0.001268   0.000434
     7  C    4.963720   0.439103   0.035564  -0.000158  -0.000704  -0.000195
     8  C    0.439103   4.933731   0.408388  -0.001761   0.001198   0.002006
     9  C    0.035564   0.408388   5.115201  -0.000176  -0.014238  -0.000563
    10  C   -0.000158  -0.001761  -0.000176   5.294005   0.316288   0.049795
    11  C   -0.000704   0.001198  -0.014238   0.316288   5.142038   0.357386
    12  C   -0.000195   0.002006  -0.000563   0.049795   0.357386   5.100167
    13  C    0.000042   0.000056  -0.000462  -0.090527   0.033008   0.412646
    14  C   -0.000001  -0.000016   0.000009  -0.004307   0.013812  -0.073672
    15  C    0.000020  -0.000051   0.000794   0.015624  -0.050388  -0.014088
    16  C   -0.000059  -0.000680  -0.001914   0.368106  -0.069597  -0.046387
    17  O   -0.000003  -0.000001  -0.000525  -0.096279   0.008737  -0.000586
    18  H    0.000136   0.001087   0.008837  -0.000736   0.000707  -0.000043
    19  H    0.010215  -0.004442   0.011287   0.001828  -0.000442  -0.000158
    20  H   -0.058354   0.010553  -0.003504  -0.000016  -0.000004   0.000008
    21  H    0.443933  -0.056087   0.012198   0.000004  -0.000018  -0.000002
    22  H   -0.057143   0.438886  -0.053930   0.000005   0.000029   0.000022
    23  H    0.010390  -0.031465   0.439951   0.000786  -0.000269  -0.000258
    24  H    0.000105   0.000167  -0.001668  -0.046328   0.436239  -0.049466
    25  H    0.000008   0.000072  -0.000080   0.010710  -0.048533   0.444492
    26  H    0.000000   0.000000   0.000000   0.000161  -0.000731  -0.004881
    27  H    0.000000  -0.000001   0.000001   0.000065  -0.000711   0.007936
    28  H   -0.000000   0.000001  -0.000002   0.000055   0.001938  -0.006654
    29  H   -0.000000   0.000003  -0.000002   0.011286  -0.003857   0.012867
    30  H   -0.000003   0.000006  -0.000132  -0.045628   0.008280  -0.002425
              13         14         15         16         17         18
     1  O   -0.000113  -0.000000  -0.000265   0.006937  -0.043929   0.002676
     2  S   -0.000535   0.000005   0.005742  -0.039175   0.584232  -0.016602
     3  N    0.000226  -0.000004  -0.001189   0.000036  -0.048057   0.365623
     4  C   -0.000717   0.000007   0.000250   0.001026   0.001635  -0.051471
     5  C    0.000219   0.000006   0.000048   0.000327  -0.000743   0.004524
     6  C   -0.000039  -0.000001  -0.000008   0.000171  -0.000000  -0.000720
     7  C    0.000042  -0.000001   0.000020  -0.000059  -0.000003   0.000136
     8  C    0.000056  -0.000016  -0.000051  -0.000680  -0.000001   0.001087
     9  C   -0.000462   0.000009   0.000794  -0.001914  -0.000525   0.008837
    10  C   -0.090527  -0.004307   0.015624   0.368106  -0.096279  -0.000736
    11  C    0.033008   0.013812  -0.050388  -0.069597   0.008737   0.000707
    12  C    0.412646  -0.073672  -0.014088  -0.046387  -0.000586  -0.000043
    13  C    4.972691   0.297553   0.432212   0.016235   0.000166   0.000064
    14  C    0.297553   4.958422  -0.073388   0.013139   0.000001   0.000000
    15  C    0.432212  -0.073388   5.062956   0.404488   0.002760  -0.000166
    16  C    0.016235   0.013139   0.404488   5.106094   0.026775   0.000145
    17  O    0.000166   0.000001   0.002760   0.026775   8.022374   0.004369
    18  H    0.000064   0.000000  -0.000166   0.000145   0.004369   0.429407
    19  H    0.000015   0.000000   0.000007  -0.000172  -0.000133  -0.000050
    20  H   -0.000000  -0.000000  -0.000000   0.000001  -0.000000   0.000013
    21  H   -0.000001   0.000000   0.000000  -0.000000   0.000000  -0.000002
    22  H   -0.000005   0.000000  -0.000003  -0.000001  -0.000000  -0.000040
    23  H   -0.000009  -0.000000   0.000310   0.000380  -0.000176   0.003563
    24  H    0.008916  -0.000031  -0.002425   0.008175   0.000385  -0.000098
    25  H   -0.063175  -0.006651   0.012781  -0.003657   0.000003   0.000000
    26  H   -0.017371   0.390164  -0.004580  -0.000662  -0.000000  -0.000000
    27  H   -0.054876   0.427638  -0.006514   0.001943   0.000000   0.000000
    28  H   -0.053304   0.427625   0.006958  -0.000638   0.000000  -0.000000
    29  H   -0.062073  -0.006787   0.443219  -0.048884  -0.000028  -0.000009
    30  H    0.008424  -0.000057  -0.048535   0.432620   0.013553   0.000364
              19         20         21         22         23         24
     1  O    0.008971  -0.000038   0.000001  -0.000000  -0.000017   0.008188
     2  S   -0.002920  -0.000003   0.000003  -0.000007  -0.000121  -0.004119
     3  N   -0.001404  -0.000119   0.000008  -0.000360   0.002897   0.000355
     4  C   -0.044800   0.013945  -0.003964   0.015211  -0.080501   0.000128
     5  C    0.434638  -0.057683   0.011297  -0.003858   0.012037   0.000016
     6  C   -0.048922   0.446325  -0.056275   0.010719  -0.003893   0.000350
     7  C    0.010215  -0.058354   0.443933  -0.057143   0.010390   0.000105
     8  C   -0.004442   0.010553  -0.056087   0.438886  -0.031465   0.000167
     9  C    0.011287  -0.003504   0.012198  -0.053930   0.439951  -0.001668
    10  C    0.001828  -0.000016   0.000004   0.000005   0.000786  -0.046328
    11  C   -0.000442  -0.000004  -0.000018   0.000029  -0.000269   0.436239
    12  C   -0.000158   0.000008  -0.000002   0.000022  -0.000258  -0.049466
    13  C    0.000015  -0.000000  -0.000001  -0.000005  -0.000009   0.008916
    14  C    0.000000  -0.000000   0.000000   0.000000  -0.000000  -0.000031
    15  C    0.000007  -0.000000   0.000000  -0.000003   0.000310  -0.002425
    16  C   -0.000172   0.000001  -0.000000  -0.000001   0.000380   0.008175
    17  O   -0.000133  -0.000000   0.000000  -0.000000  -0.000176   0.000385
    18  H   -0.000050   0.000013  -0.000002  -0.000040   0.003563  -0.000098
    19  H    0.476174  -0.006494  -0.000017   0.000015   0.000012  -0.000091
    20  H   -0.006494   0.534759  -0.006847  -0.000125   0.000028  -0.000017
    21  H   -0.000017  -0.006847   0.538791  -0.006650  -0.000098  -0.000004
    22  H    0.000015  -0.000125  -0.006650   0.541629  -0.007507   0.000004
    23  H    0.000012   0.000028  -0.000098  -0.007507   0.538599  -0.000053
    24  H   -0.000091  -0.000017  -0.000004   0.000004  -0.000053   0.481724
    25  H   -0.000007   0.000001  -0.000000  -0.000000  -0.000002  -0.005595
    26  H    0.000000   0.000000  -0.000000  -0.000000   0.000000   0.000008
    27  H   -0.000000  -0.000000   0.000000  -0.000000   0.000000   0.000002
    28  H   -0.000000   0.000000  -0.000000   0.000000  -0.000000  -0.000022
    29  H   -0.000000   0.000000   0.000000   0.000000  -0.000003   0.000026
    30  H   -0.000005   0.000000  -0.000000   0.000000  -0.000067  -0.000066
              25         26         27         28         29         30
     1  O   -0.000011  -0.000000   0.000000   0.000000   0.000004   0.000542
     2  S   -0.000100  -0.000001   0.000001   0.000001  -0.000114  -0.004413
     3  N    0.000031   0.000000  -0.000000  -0.000000   0.000017   0.000275
     4  C    0.000037  -0.000000  -0.000001   0.000003  -0.000007  -0.000183
     5  C   -0.000101  -0.000000   0.000000   0.000000  -0.000002  -0.000018
     6  C    0.000057   0.000000  -0.000000   0.000000   0.000000   0.000007
     7  C    0.000008   0.000000   0.000000  -0.000000  -0.000000  -0.000003
     8  C    0.000072   0.000000  -0.000001   0.000001   0.000003   0.000006
     9  C   -0.000080   0.000000   0.000001  -0.000002  -0.000002  -0.000132
    10  C    0.010710   0.000161   0.000065   0.000055   0.011286  -0.045628
    11  C   -0.048533  -0.000731  -0.000711   0.001938  -0.003857   0.008280
    12  C    0.444492  -0.004881   0.007936  -0.006654   0.012867  -0.002425
    13  C   -0.063175  -0.017371  -0.054876  -0.053304  -0.062073   0.008424
    14  C   -0.006651   0.390164   0.427638   0.427625  -0.006787  -0.000057
    15  C    0.012781  -0.004580  -0.006514   0.006958   0.443219  -0.048535
    16  C   -0.003657  -0.000662   0.001943  -0.000638  -0.048884   0.432620
    17  O    0.000003  -0.000000   0.000000   0.000000  -0.000028   0.013553
    18  H    0.000000  -0.000000   0.000000  -0.000000  -0.000009   0.000364
    19  H   -0.000007   0.000000  -0.000000  -0.000000  -0.000000  -0.000005
    20  H    0.000001   0.000000  -0.000000   0.000000   0.000000   0.000000
    21  H   -0.000000  -0.000000   0.000000  -0.000000   0.000000  -0.000000
    22  H   -0.000000  -0.000000  -0.000000   0.000000   0.000000   0.000000
    23  H   -0.000002   0.000000   0.000000  -0.000000  -0.000003  -0.000067
    24  H   -0.005595   0.000008   0.000002  -0.000022   0.000026  -0.000066
    25  H    0.533622   0.000256   0.000074   0.000880  -0.000049   0.000031
    26  H    0.000256   0.544765  -0.023407  -0.024237   0.000224   0.000007
    27  H    0.000074  -0.023407   0.542017  -0.023657   0.001095  -0.000019
    28  H    0.000880  -0.024237  -0.023657   0.540726   0.000057   0.000003
    29  H   -0.000049   0.000224   0.001095   0.000057   0.533411  -0.005564
    30  H    0.000031   0.000007  -0.000019   0.000003  -0.005564   0.477703
 Mulliken charges:
               1
     1  O   -0.461033
     2  S    0.856456
     3  N   -0.316463
     4  C    0.199940
     5  C   -0.270601
     6  C   -0.072229
     7  C   -0.137602
     8  C   -0.096901
     9  C   -0.217407
    10  C    0.000981
    11  C   -0.135618
    12  C   -0.195658
    13  C    0.160735
    14  C   -0.363466
    15  C   -0.186572
    16  C   -0.174772
    17  O   -0.474530
    18  H    0.248420
    19  H    0.166895
    20  H    0.127570
    21  H    0.123730
    22  H    0.123108
    23  H    0.115486
    24  H    0.165193
    25  H    0.124905
    26  H    0.140286
    27  H    0.128412
    28  H    0.130268
    29  H    0.125168
    30  H    0.165297
 Sum of Mulliken charges =  -0.00000
 Mulliken charges with hydrogens summed into heavy atoms:
               1
     1  O   -0.461033
     2  S    0.856456
     3  N   -0.068043
     4  C    0.199940
     5  C   -0.103705
     6  C    0.055341
     7  C   -0.013872
     8  C    0.026207
     9  C   -0.101920
    10  C    0.000981
    11  C    0.029575
    12  C   -0.070753
    13  C    0.160735
    14  C    0.035501
    15  C   -0.061404
    16  C   -0.009475
    17  O   -0.474530
 Electronic spatial extent (au):  <R**2>=           4366.5627
 Charge=             -0.0000 electrons
 Dipole moment (field-independent basis, Debye):
    X=             -1.8222    Y=             -5.3822    Z=             -1.7648  Tot=              5.9500
 Quadrupole moment (field-independent basis, Debye-Ang):
   XX=            -96.8176   YY=           -114.0123   ZZ=           -101.0969
   XY=              0.2827   XZ=              2.6673   YZ=             -4.5446
 Traceless Quadrupole moment (field-independent basis, Debye-Ang):
   XX=              7.1580   YY=            -10.0367   ZZ=              2.8787
   XY=              0.2827   XZ=              2.6673   YZ=             -4.5446
 Octapole moment (field-independent basis, Debye-Ang**2):
  XXX=            -41.9546  YYY=            -42.3685  ZZZ=            -11.7722  XYY=              3.5031
  XXY=            -16.3266  XXZ=              7.5844  XZZ=              2.8457  YZZ=             -0.4011
  YYZ=             -0.7599  XYZ=             -0.8853
 Hexadecapole moment (field-independent basis, Debye-Ang**3):
 XXXX=          -3343.3508 YYYY=          -1978.1643 ZZZZ=           -577.7212 XXXY=             53.3161
 XXXZ=            112.7791 YYYX=            -18.4107 YYYZ=             17.6566 ZZZX=             13.6272
 ZZZY=            -24.0090 XXYY=           -821.9313 XXZZ=           -639.4981 YYZZ=           -410.8722
 XXYZ=            -31.5950 YYXZ=            -12.7876 ZZXY=             -2.1714
 N-N= 1.331933754811D+03 E-N=-5.259239449722D+03  KE= 1.102023921433D+03
 Breneman (CHELPG) radii used.
 Read replacement radii for each type of atom:
 Atom Element Radius
    1     8    1.70
    2    16    2.00
    3     7    1.70
    4     6    1.50
    5     6    1.50
    6     6    1.50
    7     6    1.50
    8     6    1.50
    9     6    1.50
   10     6    1.50
   11     6    1.50
   12     6    1.50
   13     6    1.50
   14     6    1.50
   15     6    1.50
   16     6    1.50
   17     8    1.70
   18     1    1.45
   19     1    1.45
   20     1    1.45
   21     1    1.45
   22     1    1.45
   23     1    1.45
   24     1    1.45
   25     1    1.45
   26     1    1.45
   27     1    1.45
   28     1    1.45
   29     1    1.45
   30     1    1.45
 Generate Potential Derived Charges using the Breneman model, NDens= 1.
 Grid spacing= 0.300 Box extension= 2.800
 NStep X,Y,Z=   49     42     34   Total possible points=       69972
 Number of Points to Fit=   18712

 **********************************************************************

            Electrostatic Properties Using The SCF Density.

 **********************************************************************

       Atomic Center    1 is at   0.759973  2.053047  1.477378
       Atomic Center    2 is at   0.211273  1.955923  0.139104
       Atomic Center    3 is at   1.389751  1.267730 -0.841689
       Atomic Center    4 is at   1.950904  0.004427 -0.532381
       Atomic Center    5 is at   2.685243 -0.167027  0.646429
       Atomic Center    6 is at   3.219142 -1.416697  0.949212
       Atomic Center    7 is at   3.052637 -2.492001  0.076108
       Atomic Center    8 is at   2.334411 -2.314409 -1.105108
       Atomic Center    9 is at   1.772310 -1.075457 -1.403436
       Atomic Center   10 is at  -1.098927  0.752245  0.173449
       Atomic Center   11 is at  -1.042955 -0.301493  1.084628
       Atomic Center   12 is at  -2.036193 -1.274909  1.051409
       Atomic Center   13 is at  -3.088690 -1.207242  0.129553
       Atomic Center   14 is at  -4.177587 -2.246544  0.128484
       Atomic Center   15 is at  -3.122083 -0.132175 -0.768106
       Atomic Center   16 is at  -2.134278  0.847565 -0.754275
       Atomic Center   17 is at  -0.244767  3.115711 -0.602893
       Atomic Center   18 is at   1.147213  1.412283 -1.817991
       Atomic Center   19 is at   2.820831  0.683276  1.314748
       Atomic Center   20 is at   3.787145 -1.545886  1.873049
       Atomic Center   21 is at   3.485229 -3.465673  0.314547
       Atomic Center   22 is at   2.197067 -3.148985 -1.795921
       Atomic Center   23 is at   1.185505 -0.942162 -2.315845
       Atomic Center   24 is at  -0.230792 -0.351073  1.811588
       Atomic Center   25 is at  -1.993714 -2.105259  1.760552
       Atomic Center   26 is at  -4.982034 -1.962136  0.825911
       Atomic Center   27 is at  -4.628370 -2.357166 -0.867684
       Atomic Center   28 is at  -3.797315 -3.227380  0.446948
       Atomic Center   29 is at  -3.939356 -0.058426 -1.489976
       Atomic Center   30 is at  -2.165296  1.691947 -1.445446
   18712 points will be used for fitting atomic charges
 Fitting point charges to electrostatic potential
 Charges from ESP fit, RMS=   0.00358 RRMS=   0.21890:
 ESP charges:
               1
     1  O   -0.469835
     2  S    0.935367
     3  N   -0.647278
     4  C    0.411948
     5  C   -0.220753
     6  C   -0.054259
     7  C   -0.148664
     8  C   -0.053213
     9  C   -0.270600
    10  C   -0.066246
    11  C   -0.035263
    12  C   -0.231552
    13  C    0.240152
    14  C   -0.271940
    15  C   -0.213004
    16  C   -0.066879
    17  O   -0.485554
    18  H    0.354815
    19  H    0.160647
    20  H    0.096996
    21  H    0.105283
    22  H    0.104233
    23  H    0.111148
    24  H    0.099368
    25  H    0.129165
    26  H    0.090190
    27  H    0.077394
    28  H    0.078775
    29  H    0.127018
    30  H    0.112539
 Sum of ESP charges =   0.00000
 ESP charges with hydrogens summed into heavy atoms:
               1
     1  O   -0.469835
     2  S    0.935367
     3  N   -0.292463
     4  C    0.411948
     5  C   -0.060106
     6  C    0.042736
     7  C   -0.043380
     8  C    0.051021
     9  C   -0.159452
    10  C   -0.066246
    11  C    0.064105
    12  C   -0.102387
    13  C    0.240152
    14  C   -0.025581
    15  C   -0.085986
    16  C    0.045660
    17  O   -0.485554
 Charge=   0.00000 Dipole=    -1.7021    -5.2556    -1.7354 Tot=     5.7905
 -----------------------------------------------------------------

              Electrostatic Properties (Atomic Units)

 -----------------------------------------------------------------
    Center     Electric         -------- Electric Field --------
               Potential          X             Y             Z
 -----------------------------------------------------------------
    1 Atom    -22.373376
    2 Atom    -59.026799
    3 Atom    -18.345601
    4 Atom    -14.712677
    5 Atom    -14.763165
    6 Atom    -14.758980
    7 Atom    -14.761227
    8 Atom    -14.756712
    9 Atom    -14.755803
   10 Atom    -14.732023
   11 Atom    -14.745692
   12 Atom    -14.752981
   13 Atom    -14.736846
   14 Atom    -14.755044
   15 Atom    -14.752124
   16 Atom    -14.744873
   17 Atom    -22.373239
   18 Atom     -1.001974
   19 Atom     -1.101926
   20 Atom     -1.099706
   21 Atom     -1.099251
   22 Atom     -1.096083
   23 Atom     -1.087786
   24 Atom     -1.088677
   25 Atom     -1.091441
   26 Atom     -1.097640
   27 Atom     -1.100360
   28 Atom     -1.100258
   29 Atom     -1.090246
   30 Atom     -1.086167
 -----------------------------------------------------------------
 Unable to Open any file for archive entry.
 1\1\GINC-NOTCH225\SP\RwB97XD\def2TZVP\C13H13N1O2S1\U1366379\17-Feb-202
 6\0\\#N Guess=Read Geom=Check Integral(Ultrafine) Density Pop=(ChelpG,
 ReadRadii) NMR wB97XD def2TZVP\\prod_5l_32\\0,1\O,0,0.2390230554,2.435
 1950733,1.1035933088\S,0,-0.049623409,2.0148895899,-0.2534290202\N,0,1
 .3464789421,1.314203178,-0.8733572451\C,0,1.9637025025,0.2173463228,-0
 .2234040343\C,0,2.4887618846,0.3704839123,1.0646593754\C,0,3.079139857
 2,-0.717925488,1.7012271753\C,0,3.1768784231,-1.9516247022,1.057218947
 5\C,0,2.6674273394,-2.0971283325,-0.2319458598\C,0,2.0496860587,-1.022
 0096837,-0.8663548984\C,0,-1.2212738871,0.6779967935,-0.1721881312\C,0
 ,-1.2266118514,-0.1672408358,0.9365450206\C,0,-2.0982941095,-1.2512336
 497,0.9536620135\C,0,-2.9706518259,-1.4984610994,-0.1140546951\C,0,-3.
 9353166358,-2.6530399309,-0.0669865802\C,0,-2.9476999309,-0.6269394204
 ,-1.2106851245\C,0,-2.0784890167,0.4588179175,-1.2486870836\O,0,-0.476
 540693,2.9428126402,-1.2831567476\H,0,1.2693684425,1.2379099075,-1.883
 8620381\H,0,2.4192630714,1.3423666174,1.5531909192\H,0,3.4827814976,-0
 .593856867,2.7084375817\H,0,3.6526760687,-2.7969900438,1.5582183605\H,
 0,2.7376936968,-3.0582027081,-0.7457564591\H,0,1.6251938916,-1.1423877
 339,-1.8663113594\H,0,-0.5564997634,0.0290555598,1.7749690475\H,0,-2.1
 025088806,-1.9191800227,1.818531087\H,0,-4.8752468422,-2.3498120448,0.
 4219012806\H,0,-4.187904093,-3.0087595453,-1.0756773621\H,0,-3.5243436
 636,-3.4970815569,0.504642809\H,0,-3.6260791159,-0.7994252968,-2.05004
 22647\H,0,-2.0676310137,1.1453314499,-2.0973580232\\Version=ES64L-G16R
 evC.01\State=1-A\HF=-1106.6304772\RMSD=3.939e-09\Dipole=-0.3715635,-2.
 2862351,-0.3390131\Quadrupole=4.24736,-7.9901169,3.7427569,2.4885152,2
 .2533082,-0.6857633\PG=C01 [X(C13H13N1O2S1)]\\@
 The archive entry for this job was punched.


 SCIENCE AND PEACE WILL TRIUMPH OVER IGNORANCE AND WAR

                          -- PASTEUR
 Job cpu time:       0 days  2 hours  3 minutes  3.8 seconds.
 Elapsed time:       0 days  0 hours 15 minutes 48.2 seconds.
 File lengths (MBytes):  RWF=    226 Int=      0 D2E=      0 Chk=     34 Scr=      2
 Normal termination of Gaussian 16 at Tue Feb 17 18:11:49 2026.
