 Entering Gaussian System, Link 0=g16
 Input=prod_5l_22.com
 Output=prod_5l_22.log
 Initial command:
 /uufs/chpc.utah.edu/sys/installdir/gaussian16/C01/AVX/g16/l1.exe "/scratch/general/vast/u1366379/GAUSSSCRDIR/11028697-notchpeak.peaks/Gau-793727.inp" -scrdir="/scratch/general/vast/u1366379/GAUSSSCRDIR/11028697-notchpeak.peaks/"
 Entering Link 1 = /uufs/chpc.utah.edu/sys/installdir/gaussian16/C01/AVX/g16/l1.exe PID=    793728.
  
 Copyright (c) 1988-2019, Gaussian, Inc.  All Rights Reserved.
  
 This is part of the Gaussian(R) 16 program.  It is based on
 the Gaussian(R) 09 system (copyright 2009, Gaussian, Inc.),
 the Gaussian(R) 03 system (copyright 2003, Gaussian, Inc.),
 the Gaussian(R) 98 system (copyright 1998, Gaussian, Inc.),
 the Gaussian(R) 94 system (copyright 1995, Gaussian, Inc.),
 the Gaussian 92(TM) system (copyright 1992, Gaussian, Inc.),
 the Gaussian 90(TM) system (copyright 1990, Gaussian, Inc.),
 the Gaussian 88(TM) system (copyright 1988, Gaussian, Inc.),
 the Gaussian 86(TM) system (copyright 1986, Carnegie Mellon
 University), and the Gaussian 82(TM) system (copyright 1983,
 Carnegie Mellon University). Gaussian is a federally registered
 trademark of Gaussian, Inc.
  
 This software contains proprietary and confidential information,
 including trade secrets, belonging to Gaussian, Inc.
  
 This software is provided under written license and may be
 used, copied, transmitted, or stored only in accord with that
 written license.
  
 The following legend is applicable only to US Government
 contracts under FAR:
  
                    RESTRICTED RIGHTS LEGEND
  
 Use, reproduction and disclosure by the US Government is
 subject to restrictions as set forth in subparagraphs (a)
 and (c) of the Commercial Computer Software - Restricted
 Rights clause in FAR 52.227-19.
  
 Gaussian, Inc.
 340 Quinnipiac St., Bldg. 40, Wallingford CT 06492
  
  
 ---------------------------------------------------------------
 Warning -- This program may not be used in any manner that
 competes with the business of Gaussian, Inc. or will provide
 assistance to any competitor of Gaussian, Inc.  The licensee
 of this program is prohibited from giving any competitor of
 Gaussian, Inc. access to this program.  By using this program,
 the user acknowledges that Gaussian, Inc. is engaged in the
 business of creating and licensing software in the field of
 computational chemistry and represents and warrants to the
 licensee that it is not a competitor of Gaussian, Inc. and that
 it will not use this program in any manner prohibited above.
 ---------------------------------------------------------------
  

 Cite this work as:
 Gaussian 16, Revision C.01,
 M. J. Frisch, G. W. Trucks, H. B. Schlegel, G. E. Scuseria, 
 M. A. Robb, J. R. Cheeseman, G. Scalmani, V. Barone, 
 G. A. Petersson, H. Nakatsuji, X. Li, M. Caricato, A. V. Marenich, 
 J. Bloino, B. G. Janesko, R. Gomperts, B. Mennucci, H. P. Hratchian, 
 J. V. Ortiz, A. F. Izmaylov, J. L. Sonnenberg, D. Williams-Young, 
 F. Ding, F. Lipparini, F. Egidi, J. Goings, B. Peng, A. Petrone, 
 T. Henderson, D. Ranasinghe, V. G. Zakrzewski, J. Gao, N. Rega, 
 G. Zheng, W. Liang, M. Hada, M. Ehara, K. Toyota, R. Fukuda, 
 J. Hasegawa, M. Ishida, T. Nakajima, Y. Honda, O. Kitao, H. Nakai, 
 T. Vreven, K. Throssell, J. A. Montgomery, Jr., J. E. Peralta, 
 F. Ogliaro, M. J. Bearpark, J. J. Heyd, E. N. Brothers, K. N. Kudin, 
 V. N. Staroverov, T. A. Keith, R. Kobayashi, J. Normand, 
 K. Raghavachari, A. P. Rendell, J. C. Burant, S. S. Iyengar, 
 J. Tomasi, M. Cossi, J. M. Millam, M. Klene, C. Adamo, R. Cammi, 
 J. W. Ochterski, R. L. Martin, K. Morokuma, O. Farkas, 
 J. B. Foresman, and D. J. Fox, Gaussian, Inc., Wallingford CT, 2019.
 
 ******************************************
 Gaussian 16:  ES64L-G16RevC.01  3-Jul-2019
                17-Feb-2026 
 ******************************************
 %NProcShared=8
 Will use up to    8 processors via shared memory.
 %Mem=8GB
 %chk=prod_5l_22.chk
 ------------------------------------------------------
 #N OPT FREQ=NORAMAN Integral(Ultrafine) wB97XD def2SVP
 ------------------------------------------------------
 1/18=20,19=15,26=4,38=1/1,3;
 2/9=110,12=2,17=6,18=5,40=1/2;
 3/5=43,7=101,11=2,25=1,30=1,71=1,74=-58,75=-5/1,2,3;
 4//1;
 5/5=2,38=5/2;
 6/7=2,8=2,9=2,10=2,28=1/1;
 7//1,2,3,16;
 1/18=20,19=15,26=4/3(2);
 2/9=110/2;
 99//99;
 2/9=110/2;
 3/5=43,7=101,11=2,25=1,30=1,71=1,74=-58,75=-5/1,2,3;
 4/5=5,16=3,69=1/1;
 5/5=2,38=5/2;
 7//1,2,3,16;
 1/18=20,19=15,26=4/3(-5);
 2/9=110/2;
 6/7=2,8=2,9=2,10=2,19=2,28=1/1;
 99/9=1/99;
 ----------
 prod_5l_22
 ----------
 Symbolic Z-matrix:
 Charge =  0 Multiplicity = 1
 O                     0.33619   2.00952   0.26269 
 S                     0.06049   0.84572  -0.64659 
 N                     0.8725   -0.595    -0.2266 
 C                     2.21813  -0.4953    0.1309 
 C                     3.01291  -1.64934   0.12209 
 C                     4.3433   -1.59818   0.46604 
 C                     4.92074  -0.39904   0.83306 
 C                     4.15881   0.75163   0.85802 
 C                     2.82922   0.706     0.51488 
 C                    -1.5904    0.26584  -0.24065 
 C                    -2.06386   0.40292   1.0418 
 C                    -3.3305   -0.04419   1.35933 
 C                    -4.13144  -0.63902   0.39469 
 C                    -5.50718  -1.10006   0.7242 
 C                    -3.64003  -0.76007  -0.89705 
 C                    -2.37351  -0.31069  -1.21144 
 O                     0.14863   0.95277  -2.14264 
 H                     0.70441  -1.15145  -1.03582 
 H                     2.55976  -2.58306  -0.16077 
 H                     4.93745  -2.497     0.4487 
 H                     5.96371  -0.36167   1.10106 
 H                     4.60705   1.68785   1.14769 
 H                     2.23373   1.59991   0.54349 
 H                    -1.43913   0.87143   1.7846 
 H                    -3.70738   0.07047   2.36094 
 H                    -5.6182   -1.28016   1.79379 
 H                    -6.24552  -0.35352   0.43036 
 H                    -5.74284  -2.02994   0.20579 
 H                    -4.25916  -1.20545  -1.65654 
 H                    -1.98949  -0.3941   -2.21491 
 

 GradGradGradGradGradGradGradGradGradGradGradGradGradGradGradGradGradGrad
 Berny optimization.
 Initialization pass.
                           ----------------------------
                           !    Initial Parameters    !
                           ! (Angstroms and Degrees)  !
 --------------------------                            --------------------------
 ! Name  Definition              Value          Derivative Info.                !
 --------------------------------------------------------------------------------
 ! R1    R(1,2)                  1.5024         estimate D2E/DX2                !
 ! R2    R(2,3)                  1.7063         estimate D2E/DX2                !
 ! R3    R(2,10)                 1.7962         estimate D2E/DX2                !
 ! R4    R(2,17)                 1.5025         estimate D2E/DX2                !
 ! R5    R(3,4)                  1.3959         estimate D2E/DX2                !
 ! R6    R(3,18)                 0.9964         estimate D2E/DX2                !
 ! R7    R(4,5)                  1.4013         estimate D2E/DX2                !
 ! R8    R(4,9)                  1.4014         estimate D2E/DX2                !
 ! R9    R(5,6)                  1.3751         estimate D2E/DX2                !
 ! R10   R(5,19)                 1.0757         estimate D2E/DX2                !
 ! R11   R(6,7)                  1.3806         estimate D2E/DX2                !
 ! R12   R(6,20)                 1.0776         estimate D2E/DX2                !
 ! R13   R(7,8)                  1.3803         estimate D2E/DX2                !
 ! R14   R(7,21)                 1.0775         estimate D2E/DX2                !
 ! R15   R(8,9)                  1.3739         estimate D2E/DX2                !
 ! R16   R(8,22)                 1.0777         estimate D2E/DX2                !
 ! R17   R(9,23)                 1.0745         estimate D2E/DX2                !
 ! R18   R(10,11)                1.3739         estimate D2E/DX2                !
 ! R19   R(10,16)                1.3741         estimate D2E/DX2                !
 ! R20   R(11,12)                1.3803         estimate D2E/DX2                !
 ! R21   R(11,24)                1.0777         estimate D2E/DX2                !
 ! R22   R(12,13)                1.3878         estimate D2E/DX2                !
 ! R23   R(12,25)                1.0763         estimate D2E/DX2                !
 ! R24   R(13,14)                1.4879         estimate D2E/DX2                !
 ! R25   R(13,15)                1.3873         estimate D2E/DX2                !
 ! R26   R(14,26)                1.0903         estimate D2E/DX2                !
 ! R27   R(14,27)                1.0903         estimate D2E/DX2                !
 ! R28   R(14,28)                1.0904         estimate D2E/DX2                !
 ! R29   R(15,16)                1.3802         estimate D2E/DX2                !
 ! R30   R(15,29)                1.0763         estimate D2E/DX2                !
 ! R31   R(16,30)                1.0777         estimate D2E/DX2                !
 ! A1    A(1,2,3)              114.6933         estimate D2E/DX2                !
 ! A2    A(1,2,10)             106.3768         estimate D2E/DX2                !
 ! A3    A(1,2,17)             122.4576         estimate D2E/DX2                !
 ! A4    A(3,2,10)              96.2676         estimate D2E/DX2                !
 ! A5    A(3,2,17)             106.1012         estimate D2E/DX2                !
 ! A6    A(10,2,17)            107.5746         estimate D2E/DX2                !
 ! A7    A(2,3,4)              117.4836         estimate D2E/DX2                !
 ! A8    A(2,3,18)             101.0324         estimate D2E/DX2                !
 ! A9    A(4,3,18)             114.2381         estimate D2E/DX2                !
 ! A10   A(3,4,5)              119.1            estimate D2E/DX2                !
 ! A11   A(3,4,9)              123.4872         estimate D2E/DX2                !
 ! A12   A(5,4,9)              117.4105         estimate D2E/DX2                !
 ! A13   A(4,5,6)              121.1002         estimate D2E/DX2                !
 ! A14   A(4,5,19)             118.5271         estimate D2E/DX2                !
 ! A15   A(6,5,19)             120.3727         estimate D2E/DX2                !
 ! A16   A(5,6,7)              120.2295         estimate D2E/DX2                !
 ! A17   A(5,6,20)             119.8937         estimate D2E/DX2                !
 ! A18   A(7,6,20)             119.8768         estimate D2E/DX2                !
 ! A19   A(6,7,8)              119.8677         estimate D2E/DX2                !
 ! A20   A(6,7,21)             120.0722         estimate D2E/DX2                !
 ! A21   A(8,7,21)             120.06           estimate D2E/DX2                !
 ! A22   A(7,8,9)              120.1321         estimate D2E/DX2                !
 ! A23   A(7,8,22)             119.9665         estimate D2E/DX2                !
 ! A24   A(9,8,22)             119.9014         estimate D2E/DX2                !
 ! A25   A(4,9,8)              121.2573         estimate D2E/DX2                !
 ! A26   A(4,9,23)             118.6055         estimate D2E/DX2                !
 ! A27   A(8,9,23)             120.136          estimate D2E/DX2                !
 ! A28   A(2,10,11)            119.7002         estimate D2E/DX2                !
 ! A29   A(2,10,16)            119.9726         estimate D2E/DX2                !
 ! A30   A(11,10,16)           120.3272         estimate D2E/DX2                !
 ! A31   A(10,11,12)           119.9112         estimate D2E/DX2                !
 ! A32   A(10,11,24)           119.1403         estimate D2E/DX2                !
 ! A33   A(12,11,24)           120.9446         estimate D2E/DX2                !
 ! A34   A(11,12,13)           120.569          estimate D2E/DX2                !
 ! A35   A(11,12,25)           120.0608         estimate D2E/DX2                !
 ! A36   A(13,12,25)           119.3696         estimate D2E/DX2                !
 ! A37   A(12,13,14)           120.8321         estimate D2E/DX2                !
 ! A38   A(12,13,15)           118.6969         estimate D2E/DX2                !
 ! A39   A(14,13,15)           120.4427         estimate D2E/DX2                !
 ! A40   A(13,14,26)           111.2591         estimate D2E/DX2                !
 ! A41   A(13,14,27)           110.7499         estimate D2E/DX2                !
 ! A42   A(13,14,28)           111.026          estimate D2E/DX2                !
 ! A43   A(26,14,27)           107.9702         estimate D2E/DX2                !
 ! A44   A(26,14,28)           107.6694         estimate D2E/DX2                !
 ! A45   A(27,14,28)           108.0243         estimate D2E/DX2                !
 ! A46   A(13,15,16)           120.5791         estimate D2E/DX2                !
 ! A47   A(13,15,29)           119.2981         estimate D2E/DX2                !
 ! A48   A(16,15,29)           120.1223         estimate D2E/DX2                !
 ! A49   A(10,16,15)           119.9119         estimate D2E/DX2                !
 ! A50   A(10,16,30)           119.1598         estimate D2E/DX2                !
 ! A51   A(15,16,30)           120.9244         estimate D2E/DX2                !
 ! D1    D(1,2,3,4)            -43.9773         estimate D2E/DX2                !
 ! D2    D(1,2,3,18)          -168.9293         estimate D2E/DX2                !
 ! D3    D(10,2,3,4)          -155.2431         estimate D2E/DX2                !
 ! D4    D(10,2,3,18)           79.8048         estimate D2E/DX2                !
 ! D5    D(17,2,3,4)            94.3999         estimate D2E/DX2                !
 ! D6    D(17,2,3,18)          -30.5522         estimate D2E/DX2                !
 ! D7    D(1,2,10,11)          -30.4186         estimate D2E/DX2                !
 ! D8    D(1,2,10,16)          149.5283         estimate D2E/DX2                !
 ! D9    D(3,2,10,11)           87.6366         estimate D2E/DX2                !
 ! D10   D(3,2,10,16)          -92.4165         estimate D2E/DX2                !
 ! D11   D(17,2,10,11)        -163.2495         estimate D2E/DX2                !
 ! D12   D(17,2,10,16)          16.6975         estimate D2E/DX2                !
 ! D13   D(2,3,4,5)           -162.5077         estimate D2E/DX2                !
 ! D14   D(2,3,4,9)             18.0534         estimate D2E/DX2                !
 ! D15   D(18,3,4,5)           -44.4236         estimate D2E/DX2                !
 ! D16   D(18,3,4,9)           136.1375         estimate D2E/DX2                !
 ! D17   D(3,4,5,6)            179.958          estimate D2E/DX2                !
 ! D18   D(3,4,5,19)            -0.0446         estimate D2E/DX2                !
 ! D19   D(9,4,5,6)             -0.5691         estimate D2E/DX2                !
 ! D20   D(9,4,5,19)           179.4282         estimate D2E/DX2                !
 ! D21   D(3,4,9,8)            179.9982         estimate D2E/DX2                !
 ! D22   D(3,4,9,23)             0.4043         estimate D2E/DX2                !
 ! D23   D(5,4,9,8)              0.5504         estimate D2E/DX2                !
 ! D24   D(5,4,9,23)          -179.0435         estimate D2E/DX2                !
 ! D25   D(4,5,6,7)              0.2217         estimate D2E/DX2                !
 ! D26   D(4,5,6,20)          -179.7526         estimate D2E/DX2                !
 ! D27   D(19,5,6,7)          -179.7756         estimate D2E/DX2                !
 ! D28   D(19,5,6,20)            0.2502         estimate D2E/DX2                !
 ! D29   D(5,6,7,8)              0.1668         estimate D2E/DX2                !
 ! D30   D(5,6,7,21)          -179.9334         estimate D2E/DX2                !
 ! D31   D(20,6,7,8)          -179.8589         estimate D2E/DX2                !
 ! D32   D(20,6,7,21)            0.0409         estimate D2E/DX2                !
 ! D33   D(6,7,8,9)             -0.1861         estimate D2E/DX2                !
 ! D34   D(6,7,8,22)           179.7793         estimate D2E/DX2                !
 ! D35   D(21,7,8,9)           179.9141         estimate D2E/DX2                !
 ! D36   D(21,7,8,22)           -0.1206         estimate D2E/DX2                !
 ! D37   D(7,8,9,4)             -0.183          estimate D2E/DX2                !
 ! D38   D(7,8,9,23)           179.4047         estimate D2E/DX2                !
 ! D39   D(22,8,9,4)           179.8516         estimate D2E/DX2                !
 ! D40   D(22,8,9,23)           -0.5606         estimate D2E/DX2                !
 ! D41   D(2,10,11,12)        -179.8375         estimate D2E/DX2                !
 ! D42   D(2,10,11,24)           0.8657         estimate D2E/DX2                !
 ! D43   D(16,10,11,12)          0.2157         estimate D2E/DX2                !
 ! D44   D(16,10,11,24)       -179.0811         estimate D2E/DX2                !
 ! D45   D(2,10,16,15)         179.7729         estimate D2E/DX2                !
 ! D46   D(2,10,16,30)          -0.9441         estimate D2E/DX2                !
 ! D47   D(11,10,16,15)         -0.2805         estimate D2E/DX2                !
 ! D48   D(11,10,16,30)        179.0025         estimate D2E/DX2                !
 ! D49   D(10,11,12,13)          0.321          estimate D2E/DX2                !
 ! D50   D(10,11,12,25)       -179.4169         estimate D2E/DX2                !
 ! D51   D(24,11,12,13)        179.605          estimate D2E/DX2                !
 ! D52   D(24,11,12,25)         -0.133          estimate D2E/DX2                !
 ! D53   D(11,12,13,14)       -178.848          estimate D2E/DX2                !
 ! D54   D(11,12,13,15)         -0.7767         estimate D2E/DX2                !
 ! D55   D(25,12,13,14)          0.8917         estimate D2E/DX2                !
 ! D56   D(25,12,13,15)        178.963          estimate D2E/DX2                !
 ! D57   D(12,13,14,26)        -22.7167         estimate D2E/DX2                !
 ! D58   D(12,13,14,27)         97.3769         estimate D2E/DX2                !
 ! D59   D(12,13,14,28)       -142.6154         estimate D2E/DX2                !
 ! D60   D(15,13,14,26)        159.2457         estimate D2E/DX2                !
 ! D61   D(15,13,14,27)        -80.6607         estimate D2E/DX2                !
 ! D62   D(15,13,14,28)         39.347          estimate D2E/DX2                !
 ! D63   D(12,13,15,16)          0.7118         estimate D2E/DX2                !
 ! D64   D(12,13,15,29)       -179.0189         estimate D2E/DX2                !
 ! D65   D(14,13,15,16)        178.7908         estimate D2E/DX2                !
 ! D66   D(14,13,15,29)         -0.9399         estimate D2E/DX2                !
 ! D67   D(13,15,16,10)         -0.1909         estimate D2E/DX2                !
 ! D68   D(13,15,16,30)       -179.461          estimate D2E/DX2                !
 ! D69   D(29,15,16,10)        179.5375         estimate D2E/DX2                !
 ! D70   D(29,15,16,30)          0.2674         estimate D2E/DX2                !
 --------------------------------------------------------------------------------
 Trust Radius=3.00D-01 FncErr=1.00D-07 GrdErr=1.00D-06 EigMax=2.50D+02 EigMin=1.00D-04
 Number of steps in this run=    162 maximum allowed number of steps=    180.
 GradGradGradGradGradGradGradGradGradGradGradGradGradGradGradGradGradGrad

                          Input orientation:                          
 ---------------------------------------------------------------------
 Center     Atomic      Atomic             Coordinates (Angstroms)
 Number     Number       Type             X           Y           Z
 ---------------------------------------------------------------------
      1          8           0        0.336190    2.009520    0.262690
      2         16           0        0.060490    0.845720   -0.646590
      3          7           0        0.872500   -0.595000   -0.226600
      4          6           0        2.218130   -0.495300    0.130900
      5          6           0        3.012910   -1.649340    0.122090
      6          6           0        4.343300   -1.598180    0.466040
      7          6           0        4.920740   -0.399040    0.833060
      8          6           0        4.158810    0.751630    0.858020
      9          6           0        2.829220    0.706000    0.514880
     10          6           0       -1.590400    0.265840   -0.240650
     11          6           0       -2.063860    0.402920    1.041800
     12          6           0       -3.330500   -0.044190    1.359330
     13          6           0       -4.131440   -0.639020    0.394690
     14          6           0       -5.507180   -1.100060    0.724200
     15          6           0       -3.640030   -0.760070   -0.897050
     16          6           0       -2.373510   -0.310690   -1.211440
     17          8           0        0.148630    0.952770   -2.142640
     18          1           0        0.704410   -1.151450   -1.035820
     19          1           0        2.559760   -2.583060   -0.160770
     20          1           0        4.937450   -2.497000    0.448700
     21          1           0        5.963710   -0.361670    1.101060
     22          1           0        4.607050    1.687850    1.147690
     23          1           0        2.233730    1.599910    0.543490
     24          1           0       -1.439130    0.871430    1.784600
     25          1           0       -3.707380    0.070470    2.360940
     26          1           0       -5.618200   -1.280160    1.793790
     27          1           0       -6.245520   -0.353520    0.430360
     28          1           0       -5.742840   -2.029940    0.205790
     29          1           0       -4.259160   -1.205450   -1.656540
     30          1           0       -1.989490   -0.394100   -2.214910
 ---------------------------------------------------------------------
                    Distance matrix (angstroms):
                    1          2          3          4          5
     1  O    0.000000
     2  S    1.502408   0.000000
     3  N    2.703804   1.706290   0.000000
     4  C    3.135792   2.656734   1.395875   0.000000
     5  C    4.535621   3.941190   2.411342   1.401271   0.000000
     6  C    5.395719   5.055003   3.678665   2.417646   1.375084
     7  C    5.210046   5.230757   4.189216   2.793993   2.389256
     8  C    4.068062   4.366799   3.713441   2.418631   2.760315
     9  C    2.824529   3.005728   2.463970   1.401425   2.394922
    10  C    2.646794   1.796242   2.609046   3.901575   4.998996
    11  C    2.991390   2.749472   3.350656   4.469002   5.552588
    12  C    4.343381   4.039117   4.525900   5.700863   6.659288
    13  C    5.195374   4.567384   5.042554   6.356672   7.220581
    14  C    6.635319   6.055087   6.469886   7.771625   8.558982
    15  C    4.982565   4.041675   4.565050   5.953555   6.789040
    16  C    3.859910   2.753306   3.404016   4.787391   5.708223
    17  O    2.633916   1.502463   2.567253   3.398341   4.483757
    18  H    3.437069   2.134203   0.996357   2.020672   2.630175
    19  H    5.120095   4.270703   2.608364   2.135538   1.075727
    20  H    6.443207   6.013167   4.538442   3.391534   2.128158
    21  H    6.163959   6.273761   5.266644   3.871490   3.365070
    22  H    4.373436   4.959822   4.587695   3.392189   3.837965
    23  H    1.961450   2.589993   2.695110   2.135504   3.367837
    24  H    2.600619   2.856607   3.396907   4.240074   5.379487
    25  H    4.951063   4.882939   5.302218   6.356480   7.289204
    26  H    6.972878   6.536233   6.832321   8.049179   8.799258
    27  H    6.995068   6.508745   7.152351   8.470133   9.353754
    28  H    7.298978   6.532581   6.782974   8.107883   8.764418
    29  H    5.927623   4.887399   5.362025   6.756814   7.499571
    30  H    4.162292   2.863424   3.490662   4.818416   5.662261
                    6          7          8          9         10
     6  C    0.000000
     7  C    1.380608   0.000000
     8  C    2.389412   1.380290   0.000000
     9  C    2.757548   2.386799   1.373913   0.000000
    10  C    6.259615   6.632485   5.873371   4.505287   0.000000
    11  C    6.737032   7.033587   6.235142   4.930693   1.373912
    12  C    7.880359   8.275617   7.548139   6.262430   2.384115
    13  C    8.529144   9.065965   8.418838   7.090438   2.771157
    14  C    9.866444  10.452023   9.842664   8.532364   4.258848
    15  C    8.142113   8.741305   8.135565   6.781895   2.384184
    16  C    7.041811   7.575874   6.934147   5.575145   1.374075
    17  O    5.559480   5.784048   5.012580   3.782707   2.667145
    18  H    3.961903   4.672930   4.375068   3.220188   2.811967
    19  H    2.131641   3.366284   3.836020   3.368535   5.034525
    20  H    1.077586   2.132944   3.365623   3.835130   7.121890
    21  H    2.134932   1.077500   2.134519   3.362819   7.697956
    22  H    3.366334   2.133660   1.077653   2.127242   6.508301
    23  H    3.831979   3.361499   2.127073   1.074478   4.125359
    24  H    6.424490   6.554958   5.675371   4.456273   2.119259
    25  H    8.437327   8.774925   8.037393   6.821948   3.359768
    26  H   10.054628  10.619258  10.029644   8.771508   4.769930
    27  H   10.661780  11.173612  10.471596   9.136774   4.743838
    28  H   10.098731  10.805797  10.305591   9.003395   4.765781
    29  H    8.869154   9.545626   9.000855   7.655967   3.360315
    30  H    6.981513   7.552577   6.968299   5.646409   2.119551
                   11         12         13         14         15
    11  C    0.000000
    12  C    1.380257   0.000000
    13  C    2.404013   1.387753   0.000000
    14  C    3.770447   2.501237   1.487883   0.000000
    15  C    2.756084   2.387372   1.387346   2.496056   0.000000
    16  C    2.383739   2.756032   2.403700   3.766921   1.380165
    17  O    3.916389   5.036077   5.224063   6.664913   4.340422
    18  H    3.794192   4.821127   5.068963   6.456327   4.364240
    19  H    5.633836   6.591792   6.989992   8.249726   6.504060
    20  H    7.601292   8.672054   9.257417  10.541235   8.854441
    21  H    8.064117   9.303216  10.123633  11.500807   9.817484
    22  H    6.794358   8.127082   9.074279  10.499973   8.842375
    23  H    4.488917   5.859122   6.749099   8.200255   6.491973
    24  H    1.077748   2.143944   3.385534   4.643302   3.833667
    25  H    2.133497   1.076294   2.132919   2.699692   3.362861
    26  H    4.003946   2.636276   2.139859   1.090314   3.379981
    27  H    4.293290   3.075063   2.133569   1.090326   2.952267
    28  H    4.489166   3.330652   2.137043   1.090395   2.692700
    29  H    3.832393   3.362500   2.131830   2.690090   1.076341
    30  H    3.353645   3.833528   3.384959   4.637983   2.143588
                   16         17         18         19         20
    16  C    0.000000
    17  O    2.970632   0.000000
    18  H    3.195514   2.441656   0.000000
    19  H    5.532154   4.716296   2.501508   0.000000
    20  H    7.809363   6.445832   4.683261   2.456068   0.000000
    21  H    8.652138   6.787083   5.731513   4.256015   2.457319
    22  H    7.634650   5.589644   5.297163   4.913668   4.255669
    23  H    5.287422   3.461463   3.521792   4.254353   4.909558
    24  H    3.353614   4.236840   4.079409   5.631082   7.334284
    25  H    3.832283   5.994122   5.700435   7.257912   9.218549
    26  H    4.527614   7.330606   6.928106   8.508636  10.710355
    27  H    4.205925   7.015118   7.147580   9.102375  11.386556
    28  H    4.039399   7.008645   6.624226   8.329074  10.693257
    29  H    2.134101   4.931817   5.002523   7.115673   9.522488
    30  H    1.077674   2.528011   3.036598   5.450386   7.713592
                   21         22         23         24         25
    21  H    0.000000
    22  H    2.458299   0.000000
    23  H    4.251051   2.450600   0.000000
    24  H    7.535901   6.134206   3.944735   0.000000
    25  H    9.762378   8.556731   6.398367   2.473593   0.000000
    26  H   11.638906  10.666877   8.456409   4.700431   2.407715
    27  H   12.227641  11.066166   8.702090   5.141581   3.216996
    28  H   11.858665  11.037634   8.770149   5.425174   3.633110
    29  H   10.621836   9.738818   7.407280   4.909933   4.251186
    30  H    8.616850   7.691290   5.424061   4.230903   4.909722
                   26         27         28         29         30
    26  H    0.000000
    27  H    1.763841   0.000000
    28  H    1.760525   1.764512   0.000000
    29  H    3.709090   3.004424   2.519794   0.000000
    30  H    5.479262   5.011276   4.756406   2.474160   0.000000
 Stoichiometry    C13H13NO2S
 Framework group  C1[X(C13H13NO2S)]
 Deg. of freedom    84
 Full point group                 C1      NOp   1
 Largest Abelian subgroup         C1      NOp   1
 Largest concise Abelian subgroup C1      NOp   1
                         Standard orientation:                         
 ---------------------------------------------------------------------
 Center     Atomic      Atomic             Coordinates (Angstroms)
 Number     Number       Type             X           Y           Z
 ---------------------------------------------------------------------
      1          8           0        0.420564    1.682211    1.159060
      2         16           0        0.092023    1.083844   -0.179315
      3          7           0        0.882273   -0.390879   -0.514165
      4          6           0        2.239569   -0.480068   -0.200704
      5          6           0        3.006895   -1.500175   -0.778765
      6          6           0        4.347451   -1.625746   -0.499483
      7          6           0        4.962753   -0.743545    0.366083
      8          6           0        4.228641    0.265774    0.955621
      9          6           0        2.889036    0.395840    0.679620
     10          6           0       -1.559469    0.392632   -0.033407
     11          6           0       -1.992567   -0.085498    1.179627
     12          6           0       -3.259544   -0.620622    1.295902
     13          6           0       -4.101416   -0.687087    0.194679
     14          6           0       -5.477396   -1.239384    0.318942
     15          6           0       -3.650277   -0.190566   -1.019680
     16          6           0       -2.383277    0.345088   -1.132116
     17          8           0        0.139561    1.880477   -1.452307
     18          1           0        0.678176   -0.500830   -1.483177
     19          1           0        2.524350   -2.188457   -1.450038
     20          1           0        4.919934   -2.415159   -0.958048
     21          1           0        6.013582   -0.843632    0.582294
     22          1           0        4.706533    0.953097    1.634254
     23          1           0        2.315424    1.175635    1.145874
     24          1           0       -1.336081   -0.025126    2.032225
     25          1           0       -3.604720   -0.987290    2.247120
     26          1           0       -5.561749   -1.900026    1.182204
     27          1           0       -6.206436   -0.437236    0.436713
     28          1           0       -5.749283   -1.815129   -0.566245
     29          1           0       -4.301111   -0.222718   -1.876355
     30          1           0       -2.030297    0.740168   -2.070570
 ---------------------------------------------------------------------
 Rotational constants (GHZ):           1.1202195           0.2076045           0.2007008
 Standard basis: def2SVP (5D, 7F)
 There are   324 symmetry adapted cartesian basis functions of A   symmetry.
 There are   307 symmetry adapted basis functions of A   symmetry.
   307 basis functions,   528 primitive gaussians,   324 cartesian basis functions
    65 alpha electrons       65 beta electrons
       nuclear repulsion energy      1293.5081514877 Hartrees.
 NAtoms=   30 NActive=   30 NUniq=   30 SFac= 1.00D+00 NAtFMM=   60 NAOKFM=F Big=F
 Integral buffers will be    131072 words long.
 Raffenetti 2 integral format.
 Two-electron integral symmetry is turned on.
 Nuclear repulsion after empirical dispersion term =     1293.4900727019 Hartrees.
 One-electron integrals computed using PRISM.
   1 Symmetry operations used in ECPInt.
 ECPInt:  NShTT=   10296 NPrTT=   38220 LenC2=    9185 LenP2D=   24072.
 LDataN:  DoStor=T MaxTD1= 4 Len=   56
 NBasis=   307 RedAO= T EigKep=  2.44D-04  NBF=   307
 NBsUse=   307 1.00D-06 EigRej= -1.00D+00 NBFU=   307
 ExpMin= 1.22D-01 ExpMax= 9.18D+03 ExpMxC= 1.38D+03 IAcc=3 IRadAn=         5 AccDes= 0.00D+00
 Harris functional with IExCor= 4639 and IRadAn=       5 diagonalized for initial guess.
 HarFok:  IExCor= 4639 AccDes= 0.00D+00 IRadAn=         5 IDoV= 1 UseB2=F ITyADJ=14
 ICtDFT=  3500011 ScaDFX=  1.000000  1.000000  1.000000  1.000000
 FoFCou: FMM=F IPFlag=           0 FMFlag=      100000 FMFlg1=           0
         NFxFlg=           0 DoJE=T BraDBF=F KetDBF=T FulRan=T
         wScrn=  0.000000 ICntrl=       500 IOpCl=  0 I1Cent=   200000004 NGrid=           0
         NMat0=    1 NMatS0=      1 NMatT0=    0 NMatD0=    1 NMtDS0=    0 NMtDT0=    0
 Petite list used in FoFCou.
 Requested convergence on RMS density matrix=1.00D-08 within 128 cycles.
 Requested convergence on MAX density matrix=1.00D-06.
 Requested convergence on             energy=1.00D-06.
 No special actions if energy rises.
 Integral accuracy reduced to 1.0D-05 until final iterations.
 Initial convergence to 1.0D-05 achieved.  Increase integral accuracy.
 SCF Done:  E(RwB97XD) =  -1105.63900493     A.U. after   15 cycles
            NFock= 15  Conv=0.98D-08     -V/T= 2.0070

 **********************************************************************

            Population analysis using the SCF Density.

 **********************************************************************

 Orbital symmetries:
       Occupied  (A) (A) (A) (A) (A) (A) (A) (A) (A) (A) (A) (A)
                 (A) (A) (A) (A) (A) (A) (A) (A) (A) (A) (A) (A)
                 (A) (A) (A) (A) (A) (A) (A) (A) (A) (A) (A) (A)
                 (A) (A) (A) (A) (A) (A) (A) (A) (A) (A) (A) (A)
                 (A) (A) (A) (A) (A) (A) (A) (A) (A) (A) (A) (A)
                 (A) (A) (A) (A) (A)
       Virtual   (A) (A) (A) (A) (A) (A) (A) (A) (A) (A) (A) (A)
                 (A) (A) (A) (A) (A) (A) (A) (A) (A) (A) (A) (A)
                 (A) (A) (A) (A) (A) (A) (A) (A) (A) (A) (A) (A)
                 (A) (A) (A) (A) (A) (A) (A) (A) (A) (A) (A) (A)
                 (A) (A) (A) (A) (A) (A) (A) (A) (A) (A) (A) (A)
                 (A) (A) (A) (A) (A) (A) (A) (A) (A) (A) (A) (A)
                 (A) (A) (A) (A) (A) (A) (A) (A) (A) (A) (A) (A)
                 (A) (A) (A) (A) (A) (A) (A) (A) (A) (A) (A) (A)
                 (A) (A) (A) (A) (A) (A) (A) (A) (A) (A) (A) (A)
                 (A) (A) (A) (A) (A) (A) (A) (A) (A) (A) (A) (A)
                 (A) (A) (A) (A) (A) (A) (A) (A) (A) (A) (A) (A)
                 (A) (A) (A) (A) (A) (A) (A) (A) (A) (A) (A) (A)
                 (A) (A) (A) (A) (A) (A) (A) (A) (A) (A) (A) (A)
                 (A) (A) (A) (A) (A) (A) (A) (A) (A) (A) (A) (A)
                 (A) (A) (A) (A) (A) (A) (A) (A) (A) (A) (A) (A)
                 (A) (A) (A) (A) (A) (A) (A) (A) (A) (A) (A) (A)
                 (A) (A) (A) (A) (A) (A) (A) (A) (A) (A) (A) (A)
                 (A) (A) (A) (A) (A) (A) (A) (A) (A) (A) (A) (A)
                 (A) (A) (A) (A) (A) (A) (A) (A) (A) (A) (A) (A)
                 (A) (A) (A) (A) (A) (A) (A) (A) (A) (A) (A) (A)
                 (A) (A)
 The electronic state is 1-A.
 Alpha  occ. eigenvalues --  -89.25757 -19.26686 -19.25657 -14.49684 -10.35235
 Alpha  occ. eigenvalues --  -10.33696 -10.32843 -10.32526 -10.32412 -10.31679
 Alpha  occ. eigenvalues --  -10.31661 -10.30943 -10.30256 -10.30126 -10.29779
 Alpha  occ. eigenvalues --  -10.29313 -10.29066  -8.27596  -6.23010  -6.22924
 Alpha  occ. eigenvalues --   -6.22796  -1.20557  -1.09176  -1.05506  -0.98902
 Alpha  occ. eigenvalues --   -0.95156  -0.90491  -0.86616  -0.84968  -0.84556
 Alpha  occ. eigenvalues --   -0.81247  -0.75837  -0.72801  -0.71670  -0.70345
 Alpha  occ. eigenvalues --   -0.68178  -0.64626  -0.63546  -0.60197  -0.59088
 Alpha  occ. eigenvalues --   -0.58239  -0.56494  -0.55006  -0.54037  -0.53393
 Alpha  occ. eigenvalues --   -0.53116  -0.53051  -0.52666  -0.51082  -0.49610
 Alpha  occ. eigenvalues --   -0.48748  -0.47650  -0.46434  -0.45617  -0.44467
 Alpha  occ. eigenvalues --   -0.44182  -0.43845  -0.41549  -0.40181  -0.39269
 Alpha  occ. eigenvalues --   -0.38263  -0.35608  -0.34912  -0.33681  -0.30409
 Alpha virt. eigenvalues --    0.02589   0.04073   0.06054   0.06566   0.10235
 Alpha virt. eigenvalues --    0.12795   0.14123   0.15099   0.15474   0.15702
 Alpha virt. eigenvalues --    0.16851   0.17511   0.18649   0.19404   0.20620
 Alpha virt. eigenvalues --    0.21109   0.21264   0.22619   0.23787   0.24141
 Alpha virt. eigenvalues --    0.25032   0.25668   0.28616   0.29600   0.32608
 Alpha virt. eigenvalues --    0.35623   0.36295   0.36851   0.36921   0.37705
 Alpha virt. eigenvalues --    0.38250   0.39451   0.40199   0.40771   0.43540
 Alpha virt. eigenvalues --    0.46716   0.47167   0.47599   0.48807   0.48911
 Alpha virt. eigenvalues --    0.49686   0.51058   0.52018   0.53018   0.54004
 Alpha virt. eigenvalues --    0.54169   0.55314   0.55570   0.55718   0.57075
 Alpha virt. eigenvalues --    0.58139   0.58554   0.58857   0.60412   0.61938
 Alpha virt. eigenvalues --    0.62307   0.63621   0.64274   0.65050   0.65752
 Alpha virt. eigenvalues --    0.68573   0.69916   0.70075   0.71000   0.71438
 Alpha virt. eigenvalues --    0.72020   0.72288   0.72795   0.73648   0.74567
 Alpha virt. eigenvalues --    0.74855   0.75372   0.75680   0.76249   0.76523
 Alpha virt. eigenvalues --    0.77025   0.78127   0.78746   0.79002   0.80179
 Alpha virt. eigenvalues --    0.81583   0.81801   0.82668   0.83095   0.84083
 Alpha virt. eigenvalues --    0.85061   0.85744   0.86113   0.88445   0.89803
 Alpha virt. eigenvalues --    0.90488   0.91794   0.93496   0.94745   0.97113
 Alpha virt. eigenvalues --    0.98521   0.99526   1.00615   1.02706   1.04992
 Alpha virt. eigenvalues --    1.08280   1.10019   1.11412   1.13447   1.14209
 Alpha virt. eigenvalues --    1.15209   1.17215   1.20103   1.21884   1.23474
 Alpha virt. eigenvalues --    1.23793   1.26761   1.27122   1.27799   1.28959
 Alpha virt. eigenvalues --    1.29870   1.31118   1.31776   1.33100   1.33554
 Alpha virt. eigenvalues --    1.34387   1.35229   1.36060   1.37351   1.37960
 Alpha virt. eigenvalues --    1.38786   1.39927   1.42636   1.44767   1.49154
 Alpha virt. eigenvalues --    1.54767   1.55632   1.58266   1.59970   1.61974
 Alpha virt. eigenvalues --    1.62318   1.65048   1.69352   1.75259   1.75948
 Alpha virt. eigenvalues --    1.76815   1.77587   1.78867   1.80128   1.80655
 Alpha virt. eigenvalues --    1.82150   1.82792   1.83628   1.83724   1.84290
 Alpha virt. eigenvalues --    1.85242   1.86440   1.86544   1.87577   1.87798
 Alpha virt. eigenvalues --    1.88185   1.89056   1.90219   1.91643   1.92270
 Alpha virt. eigenvalues --    1.93395   1.96466   1.98020   2.00379   2.02202
 Alpha virt. eigenvalues --    2.04176   2.04580   2.05170   2.06054   2.08280
 Alpha virt. eigenvalues --    2.10309   2.10730   2.13071   2.14011   2.15893
 Alpha virt. eigenvalues --    2.18324   2.20270   2.20738   2.21504   2.23302
 Alpha virt. eigenvalues --    2.24768   2.25133   2.29466   2.30206   2.31162
 Alpha virt. eigenvalues --    2.33610   2.35008   2.36020   2.38434   2.38820
 Alpha virt. eigenvalues --    2.40835   2.42157   2.43184   2.45122   2.45406
 Alpha virt. eigenvalues --    2.45608   2.51594   2.55360   2.56376   2.56955
 Alpha virt. eigenvalues --    2.59310   2.62090   2.68221   2.68638   2.71140
 Alpha virt. eigenvalues --    2.71923   2.72830   2.73469   2.73722   2.74336
 Alpha virt. eigenvalues --    2.74832   2.75713   2.76593   2.78582   2.82271
 Alpha virt. eigenvalues --    2.82967   2.83087   2.84478   2.85392   2.86545
 Alpha virt. eigenvalues --    2.91491   2.94382   2.95041   2.97294   2.98752
 Alpha virt. eigenvalues --    3.00566   3.00990   3.02234   3.02771   3.04801
 Alpha virt. eigenvalues --    3.06649   3.08421   3.22537   3.23472   3.26052
 Alpha virt. eigenvalues --    3.32547   3.33641   3.34772   3.45437   3.47243
 Alpha virt. eigenvalues --    3.69473   3.78784
          Condensed to atoms (all electrons):
               1          2          3          4          5          6
     1  O    8.147208   0.398349  -0.032920  -0.006890  -0.000135   0.000007
     2  S    0.398349  13.959441   0.206798  -0.040304  -0.000676  -0.000179
     3  N   -0.032920   0.206798   6.824954   0.259512  -0.064916   0.006726
     4  C   -0.006890  -0.040304   0.259512   5.208551   0.265416   0.106677
     5  C   -0.000135  -0.000676  -0.064916   0.265416   5.127580   0.314295
     6  C    0.000007  -0.000179   0.006726   0.106677   0.314295   5.006497
     7  C   -0.000038   0.000040  -0.000544  -0.161790   0.084610   0.286730
     8  C    0.002448  -0.001415   0.008374   0.107223  -0.146175   0.096237
     9  C   -0.018863   0.001889  -0.091297   0.257442   0.074678  -0.145848
    10  C   -0.062032   0.208311  -0.076554   0.008303  -0.000563  -0.000003
    11  C    0.006545  -0.036695   0.007589   0.000063   0.000048  -0.000000
    12  C    0.001226   0.000765  -0.000565   0.000020   0.000000  -0.000000
    13  C   -0.000031   0.000830   0.000044   0.000004  -0.000000  -0.000000
    14  C    0.000000   0.000008  -0.000000   0.000000   0.000000   0.000000
    15  C    0.000009   0.002158  -0.000342  -0.000032   0.000001   0.000000
    16  C    0.002348  -0.021123  -0.009220  -0.000274  -0.000025   0.000000
    17  O   -0.027805   0.423474  -0.062914   0.007683  -0.000345  -0.000004
    18  H    0.002570  -0.003928   0.324048  -0.004302  -0.013473   0.000325
    19  H    0.000003  -0.000132  -0.009475  -0.080507   0.450838  -0.059946
    20  H   -0.000000   0.000004  -0.000115   0.015513  -0.069516   0.453718
    21  H    0.000000   0.000000   0.000011  -0.001420   0.014391  -0.070412
    22  H    0.000008  -0.000005  -0.000102   0.015189  -0.001941   0.014113
    23  H    0.034231  -0.007464  -0.014629  -0.071712   0.012589  -0.002120
    24  H    0.012500  -0.007701   0.000550   0.000092   0.000015  -0.000000
    25  H   -0.000009  -0.000148   0.000001  -0.000001   0.000000   0.000000
    26  H    0.000000  -0.000000  -0.000000   0.000000   0.000000  -0.000000
    27  H   -0.000000  -0.000000   0.000000  -0.000000   0.000000   0.000000
    28  H    0.000000   0.000000  -0.000000   0.000000  -0.000000  -0.000000
    29  H    0.000001  -0.000165   0.000006  -0.000000   0.000000   0.000000
    30  H    0.000212  -0.009492   0.000333  -0.000175   0.000004   0.000000
               7          8          9         10         11         12
     1  O   -0.000038   0.002448  -0.018863  -0.062032   0.006545   0.001226
     2  S    0.000040  -0.001415   0.001889   0.208311  -0.036695   0.000765
     3  N   -0.000544   0.008374  -0.091297  -0.076554   0.007589  -0.000565
     4  C   -0.161790   0.107223   0.257442   0.008303   0.000063   0.000020
     5  C    0.084610  -0.146175   0.074678  -0.000563   0.000048   0.000000
     6  C    0.286730   0.096237  -0.145848  -0.000003  -0.000000  -0.000000
     7  C    5.103008   0.272896   0.088852   0.000002   0.000000   0.000000
     8  C    0.272896   5.064912   0.249640  -0.000030   0.000000  -0.000000
     9  C    0.088852   0.249640   5.231673  -0.000173   0.000017   0.000000
    10  C    0.000002  -0.000030  -0.000173   5.750558   0.207092   0.087343
    11  C    0.000000   0.000000   0.000017   0.207092   5.074555   0.296644
    12  C    0.000000  -0.000000   0.000000   0.087343   0.296644   5.078713
    13  C    0.000000  -0.000000  -0.000000  -0.181450   0.090241   0.291172
    14  C    0.000000   0.000000   0.000000   0.000658   0.010359  -0.075910
    15  C   -0.000000   0.000000   0.000000   0.084323  -0.120967   0.050442
    16  C   -0.000000   0.000000  -0.000060   0.263457   0.030095  -0.120746
    17  O    0.000002  -0.000171  -0.000562  -0.068793   0.004524   0.000006
    18  H   -0.000037  -0.000072   0.004301  -0.003117  -0.001385   0.000003
    19  H    0.014919  -0.002319   0.016808   0.000031   0.000009  -0.000000
    20  H   -0.069158   0.013798  -0.001869  -0.000000  -0.000000   0.000000
    21  H    0.451521  -0.067933   0.014818   0.000000   0.000000   0.000000
    22  H   -0.073837   0.457013  -0.066854  -0.000001   0.000000  -0.000000
    23  H    0.013595  -0.049937   0.448358   0.001664  -0.000051  -0.000000
    24  H    0.000000  -0.000008  -0.000071  -0.076688   0.450259  -0.047921
    25  H   -0.000000   0.000000   0.000000   0.016208  -0.065882   0.459775
    26  H    0.000000  -0.000000  -0.000000   0.000003   0.000792  -0.009929
    27  H   -0.000000   0.000000  -0.000000   0.000074  -0.000314  -0.002377
    28  H    0.000000  -0.000000  -0.000000   0.000038  -0.000579   0.006545
    29  H    0.000000  -0.000000  -0.000000   0.016626  -0.002016   0.014444
    30  H   -0.000000   0.000000  -0.000002  -0.071730   0.012538  -0.001818
              13         14         15         16         17         18
     1  O   -0.000031   0.000000   0.000009   0.002348  -0.027805   0.002570
     2  S    0.000830   0.000008   0.002158  -0.021123   0.423474  -0.003928
     3  N    0.000044  -0.000000  -0.000342  -0.009220  -0.062914   0.324048
     4  C    0.000004   0.000000  -0.000032  -0.000274   0.007683  -0.004302
     5  C   -0.000000   0.000000   0.000001  -0.000025  -0.000345  -0.013473
     6  C   -0.000000   0.000000   0.000000   0.000000  -0.000004   0.000325
     7  C    0.000000   0.000000  -0.000000  -0.000000   0.000002  -0.000037
     8  C   -0.000000   0.000000   0.000000   0.000000  -0.000171  -0.000072
     9  C   -0.000000   0.000000   0.000000  -0.000060  -0.000562   0.004301
    10  C   -0.181450   0.000658   0.084323   0.263457  -0.068793  -0.003117
    11  C    0.090241   0.010359  -0.120967   0.030095   0.004524  -0.001385
    12  C    0.291172  -0.075910   0.050442  -0.120746   0.000006   0.000003
    13  C    5.262813   0.407059   0.282647   0.097211  -0.000035   0.000000
    14  C    0.407059   4.548905  -0.077579   0.009169   0.000000  -0.000000
    15  C    0.282647  -0.077579   5.102982   0.275785   0.001514   0.000172
    16  C    0.097211   0.009169   0.275785   5.075688   0.004509   0.005072
    17  O   -0.000035   0.000000   0.001514   0.004509   8.169394   0.010854
    18  H    0.000000  -0.000000   0.000172   0.005072   0.010854   0.517577
    19  H    0.000000  -0.000000  -0.000001  -0.000020  -0.000009   0.003297
    20  H   -0.000000  -0.000000  -0.000000   0.000000  -0.000000  -0.000024
    21  H    0.000000  -0.000000   0.000000   0.000000   0.000000  -0.000001
    22  H    0.000000  -0.000000   0.000000   0.000000  -0.000000   0.000014
    23  H    0.000001  -0.000000  -0.000002  -0.000084   0.000652  -0.000649
    24  H    0.014143  -0.000234  -0.001607   0.011733   0.000238  -0.000071
    25  H   -0.074583  -0.014564   0.014675  -0.002048   0.000000   0.000001
    26  H   -0.018476   0.392782   0.008209  -0.000535   0.000000  -0.000000
    27  H   -0.011714   0.389784  -0.004395  -0.000089  -0.000000  -0.000000
    28  H   -0.018759   0.391681  -0.007874   0.000710   0.000000   0.000000
    29  H   -0.077803  -0.012600   0.461357  -0.066399  -0.000008  -0.000005
    30  H    0.013548  -0.000211  -0.049401   0.445317   0.015923   0.000865
              19         20         21         22         23         24
     1  O    0.000003  -0.000000   0.000000   0.000008   0.034231   0.012500
     2  S   -0.000132   0.000004   0.000000  -0.000005  -0.007464  -0.007701
     3  N   -0.009475  -0.000115   0.000011  -0.000102  -0.014629   0.000550
     4  C   -0.080507   0.015513  -0.001420   0.015189  -0.071712   0.000092
     5  C    0.450838  -0.069516   0.014391  -0.001941   0.012589   0.000015
     6  C   -0.059946   0.453718  -0.070412   0.014113  -0.002120  -0.000000
     7  C    0.014919  -0.069158   0.451521  -0.073837   0.013595   0.000000
     8  C   -0.002319   0.013798  -0.067933   0.457013  -0.049937  -0.000008
     9  C    0.016808  -0.001869   0.014818  -0.066854   0.448358  -0.000071
    10  C    0.000031  -0.000000   0.000000  -0.000001   0.001664  -0.076688
    11  C    0.000009  -0.000000   0.000000   0.000000  -0.000051   0.450259
    12  C   -0.000000   0.000000   0.000000  -0.000000  -0.000000  -0.047921
    13  C    0.000000  -0.000000   0.000000   0.000000   0.000001   0.014143
    14  C   -0.000000  -0.000000  -0.000000  -0.000000  -0.000000  -0.000234
    15  C   -0.000001  -0.000000   0.000000   0.000000  -0.000002  -0.001607
    16  C   -0.000020   0.000000   0.000000   0.000000  -0.000084   0.011733
    17  O   -0.000009  -0.000000   0.000000  -0.000000   0.000652   0.000238
    18  H    0.003297  -0.000024  -0.000001   0.000014  -0.000649  -0.000071
    19  H    0.687414  -0.013181  -0.000234   0.000022  -0.000091   0.000000
    20  H   -0.013181   0.669247  -0.012400  -0.000258   0.000012   0.000000
    21  H   -0.000234  -0.012400   0.673584  -0.012053  -0.000187  -0.000000
    22  H    0.000022  -0.000258  -0.012053   0.665189  -0.012696  -0.000000
    23  H   -0.000091   0.000012  -0.000187  -0.012696   0.607679   0.000002
    24  H    0.000000   0.000000  -0.000000  -0.000000   0.000002   0.624077
    25  H   -0.000000   0.000000  -0.000000  -0.000000  -0.000000  -0.011511
    26  H   -0.000000  -0.000000   0.000000   0.000000  -0.000000   0.000001
    27  H    0.000000   0.000000  -0.000000   0.000000   0.000000   0.000005
    28  H   -0.000000  -0.000000  -0.000000  -0.000000  -0.000000   0.000007
    29  H   -0.000000   0.000000  -0.000000  -0.000000  -0.000000   0.000023
    30  H   -0.000005   0.000000  -0.000000   0.000000  -0.000011  -0.000267
              25         26         27         28         29         30
     1  O   -0.000009   0.000000  -0.000000   0.000000   0.000001   0.000212
     2  S   -0.000148  -0.000000  -0.000000   0.000000  -0.000165  -0.009492
     3  N    0.000001  -0.000000   0.000000  -0.000000   0.000006   0.000333
     4  C   -0.000001   0.000000  -0.000000   0.000000  -0.000000  -0.000175
     5  C    0.000000   0.000000   0.000000  -0.000000   0.000000   0.000004
     6  C    0.000000  -0.000000   0.000000  -0.000000   0.000000   0.000000
     7  C   -0.000000   0.000000  -0.000000   0.000000   0.000000  -0.000000
     8  C    0.000000  -0.000000   0.000000  -0.000000  -0.000000   0.000000
     9  C    0.000000  -0.000000  -0.000000  -0.000000  -0.000000  -0.000002
    10  C    0.016208   0.000003   0.000074   0.000038   0.016626  -0.071730
    11  C   -0.065882   0.000792  -0.000314  -0.000579  -0.002016   0.012538
    12  C    0.459775  -0.009929  -0.002377   0.006545   0.014444  -0.001818
    13  C   -0.074583  -0.018476  -0.011714  -0.018759  -0.077803   0.013548
    14  C   -0.014564   0.392782   0.389784   0.391681  -0.012600  -0.000211
    15  C    0.014675   0.008209  -0.004395  -0.007874   0.461357  -0.049401
    16  C   -0.002048  -0.000535  -0.000089   0.000710  -0.066399   0.445317
    17  O    0.000000   0.000000  -0.000000   0.000000  -0.000008   0.015923
    18  H    0.000001  -0.000000  -0.000000   0.000000  -0.000005   0.000865
    19  H   -0.000000  -0.000000   0.000000  -0.000000  -0.000000  -0.000005
    20  H    0.000000  -0.000000   0.000000  -0.000000   0.000000   0.000000
    21  H   -0.000000   0.000000  -0.000000  -0.000000  -0.000000  -0.000000
    22  H   -0.000000   0.000000   0.000000  -0.000000  -0.000000   0.000000
    23  H   -0.000000  -0.000000   0.000000  -0.000000  -0.000000  -0.000011
    24  H   -0.011511   0.000001   0.000005   0.000007   0.000023  -0.000267
    25  H    0.663238   0.005018   0.000540   0.000198  -0.000221   0.000024
    26  H    0.005018   0.621562  -0.017222  -0.022150   0.000132   0.000007
    27  H    0.000540  -0.017222   0.596349  -0.017027   0.000967   0.000003
    28  H    0.000198  -0.022150  -0.017027   0.617216   0.003794  -0.000004
    29  H   -0.000221   0.000132   0.000967   0.003794   0.665616  -0.011361
    30  H    0.000024   0.000007   0.000003  -0.000004  -0.011361   0.624044
 Mulliken charges:
               1
     1  O   -0.458942
     2  S    0.927362
     3  N   -0.275351
     4  C    0.115720
     5  C   -0.046701
     6  C   -0.006812
     7  C   -0.010772
     8  C   -0.004482
     9  C   -0.062875
    10  C   -0.103557
    11  C    0.036520
    12  C   -0.027832
    13  C   -0.076863
    14  C    0.030694
    15  C   -0.022075
    16  C   -0.000473
    17  O   -0.478127
    18  H    0.157965
    19  H   -0.007421
    20  H    0.014229
    21  H    0.010315
    22  H    0.016201
    23  H    0.040855
    24  H    0.032435
    25  H    0.009291
    26  H    0.039806
    27  H    0.065416
    28  H    0.046205
    29  H    0.007612
    30  H    0.031658
 Sum of Mulliken charges =  -0.00000
 Mulliken charges with hydrogens summed into heavy atoms:
               1
     1  O   -0.458942
     2  S    0.927362
     3  N   -0.117385
     4  C    0.115720
     5  C   -0.054122
     6  C    0.007417
     7  C   -0.000457
     8  C    0.011718
     9  C   -0.022021
    10  C   -0.103557
    11  C    0.068955
    12  C   -0.018541
    13  C   -0.076863
    14  C    0.182120
    15  C   -0.014463
    16  C    0.031186
    17  O   -0.478127
 Electronic spatial extent (au):  <R**2>=           5555.0624
 Charge=             -0.0000 electrons
 Dipole moment (field-independent basis, Debye):
    X=             -2.8103    Y=             -3.6003    Z=             -0.5422  Tot=              4.5993
 Quadrupole moment (field-independent basis, Debye-Ang):
   XX=            -84.7720   YY=           -112.9078   ZZ=           -103.5003
   XY=              1.1040   XZ=              0.3599   YZ=              3.9292
 Traceless Quadrupole moment (field-independent basis, Debye-Ang):
   XX=             15.6214   YY=            -12.5145   ZZ=             -3.1069
   XY=              1.1040   XZ=              0.3599   YZ=              3.9292
 Octapole moment (field-independent basis, Debye-Ang**2):
  XXX=            -41.1872  YYY=             -1.0381  ZZZ=             -2.4608  XYY=              3.5797
  XXY=            -20.7134  XXZ=              7.6954  XZZ=            -16.0793  YZZ=             -8.4990
  YYZ=             -0.9800  XYZ=             16.7654
 Hexadecapole moment (field-independent basis, Debye-Ang**3):
 XXXX=          -5578.4719 YYYY=           -796.0301 ZZZZ=           -571.8918 XXXY=             43.3298
 XXXZ=             66.6245 YYYX=             -3.2697 YYYZ=             21.9632 ZZZX=             -0.3537
 ZZZY=              3.5575 XXYY=          -1138.6871 XXZZ=          -1099.6930 YYZZ=           -241.1894
 XXYZ=             31.6817 YYXZ=            -20.0812 ZZXY=             16.0582
 N-N= 1.293490072702D+03 E-N=-5.175723572011D+03  KE= 1.097923877004D+03
   1 Symmetry operations used in ECPInt.
 ECPInt:  NShTT=   10296 NPrTT=   38220 LenC2=    9185 LenP2D=   24072.
 LDataN:  DoStor=T MaxTD1= 5 Len=  102
 Calling FoFJK, ICntrl=      2127 FMM=F ISym2X=0 I1Cent= 0 IOpClX= 0 NMat=1 NMatS=1 NMatT=0.
 ***** Axes restored to original set *****
 -------------------------------------------------------------------
 Center     Atomic                   Forces (Hartrees/Bohr)
 Number     Number              X              Y              Z
 -------------------------------------------------------------------
      1        8          -0.007242746   -0.044314539   -0.033735215
      2       16          -0.026474839    0.028583706   -0.022679697
      3        7          -0.003676870    0.034358823    0.014856099
      4        6           0.033261343   -0.003578379    0.006638868
      5        6          -0.015604406    0.004865836   -0.003433510
      6        6           0.003508566    0.000295642    0.000805739
      7        6           0.007575510    0.000798790    0.002146840
      8        6           0.004980191   -0.005431212    0.001236084
      9        6          -0.013717181   -0.001565244   -0.002358570
     10        6           0.011726279    0.007983778   -0.005785316
     11        6           0.003083022    0.005387210    0.011707021
     12        6           0.002461242   -0.000635432   -0.002430536
     13        6          -0.004688124   -0.000010080    0.000615767
     14        6          -0.001697797   -0.004096251    0.002811770
     15        6           0.002056000   -0.000032029    0.002040118
     16        6           0.000293370   -0.001972787   -0.012622839
     17        8           0.001088338    0.002296566    0.051964441
     18        1          -0.000762187   -0.019685216   -0.014105462
     19        1          -0.004565354   -0.011887840   -0.003242948
     20        1           0.004942731   -0.009210491   -0.000450155
     21        1           0.010337532    0.000027720    0.002544715
     22        1           0.003059852    0.009425957    0.002423446
     23        1           0.000334162    0.008230530    0.001255606
     24        1           0.005073126    0.004580566    0.007915399
     25        1          -0.002786574    0.001366273    0.011256668
     26        1          -0.001573824   -0.000300983    0.005771624
     27        1          -0.005601042    0.004694345   -0.002059377
     28        1          -0.002589854   -0.004705971   -0.003534858
     29        1          -0.005604288   -0.004991498   -0.009098105
     30        1           0.002803822   -0.000477789   -0.010453618
 -------------------------------------------------------------------
 Cartesian Forces:  Max     0.051964441 RMS     0.012254424

 GradGradGradGradGradGradGradGradGradGradGradGradGradGradGradGradGradGrad
 Berny optimization.
 FormGI is forming the generalized inverse of G from B-inverse, IUseBI=4.
 Internal  Forces:  Max     0.058100485 RMS     0.010703314
 Search for a local minimum.
 Step number   1 out of a maximum of  162
 All quantities printed in internal units (Hartrees-Bohrs-Radians)
 Mixed Optimization -- RFO/linear search
 Second derivative matrix not updated -- first step.
 ITU=  0
     Eigenvalues ---    0.00420   0.00926   0.01213   0.01606   0.01744
     Eigenvalues ---    0.01746   0.01981   0.02118   0.02232   0.02263
     Eigenvalues ---    0.02268   0.02299   0.02308   0.02336   0.02347
     Eigenvalues ---    0.02347   0.02370   0.02385   0.02386   0.02393
     Eigenvalues ---    0.02397   0.02421   0.03451   0.07308   0.07345
     Eigenvalues ---    0.10267   0.11451   0.12041   0.12336   0.15999
     Eigenvalues ---    0.15999   0.16000   0.16000   0.16000   0.16000
     Eigenvalues ---    0.16000   0.16000   0.16000   0.16000   0.16000
     Eigenvalues ---    0.16000   0.17356   0.22000   0.22000   0.22000
     Eigenvalues ---    0.22976   0.23417   0.23457   0.23997   0.24985
     Eigenvalues ---    0.24999   0.25000   0.25000   0.26415   0.33683
     Eigenvalues ---    0.34767   0.34775   0.34776   0.35144   0.36268
     Eigenvalues ---    0.36277   0.36279   0.36288   0.36298   0.36440
     Eigenvalues ---    0.36446   0.36516   0.36670   0.42406   0.43307
     Eigenvalues ---    0.44015   0.44266   0.46311   0.46985   0.47751
     Eigenvalues ---    0.48054   0.48335   0.49064   0.49238   0.49296
     Eigenvalues ---    0.50038   0.50128   0.75867   0.75884
 RFO step:  Lambda=-4.29968196D-02 EMin= 4.20010538D-03
 Linear search not attempted -- first point.
 Maximum step size (   0.300) exceeded in Quadratic search.
    -- Step size scaled by   0.895
 Iteration  1 RMS(Cart)=  0.17852740 RMS(Int)=  0.00641792
 Iteration  2 RMS(Cart)=  0.02455894 RMS(Int)=  0.00073688
 Iteration  3 RMS(Cart)=  0.00040244 RMS(Int)=  0.00072598
 Iteration  4 RMS(Cart)=  0.00000032 RMS(Int)=  0.00072598
 Variable       Old X    -DE/DX   Delta X   Delta X   Delta X     New X
                                 (Linear)    (Quad)   (Total)
    R1        2.83914  -0.05607   0.00000  -0.06258  -0.06258   2.77656
    R2        3.22442   0.01057   0.00000   0.02397   0.02397   3.24839
    R3        3.39441  -0.00578   0.00000  -0.01685  -0.01685   3.37755
    R4        2.83924  -0.05152   0.00000  -0.05750  -0.05750   2.78174
    R5        2.63782   0.03425   0.00000   0.06055   0.06055   2.69837
    R6        1.88284   0.02258   0.00000   0.03839   0.03839   1.92123
    R7        2.64802   0.00381   0.00000   0.00611   0.00610   2.65412
    R8        2.64831   0.00653   0.00000   0.01140   0.01140   2.65971
    R9        2.59853   0.01572   0.00000   0.02557   0.02556   2.62409
   R10        2.03283   0.01310   0.00000   0.02871   0.02871   2.06154
   R11        2.60897   0.01072   0.00000   0.01835   0.01835   2.62732
   R12        2.03634   0.01042   0.00000   0.02296   0.02296   2.05931
   R13        2.60837   0.01205   0.00000   0.02091   0.02092   2.62929
   R14        2.03618   0.01064   0.00000   0.02345   0.02345   2.05963
   R15        2.59632   0.01961   0.00000   0.03251   0.03252   2.62883
   R16        2.03647   0.01011   0.00000   0.02230   0.02230   2.05877
   R17        2.03047   0.00669   0.00000   0.01462   0.01462   2.04509
   R18        2.59632   0.01842   0.00000   0.03068   0.03068   2.62700
   R19        2.59662   0.01801   0.00000   0.03005   0.03006   2.62668
   R20        2.60831   0.01080   0.00000   0.01808   0.01808   2.62638
   R21        2.03665   0.01039   0.00000   0.02291   0.02291   2.05956
   R22        2.62247   0.01520   0.00000   0.02564   0.02564   2.64811
   R23        2.03390   0.01160   0.00000   0.02547   0.02547   2.05937
   R24        2.81169   0.01263   0.00000   0.02975   0.02975   2.84144
   R25        2.62170   0.01500   0.00000   0.02530   0.02530   2.64700
   R26        2.06039   0.00587   0.00000   0.01345   0.01345   2.07384
   R27        2.06042   0.00756   0.00000   0.01732   0.01732   2.07774
   R28        2.06055   0.00625   0.00000   0.01432   0.01432   2.07487
   R29        2.60813   0.01163   0.00000   0.01953   0.01953   2.62766
   R30        2.03399   0.01171   0.00000   0.02572   0.02572   2.05971
   R31        2.03651   0.01077   0.00000   0.02375   0.02375   2.06026
    A1        2.00178  -0.00898   0.00000  -0.03788  -0.03855   1.96323
    A2        1.85662  -0.00078   0.00000   0.00609   0.00681   1.86343
    A3        2.13729  -0.00185   0.00000  -0.02346  -0.02396   2.11333
    A4        1.68019   0.01609   0.00000   0.06108   0.06084   1.74103
    A5        1.85181   0.00098   0.00000   0.00848   0.00738   1.85920
    A6        1.87753  -0.00062   0.00000   0.00932   0.00868   1.88621
    A7        2.05047   0.05810   0.00000   0.19381   0.19269   2.24316
    A8        1.76335  -0.01039   0.00000  -0.00248  -0.00263   1.76072
    A9        1.99383  -0.02088   0.00000  -0.07202  -0.07669   1.91714
   A10        2.07869  -0.02507   0.00000  -0.07565  -0.07565   2.00304
   A11        2.15526   0.02319   0.00000   0.07176   0.07174   2.22700
   A12        2.04920   0.00187   0.00000   0.00380   0.00377   2.05297
   A13        2.11360   0.00284   0.00000   0.00765   0.00763   2.12123
   A14        2.06869  -0.00030   0.00000   0.00111   0.00112   2.06980
   A15        2.10090  -0.00254   0.00000  -0.00876  -0.00875   2.09215
   A16        2.09840   0.00027   0.00000   0.00104   0.00104   2.09944
   A17        2.09254  -0.00115   0.00000  -0.00500  -0.00500   2.08754
   A18        2.09224   0.00088   0.00000   0.00396   0.00396   2.09621
   A19        2.09209  -0.00546   0.00000  -0.01637  -0.01635   2.07574
   A20        2.09566   0.00237   0.00000   0.00658   0.00657   2.10223
   A21        2.09544   0.00309   0.00000   0.00978   0.00978   2.10522
   A22        2.09670   0.00471   0.00000   0.01822   0.01824   2.11494
   A23        2.09381  -0.00099   0.00000  -0.00310  -0.00311   2.09070
   A24        2.09267  -0.00372   0.00000  -0.01512  -0.01513   2.07754
   A25        2.11634  -0.00423   0.00000  -0.01435  -0.01434   2.10200
   A26        2.07006   0.00714   0.00000   0.02929   0.02929   2.09934
   A27        2.09677  -0.00290   0.00000  -0.01495  -0.01496   2.08181
   A28        2.08916  -0.00173   0.00000  -0.00628  -0.00628   2.08288
   A29        2.09392  -0.00249   0.00000  -0.00858  -0.00858   2.08534
   A30        2.10011   0.00422   0.00000   0.01485   0.01486   2.11496
   A31        2.09285  -0.00438   0.00000  -0.01376  -0.01376   2.07908
   A32        2.07939   0.00340   0.00000   0.01225   0.01225   2.09164
   A33        2.11088   0.00098   0.00000   0.00156   0.00155   2.11244
   A34        2.10433   0.00252   0.00000   0.00774   0.00774   2.11206
   A35        2.09546  -0.00256   0.00000  -0.00960  -0.00959   2.08586
   A36        2.08339   0.00004   0.00000   0.00185   0.00186   2.08525
   A37        2.10892   0.00020   0.00000   0.00142   0.00143   2.11035
   A38        2.07165  -0.00027   0.00000  -0.00236  -0.00237   2.06928
   A39        2.10212   0.00007   0.00000   0.00101   0.00101   2.10314
   A40        1.94184   0.00099   0.00000   0.00524   0.00522   1.94706
   A41        1.93295   0.00012   0.00000  -0.00080  -0.00080   1.93215
   A42        1.93777   0.00109   0.00000   0.00530   0.00528   1.94305
   A43        1.88443  -0.00094   0.00000  -0.00503  -0.00503   1.87941
   A44        1.87919  -0.00011   0.00000   0.00205   0.00201   1.88120
   A45        1.88538  -0.00128   0.00000  -0.00731  -0.00730   1.87808
   A46        2.10450   0.00214   0.00000   0.00665   0.00664   2.11114
   A47        2.08214   0.00032   0.00000   0.00280   0.00280   2.08494
   A48        2.09653  -0.00246   0.00000  -0.00945  -0.00945   2.08708
   A49        2.09286  -0.00424   0.00000  -0.01310  -0.01310   2.07976
   A50        2.07973   0.00298   0.00000   0.01037   0.01037   2.09010
   A51        2.11053   0.00125   0.00000   0.00273   0.00273   2.11326
    D1       -0.76755   0.00235   0.00000  -0.00556  -0.00392  -0.77147
    D2       -2.94837   0.00209   0.00000  -0.02820  -0.03102  -2.97939
    D3       -2.70950  -0.00273   0.00000  -0.03400  -0.03115  -2.74066
    D4        1.39286  -0.00298   0.00000  -0.05664  -0.05826   1.33460
    D5        1.64759  -0.00790   0.00000  -0.06712  -0.06492   1.58267
    D6       -0.53324  -0.00816   0.00000  -0.08977  -0.09202  -0.62526
    D7       -0.53091  -0.00025   0.00000  -0.00800  -0.00830  -0.53920
    D8        2.60976  -0.00030   0.00000  -0.00872  -0.00902   2.60074
    D9        1.52955  -0.00387   0.00000  -0.02326  -0.02326   1.50629
   D10       -1.61297  -0.00392   0.00000  -0.02398  -0.02398  -1.63695
   D11       -2.84924   0.00306   0.00000   0.01075   0.01104  -2.83820
   D12        0.29143   0.00301   0.00000   0.01003   0.01032   0.30175
   D13       -2.83629  -0.00652   0.00000  -0.03631  -0.03398  -2.87027
   D14        0.31509  -0.00575   0.00000  -0.02524  -0.02290   0.29219
   D15       -0.77534   0.00764   0.00000   0.05321   0.05087  -0.72446
   D16        2.37605   0.00841   0.00000   0.06428   0.06195   2.43800
   D17        3.14086   0.00049   0.00000   0.00846   0.00802  -3.13431
   D18       -0.00078   0.00041   0.00000   0.00720   0.00682   0.00604
   D19       -0.00993  -0.00011   0.00000  -0.00152  -0.00144  -0.01138
   D20        3.13161  -0.00018   0.00000  -0.00278  -0.00264   3.12897
   D21        3.14156  -0.00098   0.00000  -0.01227  -0.01268   3.12888
   D22        0.00706  -0.00084   0.00000  -0.01093  -0.01123  -0.00418
   D23        0.00961  -0.00008   0.00000  -0.00095  -0.00093   0.00868
   D24       -3.12490   0.00006   0.00000   0.00040   0.00052  -3.12438
   D25        0.00387   0.00015   0.00000   0.00241   0.00232   0.00619
   D26       -3.13727   0.00002   0.00000   0.00033   0.00033  -3.13694
   D27       -3.13768   0.00022   0.00000   0.00370   0.00354  -3.13414
   D28        0.00437   0.00010   0.00000   0.00162   0.00154   0.00591
   D29        0.00291  -0.00007   0.00000  -0.00100  -0.00096   0.00195
   D30       -3.14043  -0.00005   0.00000  -0.00086  -0.00082  -3.14125
   D31       -3.13913   0.00006   0.00000   0.00108   0.00103  -3.13810
   D32        0.00071   0.00008   0.00000   0.00122   0.00118   0.00190
   D33       -0.00325  -0.00008   0.00000  -0.00136  -0.00132  -0.00456
   D34        3.13774   0.00008   0.00000   0.00095   0.00093   3.13867
   D35        3.14009  -0.00010   0.00000  -0.00150  -0.00146   3.13863
   D36       -0.00210   0.00006   0.00000   0.00082   0.00079  -0.00132
   D37       -0.00319   0.00017   0.00000   0.00237   0.00231  -0.00089
   D38        3.13120   0.00006   0.00000   0.00118   0.00105   3.13225
   D39        3.13900   0.00001   0.00000   0.00006   0.00007   3.13907
   D40       -0.00978  -0.00009   0.00000  -0.00113  -0.00119  -0.01097
   D41       -3.13876   0.00046   0.00000   0.00609   0.00608  -3.13267
   D42        0.01511   0.00014   0.00000   0.00173   0.00172   0.01683
   D43        0.00377   0.00051   0.00000   0.00682   0.00683   0.01060
   D44       -3.12556   0.00019   0.00000   0.00246   0.00247  -3.12309
   D45        3.13763  -0.00046   0.00000  -0.00622  -0.00622   3.13140
   D46       -0.01648  -0.00042   0.00000  -0.00543  -0.00544  -0.02192
   D47       -0.00490  -0.00052   0.00000  -0.00695  -0.00697  -0.01186
   D48        3.12418  -0.00047   0.00000  -0.00616  -0.00618   3.11800
   D49        0.00560  -0.00039   0.00000  -0.00538  -0.00535   0.00026
   D50       -3.13142  -0.00039   0.00000  -0.00525  -0.00523  -3.13664
   D51        3.13470  -0.00005   0.00000  -0.00086  -0.00086   3.13384
   D52       -0.00232  -0.00005   0.00000  -0.00073  -0.00073  -0.00306
   D53       -3.12149   0.00012   0.00000   0.00163   0.00163  -3.11986
   D54       -0.01356   0.00030   0.00000   0.00411   0.00412  -0.00944
   D55        0.01556   0.00012   0.00000   0.00147   0.00148   0.01704
   D56        3.12349   0.00029   0.00000   0.00395   0.00397   3.12746
   D57       -0.39648   0.00064   0.00000   0.00539   0.00541  -0.39107
   D58        1.69955   0.00020   0.00000   0.00199   0.00199   1.70154
   D59       -2.48911  -0.00061   0.00000  -0.00425  -0.00426  -2.49336
   D60        2.77936   0.00047   0.00000   0.00293   0.00294   2.78230
   D61       -1.40779   0.00003   0.00000  -0.00047  -0.00048  -1.40827
   D62        0.68673  -0.00078   0.00000  -0.00671  -0.00673   0.68001
   D63        0.01242  -0.00031   0.00000  -0.00428  -0.00429   0.00814
   D64       -3.12447  -0.00017   0.00000  -0.00231  -0.00232  -3.12679
   D65        3.12049  -0.00014   0.00000  -0.00180  -0.00180   3.11869
   D66       -0.01640   0.00001   0.00000   0.00017   0.00017  -0.01624
   D67       -0.00333   0.00041   0.00000   0.00567   0.00564   0.00231
   D68       -3.13219   0.00035   0.00000   0.00481   0.00479  -3.12740
   D69        3.13352   0.00027   0.00000   0.00372   0.00370   3.13722
   D70        0.00467   0.00021   0.00000   0.00286   0.00285   0.00752
         Item               Value     Threshold  Converged?
 Maximum Force            0.058100     0.000450     NO 
 RMS     Force            0.010703     0.000300     NO 
 Maximum Displacement     0.792219     0.001800     NO 
 RMS     Displacement     0.194805     0.001200     NO 
 Predicted change in Energy=-2.378403D-02
 GradGradGradGradGradGradGradGradGradGradGradGradGradGradGradGradGradGrad

                          Input orientation:                          
 ---------------------------------------------------------------------
 Center     Atomic      Atomic             Coordinates (Angstroms)
 Number     Number       Type             X           Y           Z
 ---------------------------------------------------------------------
      1          8           0        0.121309    2.199481    0.156975
      2         16           0       -0.073257    1.009812   -0.683059
      3          7           0        0.923822   -0.305091   -0.201670
      4          6           0        2.306513   -0.288880    0.154496
      5          6           0        2.924750   -1.549889    0.170598
      6          6           0        4.264071   -1.697946    0.506062
      7          6           0        5.029102   -0.587449    0.844451
      8          6           0        4.430073    0.668357    0.842974
      9          6           0        3.089863    0.826570    0.505309
     10          6           0       -1.677753    0.341420   -0.266679
     11          6           0       -2.165164    0.495323    1.026092
     12          6           0       -3.408670   -0.035529    1.347802
     13          6           0       -4.171137   -0.719332    0.391373
     14          6           0       -5.528216   -1.268631    0.734145
     15          6           0       -3.658682   -0.848754   -0.905815
     16          6           0       -2.416585   -0.320690   -1.240220
     17          8           0        0.020772    1.091462   -2.149815
     18          1           0        0.773269   -0.951966   -0.971414
     19          1           0        2.329020   -2.426719   -0.087046
     20          1           0        4.712977   -2.690926    0.504168
     21          1           0        6.080629   -0.700616    1.107870
     22          1           0        5.015808    1.547730    1.108542
     23          1           0        2.652954    1.816518    0.522756
     24          1           0       -1.575024    1.033423    1.767716
     25          1           0       -3.798928    0.085462    2.358080
     26          1           0       -5.640195   -1.421257    1.815124
     27          1           0       -6.320181   -0.577994    0.410582
     28          1           0       -5.705538   -2.232550    0.239205
     29          1           0       -4.245623   -1.365707   -1.664928
     30          1           0       -2.021589   -0.408812   -2.252564
 ---------------------------------------------------------------------
                    Distance matrix (angstroms):
                    1          2          3          4          5
     1  O    0.000000
     2  S    1.469295   0.000000
     3  N    2.654343   1.718974   0.000000
     4  C    3.311656   2.837499   1.427918   0.000000
     5  C    4.681585   4.033465   2.385753   1.404500   0.000000
     6  C    5.698621   5.249607   3.687573   2.437437   1.388610
     7  C    5.685599   5.560449   4.245871   2.824478   2.410118
     8  C    4.623892   4.767111   3.785853   2.428953   2.763820
     9  C    3.289154   3.383951   2.544054   1.407458   2.405588
    10  C    2.620782   1.787325   2.681491   4.055742   4.995127
    11  C    2.981188   2.749904   3.419049   4.622829   5.551755
    12  C    4.344432   4.042538   4.609122   5.843926   6.617500
    13  C    5.196106   4.575693   5.146057   6.496257   7.147740
    14  C    6.654177   6.079174   6.590368   7.917000   8.476399
    15  C    4.970875   4.044646   4.668055   6.084511   6.707595
    16  C    3.839834   2.751700   3.498164   4.924825   5.659611
    17  O    2.561073   1.472033   2.561470   3.527011   4.560059
    18  H    3.410269   2.155998   1.016671   2.014495   2.508101
    19  H    5.131789   4.235081   2.547356   2.151558   1.090919
    20  H    6.717145   6.165469   4.533003   3.418065   2.147322
    21  H    6.695391   6.633499   5.335166   3.914384   3.399900
    22  H    5.028557   5.421972   4.679098   3.409344   3.853246
    23  H    2.586442   3.088202   2.831240   2.165258   3.395672
    24  H    2.613756   2.874397   3.451714   4.406505   5.428835
    25  H    4.968118   4.897303   5.386020   6.501716   7.257223
    26  H    7.003866   6.568243   6.956982   8.196959   8.722345
    27  H    7.019365   6.537679   7.274950   8.635335   9.298974
    28  H    7.321326   6.563999   6.917939   8.244877   8.657518
    29  H    5.924525   4.900592   5.476239   6.884791   7.403873
    30  H    4.147419   2.876080   3.590595   4.953865   5.624948
                    6          7          8          9         10
     6  C    0.000000
     7  C    1.390318   0.000000
     8  C    2.395925   1.391362   0.000000
     9  C    2.784232   2.423864   1.391119   0.000000
    10  C    6.329409   6.861437   6.216411   4.854019   0.000000
    11  C    6.812923   7.277558   6.600047   5.291148   1.390148
    12  C    7.895765   8.470772   7.886457   6.609382   2.396812
    13  C    8.492560   9.212333   8.724130   7.424616   2.788403
    14  C    9.804347  10.579847  10.145506   8.872064   4.291850
    15  C    8.092252   8.866189   8.413552   7.095128   2.397726
    16  C    7.041129   7.736619   7.224586   5.889316   1.389981
    17  O    5.730626   6.071881   5.345815   4.066838   2.644571
    18  H    3.863304   4.641374   4.392000   3.272691   2.859547
    19  H    2.151118   3.397211   3.854719   3.393178   4.873304
    20  H    1.089738   2.154146   3.388157   3.873924   7.115530
    21  H    2.157944   1.089911   2.160693   3.411754   7.947813
    22  H    3.385632   2.151490   1.089453   2.143182   6.939033
    23  H    3.866192   3.395383   2.139852   1.082216   4.642645
    24  H    6.568651   6.862516   6.086839   4.837109   2.151321
    25  H    8.463005   8.982093   8.387596   7.171990   3.384413
    26  H    9.994233  10.745760  10.330628   9.109460   4.810601
    27  H   10.643768  11.357577  10.830896   9.514762   4.780809
    28  H    9.987498  10.876819  10.559849   9.316014   4.806692
    29  H    8.788542   9.639668   9.257143   7.957724   3.385755
    30  H    6.984369   7.702964   7.236476   5.937927   2.150538
                   11         12         13         14         15
    11  C    0.000000
    12  C    1.389823   0.000000
    13  C    2.429441   1.401321   0.000000
    14  C    3.808791   2.527764   1.503624   0.000000
    15  C    2.787365   2.408865   1.400734   2.522087   0.000000
    16  C    2.421830   2.786289   2.428881   3.805123   1.390498
    17  O    3.901293   5.026381   5.225774   6.684200   4.341700
    18  H    3.836543   4.869007   5.134049   6.535896   4.433639
    19  H    5.474952   6.379472   6.737663   7.984466   6.246034
    20  H    7.598251   8.586268   9.100956  10.342043   8.687136
    21  H    8.332471   9.515603  10.276791  11.628741   9.946410
    22  H    7.258149   8.575301   9.489672  10.920097   9.222123
    23  H    5.021272   6.391718   7.281210   8.746107   6.998661
    24  H    1.089873   2.163619   3.421444   4.689931   3.877111
    25  H    2.147408   1.089771   2.157352   2.731514   3.397858
    26  H    4.046195   2.668022   2.162845   1.097429   3.414332
    27  H    4.335323   3.106372   2.153772   1.099490   2.981574
    28  H    4.538142   3.366228   2.160410   1.097975   2.723157
    29  H    3.877284   3.398000   2.156785   2.722135   1.089950
    30  H    3.404065   3.876334   3.421606   4.685740   2.165031
                   16         17         18         19         20
    16  C    0.000000
    17  O    2.960109   0.000000
    18  H    3.262811   2.475980   0.000000
    19  H    5.318452   4.686216   2.318914   0.000000
    20  H    7.713078   6.585353   4.552211   2.470342   0.000000
    21  H    8.823861   7.109566   5.705670   4.299049   2.489229
    22  H    8.015494   5.981259   5.345450   4.944138   4.292223
    23  H    5.777194   3.820566   3.664732   4.299053   4.955915
    24  H    3.404340   4.230482   4.118140   5.536631   7.416622
    25  H    3.876028   5.993601   5.750371   7.059847   9.143185
    26  H    4.575810   7.353982   7.008392   8.254550  10.512794
    27  H    4.246106   7.039205   7.236491   8.858561  11.234047
    28  H    4.081804   7.038970   6.714197   8.043524  10.431960
    29  H    2.148911   4.947214   5.083446   6.844077   9.312234
[...]
     2  S    0.000428  -0.000045  -0.009349   0.308081  -0.014329   0.006896
     3  N    0.002745   0.000668  -0.002660  -0.039309   0.002997  -0.000812
     4  C   -0.089961   0.010105   0.422364  -0.006295   0.002075   0.000172
     5  C    0.019848  -0.077062   0.017737  -0.000096  -0.000284  -0.000007
     6  C    0.453089   0.012525  -0.075745  -0.000042   0.000006  -0.000001
     7  C    4.951032   0.427554   0.038924   0.000062  -0.000008   0.000000
     8  C    0.427554   4.924100   0.424546  -0.000347   0.000055   0.000002
     9  C    0.038924   0.424546   5.048208   0.002382  -0.000582  -0.000043
    10  C    0.000062  -0.000347   0.002382   5.340633   0.396561   0.033404
    11  C   -0.000008   0.000055  -0.000582   0.396561   5.028275   0.399065
    12  C    0.000000   0.000002  -0.000043   0.033404   0.399065   5.098925
    13  C    0.000000  -0.000000   0.000003  -0.102537   0.017717   0.394065
    14  C    0.000000  -0.000000  -0.000000  -0.005370   0.008913  -0.070092
    15  C   -0.000000   0.000000   0.000017   0.046403  -0.050449  -0.002952
    16  C   -0.000003   0.000011  -0.000404   0.267117  -0.042827  -0.074453
    17  O    0.000160  -0.000350   0.003336  -0.102483   0.007779  -0.000630
    18  H    0.000073  -0.000512   0.001480   0.003972  -0.000740  -0.000106
    19  H    0.007697  -0.002176   0.008101  -0.000017  -0.000004   0.000000
    20  H   -0.057635   0.011372  -0.004228  -0.000002   0.000000  -0.000000
    21  H    0.443335  -0.056909   0.011737   0.000000  -0.000000   0.000000
    22  H   -0.057742   0.443110  -0.056776  -0.000002  -0.000000  -0.000000
    23  H    0.006880  -0.038083   0.416486  -0.001051   0.000590   0.000023
    24  H   -0.000000   0.000014   0.000248  -0.052418   0.438600  -0.056427
    25  H   -0.000000   0.000000  -0.000001   0.010994  -0.052877   0.446489
    26  H   -0.000000   0.000000  -0.000000   0.000237   0.000693  -0.006154
    27  H    0.000000  -0.000000   0.000000   0.000227  -0.000277  -0.003389
    28  H   -0.000000   0.000000  -0.000000  -0.000225  -0.000185   0.008812
    29  H   -0.000000   0.000000  -0.000000   0.011038  -0.003158   0.013233
    30  H   -0.000000   0.000001  -0.000021  -0.046533   0.008469  -0.002980
              13         14         15         16         17         18
     1  O    0.000195   0.000001  -0.000720   0.007186  -0.049056   0.002776
     2  S   -0.001256  -0.000002   0.006866  -0.052459   0.567626  -0.010554
     3  N   -0.000954  -0.000013   0.001172  -0.003281  -0.062759   0.361720
     4  C   -0.000082  -0.000001   0.000206  -0.002362   0.010059  -0.065868
     5  C    0.000012   0.000000  -0.000039   0.000584   0.001243   0.014735
     6  C    0.000000   0.000000  -0.000001   0.000026  -0.000956   0.002190
     7  C    0.000000   0.000000  -0.000000  -0.000003   0.000160   0.000073
     8  C   -0.000000  -0.000000   0.000000   0.000011  -0.000350  -0.000512
     9  C    0.000003  -0.000000   0.000017  -0.000404   0.003336   0.001480
    10  C   -0.102537  -0.005370   0.046403   0.267117  -0.102483   0.003972
    11  C    0.017717   0.008913  -0.050449  -0.042827   0.007779  -0.000740
    12  C    0.394065  -0.070092  -0.002952  -0.074453  -0.000630  -0.000106
    13  C    4.969412   0.296995   0.439605   0.046346   0.000156   0.000113
    14  C    0.296995   4.957732  -0.074427   0.018097   0.000000   0.000001
    15  C    0.439605  -0.074427   5.095654   0.336971   0.002819  -0.000267
    16  C    0.046346   0.018097   0.336971   5.204920   0.029823   0.000700
    17  O    0.000156   0.000000   0.002819   0.029823   8.034351   0.000921
    18  H    0.000113   0.000001  -0.000267   0.000700   0.000921   0.448884
    19  H    0.000001   0.000000  -0.000002   0.000013   0.000223   0.004368
    20  H   -0.000000  -0.000000   0.000000  -0.000000  -0.000005  -0.000070
    21  H   -0.000000   0.000000   0.000000  -0.000000   0.000000  -0.000003
    22  H   -0.000000  -0.000000  -0.000000   0.000000  -0.000002   0.000017
    23  H    0.000003   0.000000   0.000000  -0.000111   0.000537  -0.000236
    24  H    0.010602   0.000008  -0.003995   0.013518   0.000394   0.000021
    25  H   -0.061131  -0.003374   0.011939  -0.003502   0.000003   0.000002
    26  H   -0.041591   0.417276   0.003045  -0.000891   0.000000  -0.000000
    27  H   -0.024842   0.398414  -0.003706  -0.000894  -0.000000   0.000000
    28  H   -0.059772   0.429753  -0.005727   0.002914   0.000000  -0.000000
    29  H   -0.056638  -0.009183   0.436708  -0.046611  -0.000023  -0.000006
    30  H    0.009677   0.000028  -0.052240   0.437935   0.015542   0.000290
              19         20         21         22         23         24
     1  O   -0.000006  -0.000001   0.000001  -0.000087   0.007247   0.008839
     2  S    0.000190  -0.000015   0.000002  -0.000003  -0.001865  -0.004434
     3  N    0.000677  -0.000320   0.000017  -0.000199   0.000579   0.000291
     4  C   -0.066955   0.014398  -0.003892   0.013407  -0.033043  -0.000284
     5  C    0.425295  -0.054267   0.012092  -0.003088   0.007389  -0.000007
     6  C   -0.024139   0.438654  -0.056672   0.010540  -0.002166  -0.000001
     7  C    0.007697  -0.057635   0.443335  -0.057742   0.006880  -0.000000
     8  C   -0.002176   0.011372  -0.056909   0.443110  -0.038083   0.000014
     9  C    0.008101  -0.004228   0.011737  -0.056776   0.416486   0.000248
    10  C   -0.000017  -0.000002   0.000000  -0.000002  -0.001051  -0.052418
    11  C   -0.000004   0.000000  -0.000000  -0.000000   0.000590   0.438600
    12  C    0.000000  -0.000000   0.000000  -0.000000   0.000023  -0.056427
    13  C    0.000001  -0.000000  -0.000000  -0.000000   0.000003   0.010602
    14  C    0.000000  -0.000000   0.000000  -0.000000   0.000000   0.000008
    15  C   -0.000002   0.000000   0.000000  -0.000000   0.000000  -0.003995
    16  C    0.000013  -0.000000  -0.000000   0.000000  -0.000111   0.013518
    17  O    0.000223  -0.000005   0.000000  -0.000002   0.000537   0.000394
    18  H    0.004368  -0.000070  -0.000003   0.000017  -0.000236   0.000021
    19  H    0.540328  -0.007250  -0.000130   0.000034  -0.000113   0.000001
    20  H   -0.007250   0.544871  -0.006760  -0.000121   0.000024   0.000000
    21  H   -0.000130  -0.006760   0.543126  -0.006924  -0.000055  -0.000000
    22  H    0.000034  -0.000121  -0.006924   0.540711  -0.006035  -0.000000
    23  H   -0.000113   0.000024  -0.000055  -0.006035   0.485317   0.000464
    24  H    0.000001   0.000000  -0.000000  -0.000000   0.000464   0.495730
    25  H   -0.000000   0.000000  -0.000000   0.000000  -0.000002  -0.006217
    26  H   -0.000000   0.000000  -0.000000   0.000000  -0.000000  -0.000015
    27  H    0.000000   0.000000   0.000000  -0.000000   0.000000  -0.000004
    28  H    0.000000  -0.000000  -0.000000  -0.000000  -0.000000   0.000006
    29  H   -0.000000   0.000000  -0.000000   0.000000   0.000000   0.000027
    30  H    0.000000  -0.000000  -0.000000   0.000000  -0.000005   0.000001
              25         26         27         28         29         30
     1  O   -0.000022   0.000000  -0.000000   0.000000   0.000003   0.000712
     2  S   -0.000111   0.000001  -0.000001  -0.000000  -0.000157  -0.006224
     3  N    0.000016   0.000000   0.000000  -0.000000   0.000015   0.000678
     4  C    0.000001   0.000000  -0.000000  -0.000000   0.000003  -0.000547
     5  C    0.000000  -0.000000  -0.000000   0.000000  -0.000000   0.000086
     6  C    0.000000   0.000000  -0.000000   0.000000  -0.000000   0.000005
     7  C   -0.000000  -0.000000   0.000000  -0.000000  -0.000000  -0.000000
     8  C    0.000000   0.000000  -0.000000   0.000000   0.000000   0.000001
     9  C   -0.000001  -0.000000   0.000000  -0.000000  -0.000000  -0.000021
    10  C    0.010994   0.000237   0.000227  -0.000225   0.011038  -0.046533
    11  C   -0.052877   0.000693  -0.000277  -0.000185  -0.003158   0.008469
    12  C    0.446489  -0.006154  -0.003389   0.008812   0.013233  -0.002980
    13  C   -0.061131  -0.041591  -0.024842  -0.059772  -0.056638   0.009677
    14  C   -0.003374   0.417276   0.398414   0.429753  -0.009183   0.000028
    15  C    0.011939   0.003045  -0.003706  -0.005727   0.436708  -0.052240
    16  C   -0.003502  -0.000891  -0.000894   0.002914  -0.046611   0.437935
    17  O    0.000003   0.000000  -0.000000   0.000000  -0.000023   0.015542
    18  H    0.000002  -0.000000   0.000000  -0.000000  -0.000006   0.000290
    19  H   -0.000000  -0.000000   0.000000   0.000000  -0.000000   0.000000
    20  H    0.000000   0.000000   0.000000  -0.000000   0.000000  -0.000000
    21  H   -0.000000  -0.000000   0.000000  -0.000000  -0.000000  -0.000000
    22  H    0.000000   0.000000  -0.000000  -0.000000   0.000000   0.000000
    23  H   -0.000002  -0.000000   0.000000  -0.000000   0.000000  -0.000005
    24  H   -0.006217  -0.000015  -0.000004   0.000006   0.000027   0.000001
    25  H    0.529190   0.000092   0.000015   0.000090  -0.000062   0.000027
    26  H    0.000092   0.542329  -0.028266  -0.021669   0.000077   0.000002
    27  H    0.000015  -0.028266   0.542226  -0.019570   0.000146   0.000005
    28  H    0.000090  -0.021669  -0.019570   0.536735   0.002138  -0.000017
    29  H   -0.000062   0.000077   0.000146   0.002138   0.531476  -0.005225
    30  H    0.000027   0.000002   0.000005  -0.000017  -0.005225   0.470813
 Mulliken charges:
               1
     1  O   -0.465885
     2  S    0.839138
     3  N   -0.331297
     4  C    0.256024
     5  C   -0.249159
     6  C   -0.090626
     7  C   -0.146667
     8  C   -0.077598
     9  C   -0.249325
    10  C   -0.000296
    11  C   -0.167828
    12  C   -0.185072
    13  C    0.163902
    14  C   -0.364757
    15  C   -0.186880
    16  C   -0.138362
    17  O   -0.458708
    18  H    0.236099
    19  H    0.113860
    20  H    0.121354
    21  H    0.121035
    22  H    0.123160
    23  H    0.157225
    24  H    0.155038
    25  H    0.128441
    26  H    0.134832
    27  H    0.139917
    28  H    0.126718
    29  H    0.126200
    30  H    0.169520
 Sum of Mulliken charges =  -0.00000
 Mulliken charges with hydrogens summed into heavy atoms:
               1
     1  O   -0.465885
     2  S    0.839138
     3  N   -0.095198
     4  C    0.256024
     5  C   -0.135299
     6  C    0.030728
     7  C   -0.025632
     8  C    0.045562
     9  C   -0.092100
    10  C   -0.000296
    11  C   -0.012791
    12  C   -0.056631
    13  C    0.163902
    14  C    0.036709
    15  C   -0.060680
    16  C    0.031158
    17  O   -0.458708
 Electronic spatial extent (au):  <R**2>=           5712.1823
 Charge=              0.0000 electrons
 Dipole moment (field-independent basis, Debye):
    X=             -3.0412    Y=              0.1558    Z=              3.9274  Tot=              4.9697
 Quadrupole moment (field-independent basis, Debye-Ang):
   XX=            -81.5834   YY=           -101.8568   ZZ=           -114.0505
   XY=             -0.0226   XZ=             -0.7052   YZ=             -4.7310
 Traceless Quadrupole moment (field-independent basis, Debye-Ang):
   XX=             17.5802   YY=             -2.6932   ZZ=            -14.8869
   XY=             -0.0226   XZ=             -0.7052   YZ=             -4.7310
 Octapole moment (field-independent basis, Debye-Ang**2):
  XXX=            -32.3031  YYY=              4.3165  ZZZ=             -3.2003  XYY=            -10.3440
  XXY=              3.4939  XXZ=             17.1095  XZZ=             -5.6880  YZZ=             -5.9509
  YYZ=              6.2566  XYZ=            -18.8754
 Hexadecapole moment (field-independent basis, Debye-Ang**3):
 XXXX=          -5809.7899 YYYY=           -658.3690 ZZZZ=           -612.9915 XXXY=             11.9807
 XXXZ=            -61.4193 YYYX=              7.9557 YYYZ=            -16.9974 ZZZX=            -16.3860
 ZZZY=             -2.9151 XXYY=          -1127.6973 XXZZ=          -1235.0735 YYZZ=           -221.0887
 XXYZ=            -47.3631 YYXZ=             -7.1852 ZZXY=            -23.9625
 N-N= 1.287202034620D+03 E-N=-5.169936624849D+03  KE= 1.102021215279D+03
 Breneman (CHELPG) radii used.
 Read replacement radii for each type of atom:
 Atom Element Radius
    1     8    1.70
    2    16    2.00
    3     7    1.70
    4     6    1.50
    5     6    1.50
    6     6    1.50
    7     6    1.50
    8     6    1.50
    9     6    1.50
   10     6    1.50
   11     6    1.50
   12     6    1.50
   13     6    1.50
   14     6    1.50
   15     6    1.50
   16     6    1.50
   17     8    1.70
   18     1    1.45
   19     1    1.45
   20     1    1.45
   21     1    1.45
   22     1    1.45
   23     1    1.45
   24     1    1.45
   25     1    1.45
   26     1    1.45
   27     1    1.45
   28     1    1.45
   29     1    1.45
   30     1    1.45
 Generate Potential Derived Charges using the Breneman model, NDens= 1.
 Grid spacing= 0.300 Box extension= 2.800
 NStep X,Y,Z=   62     35     33   Total possible points=       71610
 Number of Points to Fit=   19067

 **********************************************************************

            Electrostatic Properties Using The SCF Density.

 **********************************************************************

       Atomic Center    1 is at   0.417182  0.878381 -1.756698
       Atomic Center    2 is at   0.067126 -0.266255 -0.935846
       Atomic Center    3 is at   0.900483 -0.093979  0.533144
       Atomic Center    4 is at   2.319073  0.016408  0.507794
       Atomic Center    5 is at   3.102992 -0.950131  1.145671
       Atomic Center    6 is at   4.489099 -0.817756  1.179277
       Atomic Center    7 is at   5.105051  0.265179  0.555463
       Atomic Center    8 is at   4.321750  1.221456 -0.090706
       Atomic Center    9 is at   2.934257  1.112342 -0.107828
       Atomic Center   10 is at  -1.598370 -0.087992 -0.345046
       Atomic Center   11 is at  -2.063672  1.177964  0.013144
       Atomic Center   12 is at  -3.368106  1.309054  0.469215
       Atomic Center   13 is at  -4.218908  0.196262  0.566468
       Atomic Center   14 is at  -5.635837  0.366193  1.044675
       Atomic Center   15 is at  -3.725428 -1.057414  0.192212
       Atomic Center   16 is at  -2.417659 -1.208731 -0.266283
       Atomic Center   17 is at   0.224732 -1.616367 -1.451075
       Atomic Center   18 is at   0.581524 -0.829762  1.160891
       Atomic Center   19 is at   2.623647 -1.812822  1.615726
       Atomic Center   20 is at   5.089780 -1.575404  1.686967
       Atomic Center   21 is at   6.192138  0.364375  0.572823
       Atomic Center   22 is at   4.795277  2.075214 -0.580172
       Atomic Center   23 is at   2.319165  1.863123 -0.602134
       Atomic Center   24 is at  -1.405354  2.044295 -0.071460
       Atomic Center   25 is at  -3.740397  2.296531  0.753494
       Atomic Center   26 is at  -5.671986  0.948048  1.977630
       Atomic Center   27 is at  -6.234444  0.909939  0.296964
       Atomic Center   28 is at  -6.121597 -0.602315  1.224663
       Atomic Center   29 is at  -4.374900 -1.933779  0.255664
       Atomic Center   30 is at  -2.031014 -2.182617 -0.571671
   19067 points will be used for fitting atomic charges
 Fitting point charges to electrostatic potential
 Charges from ESP fit, RMS=   0.00374 RRMS=   0.22262:
 ESP charges:
               1
     1  O   -0.498603
     2  S    0.999493
     3  N   -0.781001
     4  C    0.549220
     5  C   -0.310290
     6  C   -0.043781
     7  C   -0.152814
     8  C   -0.033836
     9  C   -0.297432
    10  C   -0.034356
    11  C   -0.057584
    12  C   -0.217639
    13  C    0.258798
    14  C   -0.314278
    15  C   -0.227758
    16  C   -0.057402
    17  O   -0.511942
    18  H    0.336248
    19  H    0.146107
    20  H    0.094595
    21  H    0.103846
    22  H    0.088586
    23  H    0.189897
    24  H    0.118140
    25  H    0.129059
    26  H    0.087112
    27  H    0.097094
    28  H    0.094635
    29  H    0.125739
    30  H    0.120148
 Sum of ESP charges =  -0.00000
 ESP charges with hydrogens summed into heavy atoms:
               1
     1  O   -0.498603
     2  S    0.999493
     3  N   -0.444754
     4  C    0.549220
     5  C   -0.164184
     6  C    0.050814
     7  C   -0.048968
     8  C    0.054750
     9  C   -0.107535
    10  C   -0.034356
    11  C    0.060556
    12  C   -0.088580
    13  C    0.258798
    14  C   -0.035437
    15  C   -0.102019
    16  C    0.062745
    17  O   -0.511942
 Charge=  -0.00000 Dipole=    -2.9956     0.2352     4.0194 Tot=     5.0184
 -----------------------------------------------------------------

              Electrostatic Properties (Atomic Units)

 -----------------------------------------------------------------
    Center     Electric         -------- Electric Field --------
               Potential          X             Y             Z
 -----------------------------------------------------------------
    1 Atom    -22.374571
    2 Atom    -59.026931
    3 Atom    -18.348211
    4 Atom    -14.717767
    5 Atom    -14.762860
    6 Atom    -14.764197
    7 Atom    -14.769315
    8 Atom    -14.766658
    9 Atom    -14.770060
   10 Atom    -14.728569
   11 Atom    -14.741045
   12 Atom    -14.749118
   13 Atom    -14.732810
   14 Atom    -14.752669
   15 Atom    -14.749272
   16 Atom    -14.741276
   17 Atom    -22.374977
   18 Atom     -1.004604
   19 Atom     -1.094145
   20 Atom     -1.103248
   21 Atom     -1.106801
   22 Atom     -1.107202
   23 Atom     -1.108739
   24 Atom     -1.083552
   25 Atom     -1.087442
   26 Atom     -1.096440
   27 Atom     -1.095399
   28 Atom     -1.098953
   29 Atom     -1.087868
   30 Atom     -1.083643
 -----------------------------------------------------------------
 Unable to Open any file for archive entry.
 1\1\GINC-NOTCH224\SP\RwB97XD\def2TZVP\C13H13N1O2S1\U1366379\17-Feb-202
 6\0\\#N Guess=Read Geom=Check Integral(Ultrafine) Density Pop=(ChelpG,
 ReadRadii) NMR wB97XD def2TZVP\\prod_5l_22\\0,1\O,0,0.3491957798,1.880
 7813398,-0.1814627863\S,0,0.0496856548,0.569072745,-0.725746432\N,0,0.
 887376997,-0.562417811,0.2229884144\C,0,2.3004587291,-0.4441776593,0.3
 431812338\C,0,3.1257987848,-1.4758341373,-0.1152003882\C,0,4.506044751
 2,-1.3967972295,0.0539760607\C,0,5.0751610927,-0.2776332407,0.65801849
 88\C,0,4.2507653538,0.7556312961,1.1033243435\C,0,2.8683743913,0.67490
 80576,0.9625598273\C,0,-1.6167098698,0.1177773369,-0.3084252851\C,0,-2
 .1272957789,0.4723086146,0.9409979154\C,0,-3.4321613549,0.1199675262,1
 .2570956868\C,0,-4.2389511087,-0.574990342,0.3418086449\C,0,-5.6575366
 307,-0.9285517909,0.6993747835\C,0,-3.7008050931,-0.9086359152,-0.9049
 362764\C,0,-2.3918527056,-0.5648675814,-1.2393623902\O,0,0.2547961687,
 0.2947747406,-2.1384717862\H,0,0.6017692608,-1.4929803322,-0.076444457
 2\H,0,2.6835442975,-2.3442860327,-0.6103364755\H,0,5.1392660576,-2.212
 3659036,-0.3016593583\H,0,6.1577572774,-0.2104691812,0.7820105386\H,0,
 4.687396112,1.6356479892,1.5804315624\H,0,2.2211212545,1.4751043869,1.
 3190698079\H,0,-1.503309224,1.0207748301,1.6487379916\H,0,-3.839728953
 4,0.3921205463,2.2340032687\H,0,-5.7085858875,-1.4121087475,1.68620504
 97\H,0,-6.2823876477,-0.0227916274,0.7465238169\H,0,-6.1044355947,-1.6
 073534634,-0.0394591058\H,0,-4.3157343774,-1.4442502094,-1.6321471291\
 H,0,-1.9706277367,-0.8115382047,-2.2155455744\\Version=ES64L-G16RevC.0
 1\State=1-A\HF=-1106.6230564\RMSD=1.956e-09\Dipole=-1.1857564,-1.30961
 77,0.837704\Quadrupole=13.0420066,-5.3228871,-7.7191195,0.7730744,0.14
 3773,5.6299792\PG=C01 [X(C13H13N1O2S1)]\\@
 The archive entry for this job was punched.


 THERE'S A SUCKER BORN EVERY MINUTE

              -- PHINEAS TAYLOR (P.T.) BARNUM
 Job cpu time:       0 days  1 hours 31 minutes 30.9 seconds.
 Elapsed time:       0 days  0 hours 11 minutes 49.0 seconds.
 File lengths (MBytes):  RWF=    226 Int=      0 D2E=      0 Chk=     34 Scr=      2
 Normal termination of Gaussian 16 at Tue Feb 17 17:19:34 2026.
