 Entering Gaussian System, Link 0=g16
 Input=prod_5e_1.com
 Output=prod_5e_1.log
 Initial command:
 /uufs/chpc.utah.edu/sys/installdir/gaussian16/C01/AVX/g16/l1.exe "/scratch/general/vast/u1366379/GAUSSSCRDIR/11028646-notchpeak.peaks/Gau-3402233.inp" -scrdir="/scratch/general/vast/u1366379/GAUSSSCRDIR/11028646-notchpeak.peaks/"
 Entering Link 1 = /uufs/chpc.utah.edu/sys/installdir/gaussian16/C01/AVX/g16/l1.exe PID=   3402235.
  
 Copyright (c) 1988-2019, Gaussian, Inc.  All Rights Reserved.
  
 This is part of the Gaussian(R) 16 program.  It is based on
 the Gaussian(R) 09 system (copyright 2009, Gaussian, Inc.),
 the Gaussian(R) 03 system (copyright 2003, Gaussian, Inc.),
 the Gaussian(R) 98 system (copyright 1998, Gaussian, Inc.),
 the Gaussian(R) 94 system (copyright 1995, Gaussian, Inc.),
 the Gaussian 92(TM) system (copyright 1992, Gaussian, Inc.),
 the Gaussian 90(TM) system (copyright 1990, Gaussian, Inc.),
 the Gaussian 88(TM) system (copyright 1988, Gaussian, Inc.),
 the Gaussian 86(TM) system (copyright 1986, Carnegie Mellon
 University), and the Gaussian 82(TM) system (copyright 1983,
 Carnegie Mellon University). Gaussian is a federally registered
 trademark of Gaussian, Inc.
  
 This software contains proprietary and confidential information,
 including trade secrets, belonging to Gaussian, Inc.
  
 This software is provided under written license and may be
 used, copied, transmitted, or stored only in accord with that
 written license.
  
 The following legend is applicable only to US Government
 contracts under FAR:
  
                    RESTRICTED RIGHTS LEGEND
  
 Use, reproduction and disclosure by the US Government is
 subject to restrictions as set forth in subparagraphs (a)
 and (c) of the Commercial Computer Software - Restricted
 Rights clause in FAR 52.227-19.
  
 Gaussian, Inc.
 340 Quinnipiac St., Bldg. 40, Wallingford CT 06492
  
  
 ---------------------------------------------------------------
 Warning -- This program may not be used in any manner that
 competes with the business of Gaussian, Inc. or will provide
 assistance to any competitor of Gaussian, Inc.  The licensee
 of this program is prohibited from giving any competitor of
 Gaussian, Inc. access to this program.  By using this program,
 the user acknowledges that Gaussian, Inc. is engaged in the
 business of creating and licensing software in the field of
 computational chemistry and represents and warrants to the
 licensee that it is not a competitor of Gaussian, Inc. and that
 it will not use this program in any manner prohibited above.
 ---------------------------------------------------------------
  

 Cite this work as:
 Gaussian 16, Revision C.01,
 M. J. Frisch, G. W. Trucks, H. B. Schlegel, G. E. Scuseria, 
 M. A. Robb, J. R. Cheeseman, G. Scalmani, V. Barone, 
 G. A. Petersson, H. Nakatsuji, X. Li, M. Caricato, A. V. Marenich, 
 J. Bloino, B. G. Janesko, R. Gomperts, B. Mennucci, H. P. Hratchian, 
 J. V. Ortiz, A. F. Izmaylov, J. L. Sonnenberg, D. Williams-Young, 
 F. Ding, F. Lipparini, F. Egidi, J. Goings, B. Peng, A. Petrone, 
 T. Henderson, D. Ranasinghe, V. G. Zakrzewski, J. Gao, N. Rega, 
 G. Zheng, W. Liang, M. Hada, M. Ehara, K. Toyota, R. Fukuda, 
 J. Hasegawa, M. Ishida, T. Nakajima, Y. Honda, O. Kitao, H. Nakai, 
 T. Vreven, K. Throssell, J. A. Montgomery, Jr., J. E. Peralta, 
 F. Ogliaro, M. J. Bearpark, J. J. Heyd, E. N. Brothers, K. N. Kudin, 
 V. N. Staroverov, T. A. Keith, R. Kobayashi, J. Normand, 
 K. Raghavachari, A. P. Rendell, J. C. Burant, S. S. Iyengar, 
 J. Tomasi, M. Cossi, J. M. Millam, M. Klene, C. Adamo, R. Cammi, 
 J. W. Ochterski, R. L. Martin, K. Morokuma, O. Farkas, 
 J. B. Foresman, and D. J. Fox, Gaussian, Inc., Wallingford CT, 2019.
 
 ******************************************
 Gaussian 16:  ES64L-G16RevC.01  3-Jul-2019
                17-Feb-2026 
 ******************************************
 %NProcShared=8
 Will use up to    8 processors via shared memory.
 %Mem=8GB
 %chk=prod_5e_1.chk
 ------------------------------------------------------
 #N OPT FREQ=NORAMAN Integral(Ultrafine) wB97XD def2SVP
 ------------------------------------------------------
 1/18=20,19=15,26=4,38=1/1,3;
 2/9=110,12=2,17=6,18=5,40=1/2;
 3/5=43,7=101,11=2,25=1,30=1,71=1,74=-58,75=-5/1,2,3;
 4//1;
 5/5=2,38=5/2;
 6/7=2,8=2,9=2,10=2,28=1/1;
 7//1,2,3,16;
 1/18=20,19=15,26=4/3(2);
 2/9=110/2;
 99//99;
 2/9=110/2;
 3/5=43,7=101,11=2,25=1,30=1,71=1,74=-58,75=-5/1,2,3;
 4/5=5,16=3,69=1/1;
 5/5=2,38=5/2;
 7//1,2,3,16;
 1/18=20,19=15,26=4/3(-5);
 2/9=110/2;
 6/7=2,8=2,9=2,10=2,19=2,28=1/1;
 99/9=1/99;
 ---------
 prod_5e_1
 ---------
 Symbolic Z-matrix:
 Charge =  0 Multiplicity = 1
 C                     4.87601  -1.42368   0.52395 
 O                     4.41498  -0.40331  -0.3275 
 C                     3.06327  -0.05816  -0.15514 
 C                     2.20506  -0.65302   0.77159 
 C                     0.89311  -0.25493   0.87345 
 C                     2.54724   0.95066  -0.97034 
 C                     1.23596   1.34835  -0.86831 
 C                     0.38414   0.74966   0.05509 
 N                    -0.99062   1.16039   0.16549 
 C                    -1.26525   2.57156   0.42384 
 C                    -2.06524   0.23973   0.03695 
 C                    -1.83731  -1.04461  -0.45786 
 C                    -2.8695   -1.94453  -0.59609 
 C                    -4.15511  -1.58256  -0.24489 
 C                    -4.40249  -0.31418   0.24274 
 C                    -3.37186   0.5885    0.3812 
 H                     4.78017  -1.1113    1.56442 
 H                     4.31225  -2.34001   0.34541 
 H                     5.92839  -1.6083    0.30603 
 H                     2.57202  -1.43112   1.41562 
 H                     0.23905  -0.71214   1.59546 
 H                     3.2052    1.41024  -1.68634 
 H                     0.84778   2.11821  -1.51199 
 H                    -1.70871   2.69289   1.41023 
 H                    -0.3435    3.14936   0.39346 
 H                    -1.9458    2.96635  -0.32822 
 H                    -0.83884  -1.32242  -0.74525 
 H                    -2.67465  -2.93228  -0.98089 
 H                    -4.96338  -2.2872   -0.35278 
 H                    -5.40585  -0.03052   0.51584 
 H                    -3.57343   1.57241   0.76538 
 

 GradGradGradGradGradGradGradGradGradGradGradGradGradGradGradGradGradGrad
 Berny optimization.
 Initialization pass.
                           ----------------------------
                           !    Initial Parameters    !
                           ! (Angstroms and Degrees)  !
 --------------------------                            --------------------------
 ! Name  Definition              Value          Derivative Info.                !
 --------------------------------------------------------------------------------
 ! R1    R(1,2)                  1.4067         estimate D2E/DX2                !
 ! R2    R(1,17)                 1.0906         estimate D2E/DX2                !
 ! R3    R(1,18)                 1.0906         estimate D2E/DX2                !
 ! R4    R(1,19)                 1.0904         estimate D2E/DX2                !
 ! R5    R(2,3)                  1.4057         estimate D2E/DX2                !
 ! R6    R(3,4)                  1.3961         estimate D2E/DX2                !
 ! R7    R(3,6)                  1.3959         estimate D2E/DX2                !
 ! R8    R(4,5)                  1.3748         estimate D2E/DX2                !
 ! R9    R(4,20)                 1.0747         estimate D2E/DX2                !
 ! R10   R(5,8)                  1.3921         estimate D2E/DX2                !
 ! R11   R(5,21)                 1.0762         estimate D2E/DX2                !
 ! R12   R(6,7)                  1.3741         estimate D2E/DX2                !
 ! R13   R(6,22)                 1.0755         estimate D2E/DX2                !
 ! R14   R(7,8)                  1.3917         estimate D2E/DX2                !
 ! R15   R(7,23)                 1.076          estimate D2E/DX2                !
 ! R16   R(8,9)                  1.439          estimate D2E/DX2                !
 ! R17   R(9,10)                 1.4607         estimate D2E/DX2                !
 ! R18   R(9,11)                 1.4209         estimate D2E/DX2                !
 ! R19   R(10,24)                1.0883         estimate D2E/DX2                !
 ! R20   R(10,25)                1.0883         estimate D2E/DX2                !
 ! R21   R(10,26)                1.0884         estimate D2E/DX2                !
 ! R22   R(11,12)                1.3951         estimate D2E/DX2                !
 ! R23   R(11,16)                1.3955         estimate D2E/DX2                !
 ! R24   R(12,13)                1.3764         estimate D2E/DX2                !
 ! R25   R(12,27)                1.0755         estimate D2E/DX2                !
 ! R26   R(13,14)                1.381          estimate D2E/DX2                !
 ! R27   R(13,28)                1.0778         estimate D2E/DX2                !
 ! R28   R(14,15)                1.3812         estimate D2E/DX2                !
 ! R29   R(14,29)                1.0777         estimate D2E/DX2                !
 ! R30   R(15,16)                1.377          estimate D2E/DX2                !
 ! R31   R(15,30)                1.0779         estimate D2E/DX2                !
 ! R32   R(16,31)                1.0753         estimate D2E/DX2                !
 ! A1    A(2,1,17)             109.9325         estimate D2E/DX2                !
 ! A2    A(2,1,18)             109.9359         estimate D2E/DX2                !
 ! A3    A(2,1,19)             108.5514         estimate D2E/DX2                !
 ! A4    A(17,1,18)            110.575          estimate D2E/DX2                !
 ! A5    A(17,1,19)            108.9033         estimate D2E/DX2                !
 ! A6    A(18,1,19)            108.9            estimate D2E/DX2                !
 ! A7    A(1,2,3)              114.775          estimate D2E/DX2                !
 ! A8    A(2,3,4)              124.6018         estimate D2E/DX2                !
 ! A9    A(2,3,6)              117.4724         estimate D2E/DX2                !
 ! A10   A(4,3,6)              117.9258         estimate D2E/DX2                !
 ! A11   A(3,4,5)              120.8242         estimate D2E/DX2                !
 ! A12   A(3,4,20)             119.7618         estimate D2E/DX2                !
 ! A13   A(5,4,20)             119.4139         estimate D2E/DX2                !
 ! A14   A(4,5,8)              120.9507         estimate D2E/DX2                !
 ! A15   A(4,5,21)             120.4425         estimate D2E/DX2                !
 ! A16   A(8,5,21)             118.6056         estimate D2E/DX2                !
 ! A17   A(3,6,7)              121.2377         estimate D2E/DX2                !
 ! A18   A(3,6,22)             118.1275         estimate D2E/DX2                !
 ! A19   A(7,6,22)             120.6346         estimate D2E/DX2                !
 ! A20   A(6,7,8)              120.5897         estimate D2E/DX2                !
 ! A21   A(6,7,23)             120.4615         estimate D2E/DX2                !
 ! A22   A(8,7,23)             118.9425         estimate D2E/DX2                !
 ! A23   A(5,8,7)              118.4713         estimate D2E/DX2                !
 ! A24   A(5,8,9)              120.6736         estimate D2E/DX2                !
 ! A25   A(7,8,9)              120.8549         estimate D2E/DX2                !
 ! A26   A(8,9,10)             117.9649         estimate D2E/DX2                !
 ! A27   A(8,9,11)             122.0485         estimate D2E/DX2                !
 ! A28   A(10,9,11)            119.986          estimate D2E/DX2                !
 ! A29   A(9,10,24)            110.1596         estimate D2E/DX2                !
 ! A30   A(9,10,25)            110.4106         estimate D2E/DX2                !
 ! A31   A(9,10,26)            110.2296         estimate D2E/DX2                !
 ! A32   A(24,10,25)           108.1339         estimate D2E/DX2                !
 ! A33   A(24,10,26)           109.3329         estimate D2E/DX2                !
 ! A34   A(25,10,26)           108.5251         estimate D2E/DX2                !
 ! A35   A(9,11,12)            120.3328         estimate D2E/DX2                !
 ! A36   A(9,11,16)            121.5927         estimate D2E/DX2                !
 ! A37   A(12,11,16)           118.07           estimate D2E/DX2                !
 ! A38   A(11,12,13)           120.999          estimate D2E/DX2                !
 ! A39   A(11,12,27)           118.9632         estimate D2E/DX2                !
 ! A40   A(13,12,27)           120.0328         estimate D2E/DX2                !
 ! A41   A(12,13,14)           120.0809         estimate D2E/DX2                !
 ! A42   A(12,13,28)           119.9657         estimate D2E/DX2                !
 ! A43   A(14,13,28)           119.9532         estimate D2E/DX2                !
 ! A44   A(13,14,15)           119.8155         estimate D2E/DX2                !
 ! A45   A(13,14,29)           120.0895         estimate D2E/DX2                !
 ! A46   A(15,14,29)           120.0949         estimate D2E/DX2                !
 ! A47   A(14,15,16)           120.2268         estimate D2E/DX2                !
 ! A48   A(14,15,30)           119.8576         estimate D2E/DX2                !
 ! A49   A(16,15,30)           119.9156         estimate D2E/DX2                !
 ! A50   A(11,16,15)           120.8066         estimate D2E/DX2                !
 ! A51   A(11,16,31)           119.4938         estimate D2E/DX2                !
 ! A52   A(15,16,31)           119.6983         estimate D2E/DX2                !
 ! D1    D(17,1,2,3)           -60.9337         estimate D2E/DX2                !
 ! D2    D(18,1,2,3)            61.0168         estimate D2E/DX2                !
 ! D3    D(19,1,2,3)          -179.9594         estimate D2E/DX2                !
 ! D4    D(1,2,3,4)             -0.1201         estimate D2E/DX2                !
 ! D5    D(1,2,3,6)            179.8922         estimate D2E/DX2                !
 ! D6    D(2,3,4,5)           -179.9312         estimate D2E/DX2                !
 ! D7    D(2,3,4,20)             0.1526         estimate D2E/DX2                !
 ! D8    D(6,3,4,5)              0.0565         estimate D2E/DX2                !
 ! D9    D(6,3,4,20)          -179.8597         estimate D2E/DX2                !
 ! D10   D(2,3,6,7)            179.9326         estimate D2E/DX2                !
 ! D11   D(2,3,6,22)             0.0697         estimate D2E/DX2                !
 ! D12   D(4,3,6,7)             -0.0559         estimate D2E/DX2                !
 ! D13   D(4,3,6,22)          -179.9189         estimate D2E/DX2                !
 ! D14   D(3,4,5,8)              0.0956         estimate D2E/DX2                !
 ! D15   D(3,4,5,21)          -179.5017         estimate D2E/DX2                !
 ! D16   D(20,4,5,8)          -179.9879         estimate D2E/DX2                !
 ! D17   D(20,4,5,21)            0.4148         estimate D2E/DX2                !
 ! D18   D(4,5,8,7)             -0.2446         estimate D2E/DX2                !
 ! D19   D(4,5,8,9)            179.9115         estimate D2E/DX2                !
 ! D20   D(21,5,8,7)           179.3599         estimate D2E/DX2                !
 ! D21   D(21,5,8,9)            -0.484          estimate D2E/DX2                !
 ! D22   D(3,6,7,8)             -0.0966         estimate D2E/DX2                !
 ! D23   D(3,6,7,23)          -179.1819         estimate D2E/DX2                !
 ! D24   D(22,6,7,8)           179.7629         estimate D2E/DX2                !
 ! D25   D(22,6,7,23)            0.6776         estimate D2E/DX2                !
 ! D26   D(6,7,8,5)              0.2445         estimate D2E/DX2                !
 ! D27   D(6,7,8,9)           -179.9119         estimate D2E/DX2                !
 ! D28   D(23,7,8,5)           179.3435         estimate D2E/DX2                !
 ! D29   D(23,7,8,9)            -0.8129         estimate D2E/DX2                !
 ! D30   D(5,8,9,10)           123.8112         estimate D2E/DX2                !
 ! D31   D(5,8,9,11)           -55.9116         estimate D2E/DX2                !
 ! D32   D(7,8,9,10)           -56.029          estimate D2E/DX2                !
 ! D33   D(7,8,9,11)           124.2482         estimate D2E/DX2                !
 ! D34   D(8,9,10,24)         -113.3808         estimate D2E/DX2                !
 ! D35   D(8,9,10,25)            5.9841         estimate D2E/DX2                !
 ! D36   D(8,9,10,26)          125.8795         estimate D2E/DX2                !
 ! D37   D(11,9,10,24)          66.3479         estimate D2E/DX2                !
 ! D38   D(11,9,10,25)        -174.2871         estimate D2E/DX2                !
 ! D39   D(11,9,10,26)         -54.3918         estimate D2E/DX2                !
 ! D40   D(8,9,11,12)          -12.571          estimate D2E/DX2                !
 ! D41   D(8,9,11,16)          168.213          estimate D2E/DX2                !
 ! D42   D(10,9,11,12)         167.7116         estimate D2E/DX2                !
 ! D43   D(10,9,11,16)         -11.5043         estimate D2E/DX2                !
 ! D44   D(9,11,12,13)        -179.5822         estimate D2E/DX2                !
 ! D45   D(9,11,12,27)          -0.3943         estimate D2E/DX2                !
 ! D46   D(16,11,12,13)         -0.3391         estimate D2E/DX2                !
 ! D47   D(16,11,12,27)        178.8489         estimate D2E/DX2                !
 ! D48   D(9,11,16,15)         179.617          estimate D2E/DX2                !
 ! D49   D(9,11,16,31)          -0.7994         estimate D2E/DX2                !
 ! D50   D(12,11,16,15)          0.3839         estimate D2E/DX2                !
 ! D51   D(12,11,16,31)        179.9676         estimate D2E/DX2                !
 ! D52   D(11,12,13,14)          0.0841         estimate D2E/DX2                !
 ! D53   D(11,12,13,28)        179.9523         estimate D2E/DX2                !
 ! D54   D(27,12,13,14)       -179.0952         estimate D2E/DX2                !
 ! D55   D(27,12,13,28)          0.773          estimate D2E/DX2                !
 ! D56   D(12,13,14,15)          0.1353         estimate D2E/DX2                !
 ! D57   D(12,13,14,29)       -179.9809         estimate D2E/DX2                !
 ! D58   D(28,13,14,15)       -179.733          estimate D2E/DX2                !
 ! D59   D(28,13,14,29)          0.1508         estimate D2E/DX2                !
 ! D60   D(13,14,15,16)         -0.0902         estimate D2E/DX2                !
 ! D61   D(13,14,15,30)        179.92           estimate D2E/DX2                !
 ! D62   D(29,14,15,16)       -179.9739         estimate D2E/DX2                !
 ! D63   D(29,14,15,30)          0.0362         estimate D2E/DX2                !
 ! D64   D(14,15,16,11)         -0.1748         estimate D2E/DX2                !
 ! D65   D(14,15,16,31)       -179.7576         estimate D2E/DX2                !
 ! D66   D(30,15,16,11)        179.815          estimate D2E/DX2                !
 ! D67   D(30,15,16,31)          0.2322         estimate D2E/DX2                !
 --------------------------------------------------------------------------------
 Trust Radius=3.00D-01 FncErr=1.00D-07 GrdErr=1.00D-06 EigMax=2.50D+02 EigMin=1.00D-04
 Number of steps in this run=    161 maximum allowed number of steps=    186.
 GradGradGradGradGradGradGradGradGradGradGradGradGradGradGradGradGradGrad

                          Input orientation:                          
 ---------------------------------------------------------------------
 Center     Atomic      Atomic             Coordinates (Angstroms)
 Number     Number       Type             X           Y           Z
 ---------------------------------------------------------------------
      1          6           0        4.876010   -1.423680    0.523950
      2          8           0        4.414980   -0.403310   -0.327500
      3          6           0        3.063270   -0.058160   -0.155140
      4          6           0        2.205060   -0.653020    0.771590
      5          6           0        0.893110   -0.254930    0.873450
      6          6           0        2.547240    0.950660   -0.970340
      7          6           0        1.235960    1.348350   -0.868310
      8          6           0        0.384140    0.749660    0.055090
      9          7           0       -0.990620    1.160390    0.165490
     10          6           0       -1.265250    2.571560    0.423840
     11          6           0       -2.065240    0.239730    0.036950
     12          6           0       -1.837310   -1.044610   -0.457860
     13          6           0       -2.869500   -1.944530   -0.596090
     14          6           0       -4.155110   -1.582560   -0.244890
     15          6           0       -4.402490   -0.314180    0.242740
     16          6           0       -3.371860    0.588500    0.381200
     17          1           0        4.780170   -1.111300    1.564420
     18          1           0        4.312250   -2.340010    0.345410
     19          1           0        5.928390   -1.608300    0.306030
     20          1           0        2.572020   -1.431120    1.415620
     21          1           0        0.239050   -0.712140    1.595460
     22          1           0        3.205200    1.410240   -1.686340
     23          1           0        0.847780    2.118210   -1.511990
     24          1           0       -1.708710    2.692890    1.410230
     25          1           0       -0.343500    3.149360    0.393460
     26          1           0       -1.945800    2.966350   -0.328220
     27          1           0       -0.838840   -1.322420   -0.745250
     28          1           0       -2.674650   -2.932280   -0.980890
     29          1           0       -4.963380   -2.287200   -0.352780
     30          1           0       -5.405850   -0.030520    0.515840
     31          1           0       -3.573430    1.572410    0.765380
 ---------------------------------------------------------------------
                    Distance matrix (angstroms):
                    1          2          3          4          5
     1  C    0.000000
     2  O    1.406652   0.000000
     3  C    2.368931   1.405687   0.000000
     4  C    2.790917   2.480746   1.396142   0.000000
     5  C    4.165527   3.723958   2.409629   1.374796   0.000000
     6  C    3.646034   2.394772   1.395907   2.392320   2.754842
     7  C    4.782520   3.669735   2.413699   2.762953   2.392024
     8  C    5.011999   4.209915   2.806155   2.407620   1.392108
     9  N    6.420534   5.648779   4.245196   3.724001   2.460239
    10  C    7.327144   6.455957   5.097718   4.749937   3.584650
    11  C    7.154373   6.522237   5.140744   4.424043   3.113881
    12  C    6.795315   6.286445   5.008034   4.243306   3.138658
    13  C    7.843386   7.450580   6.241041   5.411996   4.378531
    14  C    9.065180   8.651237   7.378134   6.507614   5.338334
    15  C    9.348830   8.836339   7.480737   6.637335   5.333356
    16  C    8.490972   7.881676   6.489740   5.726763   4.375346
    17  H    1.090571   2.052797   2.648346   2.733092   4.039807
    18  H    1.090579   2.052844   2.649026   2.732730   4.039419
    19  H    1.090448   2.035625   3.290064   3.872014   5.244771
    20  H    2.470526   2.737035   2.143276   1.074651   2.120403
    21  H    4.812050   4.607770   3.386519   2.132476   1.076166
    22  H    3.963343   2.568847   2.126245   3.361360   3.830284
    23  H    5.737305   4.526146   3.389104   3.838836   3.365141
    24  H    7.816021   7.078541   5.726295   5.188504   3.968280
    25  H    6.940678   5.982005   4.711181   4.593064   3.653599
    26  H    8.156939   7.198203   5.853922   5.615965   4.458707
    27  H    5.854967   5.349944   4.144037   3.466155   2.599880
    28  H    7.845565   7.555492   6.470406   5.663725   4.830703
    29  H    9.916043   9.565737   8.332754   7.437828   6.319196
    30  H   10.375818   9.864020   8.495703   7.640606   6.313093
    31  H    8.968159   8.301358   6.895789   6.192215   4.827093
                    6          7          8          9         10
     6  C    0.000000
     7  C    1.374053   0.000000
     8  C    2.402272   1.391652   0.000000
     9  N    3.721633   2.462058   1.439046   0.000000
    10  C    4.371056   3.069519   2.485112   1.460674   0.000000
    11  C    4.774414   3.598118   2.501963   1.420896   2.495416
    12  C    4.844380   3.916595   2.901269   2.442841   3.765811
    13  C    6.153313   5.269911   4.274210   3.708197   4.899892
    14  C    7.201734   6.167862   5.112145   4.207872   5.104430
    15  C    7.167296   5.982521   4.907015   3.717685   4.266447
    16  C    6.082234   4.834320   3.773573   2.458433   2.893467
    17  H    3.957608   4.952724   5.006628   6.357641   7.170180
    18  H    3.959162   4.953855   5.006036   6.356540   7.432239
    19  H    4.428270   5.669193   6.030063   7.453730   8.320671
    20  H    3.371394   3.837557   3.375450   4.579427   5.632914
    21  H    3.830923   3.362977   2.128532   2.657682   3.797143
    22  H    1.075538   2.133286   3.380433   4.593104   5.078036
    23  H    2.131835   1.075961   2.131579   2.666659   2.901355
    24  H    5.178377   3.958613   3.161102   2.100854   1.088275
    25  H    3.879512   2.707470   2.530319   2.103981   1.088301
    26  H    4.966159   3.610155   3.238713   2.101811   1.088394
    27  H    4.084495   3.384221   2.535693   2.648930   4.087992
    28  H    6.507340   5.799081   4.897564   4.571662   5.852515
    29  H    8.202105   7.205193   6.163185   5.285575   6.155230
    30  H    8.150036   6.923207   5.860457   4.586422   4.891202
    31  H    6.392331   5.084228   4.104119   2.683381   2.538237
                   11         12         13         14         15
    11  C    0.000000
    12  C    1.395105   0.000000
    13  C    2.412170   1.376365   0.000000
    14  C    2.787065   2.388921   1.380998   0.000000
    15  C    2.410789   2.757629   2.389924   1.381220   0.000000
    16  C    1.395494   2.392888   2.761105   2.391437   1.377026
    17  H    7.142695   6.919906   7.992467   9.128796   9.311471
    18  H    6.886406   6.335645   7.253989   8.521641   8.947694
    19  H    8.208882   7.823514   8.850409  10.098572  10.411812
    20  H    5.118266   4.806403   5.824149   6.930693   7.160097
    21  H    2.940198   2.939036   3.998094   4.842846   4.850991
    22  H    5.667218   5.741285   7.024607   8.075196   8.035666
    23  H    3.796523   4.280693   5.582374   6.350602   6.046564
    24  H    2.833903   4.180335   5.184440   5.196515   4.202613
    25  H    3.399623   4.532725   5.771274   6.109577   5.337998
    26  H    2.753556   4.014521   5.004170   5.057724   4.138019
    27  H    2.134527   1.075506   2.129049   3.363879   3.833050
    28  H    3.386595   2.130257   1.077816   2.134292   3.367068
    29  H    3.864774   3.365618   2.135639   1.077710   2.135895
    30  H    3.385564   3.835485   3.366436   2.133516   1.077858
    31  H    2.140393   3.370345   3.836403   3.363455   2.125962
                   16         17         18         19         20
    16  C    0.000000
    17  H    8.411000   0.000000
    18  H    8.223320   1.792948   0.000000
    19  H    9.556476   1.774532   1.774502   0.000000
    20  H    6.362279   2.236147   2.236030   3.539464   0.000000
    21  H    4.025514   4.558735   4.561090   5.902061   2.447861
    22  H    6.943176   4.405239   4.406579   4.527349   4.253986
    23  H    4.871298   5.946236   5.943754   6.557795   4.913415
    24  H    2.872878   7.523377   7.919336   8.834296   5.944084
    25  H    3.965995   6.765823   7.198021   7.872711   5.525022
    26  H    2.862009   8.089993   8.232522   9.128667   6.541362
    27  H    3.367001   6.078850   5.362719   6.854365   4.039201
    28  H    3.838917   8.085104   7.136289   8.798942   5.960225
    29  H    3.367687   9.999758   9.302020  10.932776   7.787321
    30  H    2.130359  10.296728   9.990208  11.445454   8.149705
    31  H    1.075316   8.810414   8.812908  10.030578   6.870994
                   21         22         23         24         25
    21  H    0.000000
    22  H    4.906399   0.000000
    23  H    4.247079   2.467600   0.000000
    24  H    3.927125   5.948147   3.924955   0.000000
    25  H    4.085994   4.465801   2.472480   1.762380   0.000000
    26  H    4.690992   5.549664   3.150356   1.775725   1.766828
    27  H    2.648247   4.970648   3.907750   4.639556   4.640995
    28  H    4.478420   7.343553   6.180375   6.188136   6.656534
    29  H    5.774230   9.065051   7.383833   6.205028   7.173308
    30  H    5.787494   9.004197   6.916431   4.678220   5.979465
    31  H    4.521416   7.210205   5.003140   2.269028   3.613522
                   26         27         28         29         30
    26  H    0.000000
    27  H    4.448913   0.000000
    28  H    5.979217   2.453034   0.000000
    29  H    6.058563   4.254017   2.459458   0.000000
    30  H    4.654634   4.910900   4.256744   2.458228   0.000000
    31  H    2.405870   4.259111   4.914214   4.251921   2.447329
                   31
    31  H    0.000000
 Stoichiometry    C14H15NO
 Framework group  C1[X(C14H15NO)]
 Deg. of freedom    87
 Full point group                 C1      NOp   1
 Largest Abelian subgroup         C1      NOp   1
 Largest concise Abelian subgroup C1      NOp   1
                         Standard orientation:                         
 ---------------------------------------------------------------------
 Center     Atomic      Atomic             Coordinates (Angstroms)
 Number     Number       Type             X           Y           Z
 ---------------------------------------------------------------------
      1          6           0       -4.891525   -1.370579   -0.489836
      2          8           0       -4.416217   -0.350606    0.354208
      3          6           0       -3.061103   -0.022205    0.175955
      4          6           0       -2.212550   -0.632470   -0.749650
      5          6           0       -0.896373   -0.250254   -0.857607
      6          6           0       -2.531039    0.985365    0.983662
      7          6           0       -1.215538    1.367188    0.875539
      8          6           0       -0.373408    0.753187   -0.046695
      9          7           0        1.005695    1.147262   -0.163445
     10          6           0        1.295918    2.553593   -0.430975
     11          6           0        2.069936    0.214962   -0.032477
     12          6           0        1.828568   -1.063691    0.470620
     13          6           0        2.850651   -1.974703    0.611275
     14          6           0        4.139345   -1.629775    0.254273
     15          6           0        4.399996   -0.367264   -0.241604
     16          6           0        3.379505    0.546488   -0.382509
     17          1           0       -4.795097   -1.065501   -1.532416
     18          1           0       -4.337912   -2.292321   -0.307444
     19          1           0       -5.945337   -1.541670   -0.267831
     20          1           0       -2.590381   -1.410057   -1.387989
     21          1           0       -0.249763   -0.719298   -1.578736
     22          1           0       -3.181538    1.456788    1.698778
     23          1           0       -0.816584    2.136287    1.513517
     24          1           0        1.737883    2.663920   -1.419326
     25          1           0        0.381023    3.142228   -0.401419
     26          1           0        1.983186    2.944900    0.316783
     27          1           0        0.827784   -1.328180    0.762496
     28          1           0        2.645480   -2.957827    1.002503
     29          1           0        4.939699   -2.343103    0.364062
     30          1           0        5.405779   -0.096898   -0.519238
     31          1           0        3.591353    1.525698   -0.773114
 ---------------------------------------------------------------------
 Rotational constants (GHZ):           1.2648000           0.2626908           0.2318233
 Standard basis: def2SVP (5D, 7F)
 There are   315 symmetry adapted cartesian basis functions of A   symmetry.
 There are   299 symmetry adapted basis functions of A   symmetry.
   299 basis functions,   505 primitive gaussians,   315 cartesian basis functions
    57 alpha electrons       57 beta electrons
       nuclear repulsion energy      1020.5826766648 Hartrees.
 NAtoms=   31 NActive=   31 NUniq=   31 SFac= 1.00D+00 NAtFMM=   60 NAOKFM=F Big=F
 Integral buffers will be    131072 words long.
 Raffenetti 2 integral format.
 Two-electron integral symmetry is turned on.
 Nuclear repulsion after empirical dispersion term =     1020.5624184719 Hartrees.
 One-electron integrals computed using PRISM.
   1 Symmetry operations used in ECPInt.
 ECPInt:  NShTT=   10011 NPrTT=   36031 LenC2=    9200 LenP2D=   24003.
 LDataN:  DoStor=T MaxTD1= 4 Len=   56
 NBasis=   299 RedAO= T EigKep=  2.15D-04  NBF=   299
 NBsUse=   299 1.00D-06 EigRej= -1.00D+00 NBFU=   299
 ExpMin= 1.22D-01 ExpMax= 2.27D+03 ExpMxC= 3.41D+02 IAcc=3 IRadAn=         5 AccDes= 0.00D+00
 Harris functional with IExCor= 4639 and IRadAn=       5 diagonalized for initial guess.
 HarFok:  IExCor= 4639 AccDes= 0.00D+00 IRadAn=         5 IDoV= 1 UseB2=F ITyADJ=14
 ICtDFT=  3500011 ScaDFX=  1.000000  1.000000  1.000000  1.000000
 FoFCou: FMM=F IPFlag=           0 FMFlag=      100000 FMFlg1=           0
         NFxFlg=           0 DoJE=T BraDBF=F KetDBF=T FulRan=T
         wScrn=  0.000000 ICntrl=       500 IOpCl=  0 I1Cent=   200000004 NGrid=           0
         NMat0=    1 NMatS0=      1 NMatT0=    0 NMatD0=    1 NMtDS0=    0 NMtDT0=    0
 Petite list used in FoFCou.
 Requested convergence on RMS density matrix=1.00D-08 within 128 cycles.
 Requested convergence on MAX density matrix=1.00D-06.
 Requested convergence on             energy=1.00D-06.
 No special actions if energy rises.
 Integral accuracy reduced to 1.0D-05 until final iterations.
 Initial convergence to 1.0D-05 achieved.  Increase integral accuracy.
 SCF Done:  E(RwB97XD) =  -671.770773160     A.U. after   15 cycles
            NFock= 15  Conv=0.65D-08     -V/T= 2.0105

 **********************************************************************

            Population analysis using the SCF Density.

 **********************************************************************

 Orbital symmetries:
       Occupied  (A) (A) (A) (A) (A) (A) (A) (A) (A) (A) (A) (A)
                 (A) (A) (A) (A) (A) (A) (A) (A) (A) (A) (A) (A)
                 (A) (A) (A) (A) (A) (A) (A) (A) (A) (A) (A) (A)
                 (A) (A) (A) (A) (A) (A) (A) (A) (A) (A) (A) (A)
                 (A) (A) (A) (A) (A) (A) (A) (A) (A)
       Virtual   (A) (A) (A) (A) (A) (A) (A) (A) (A) (A) (A) (A)
                 (A) (A) (A) (A) (A) (A) (A) (A) (A) (A) (A) (A)
                 (A) (A) (A) (A) (A) (A) (A) (A) (A) (A) (A) (A)
                 (A) (A) (A) (A) (A) (A) (A) (A) (A) (A) (A) (A)
                 (A) (A) (A) (A) (A) (A) (A) (A) (A) (A) (A) (A)
                 (A) (A) (A) (A) (A) (A) (A) (A) (A) (A) (A) (A)
                 (A) (A) (A) (A) (A) (A) (A) (A) (A) (A) (A) (A)
                 (A) (A) (A) (A) (A) (A) (A) (A) (A) (A) (A) (A)
                 (A) (A) (A) (A) (A) (A) (A) (A) (A) (A) (A) (A)
                 (A) (A) (A) (A) (A) (A) (A) (A) (A) (A) (A) (A)
                 (A) (A) (A) (A) (A) (A) (A) (A) (A) (A) (A) (A)
                 (A) (A) (A) (A) (A) (A) (A) (A) (A) (A) (A) (A)
                 (A) (A) (A) (A) (A) (A) (A) (A) (A) (A) (A) (A)
                 (A) (A) (A) (A) (A) (A) (A) (A) (A) (A) (A) (A)
                 (A) (A) (A) (A) (A) (A) (A) (A) (A) (A) (A) (A)
                 (A) (A) (A) (A) (A) (A) (A) (A) (A) (A) (A) (A)
                 (A) (A) (A) (A) (A) (A) (A) (A) (A) (A) (A) (A)
                 (A) (A) (A) (A) (A) (A) (A) (A) (A) (A) (A) (A)
                 (A) (A) (A) (A) (A) (A) (A) (A) (A) (A) (A) (A)
                 (A) (A) (A) (A) (A) (A) (A) (A) (A) (A) (A) (A)
                 (A) (A)
 The electronic state is 1-A.
 Alpha  occ. eigenvalues --  -19.28564 -14.46075 -10.36157 -10.34978 -10.33622
 Alpha  occ. eigenvalues --  -10.33489 -10.32777 -10.30293 -10.30277 -10.30200
 Alpha  occ. eigenvalues --  -10.29948 -10.29092 -10.28993 -10.28607 -10.28302
 Alpha  occ. eigenvalues --  -10.28003  -1.14826  -1.03854  -0.95651  -0.93691
 Alpha  occ. eigenvalues --   -0.85521  -0.85019  -0.83722  -0.82765  -0.79516
 Alpha  occ. eigenvalues --   -0.75929  -0.71297  -0.69969  -0.68564  -0.66228
 Alpha  occ. eigenvalues --   -0.63286  -0.61606  -0.58662  -0.57815  -0.56119
 Alpha  occ. eigenvalues --   -0.55358  -0.54032  -0.53193  -0.52596  -0.52381
 Alpha  occ. eigenvalues --   -0.51443  -0.50390  -0.50180  -0.48805  -0.47322
 Alpha  occ. eigenvalues --   -0.46727  -0.45997  -0.44718  -0.43334  -0.41769
 Alpha  occ. eigenvalues --   -0.41324  -0.40647  -0.37181  -0.34160  -0.32665
 Alpha  occ. eigenvalues --   -0.31138  -0.25768
 Alpha virt. eigenvalues --    0.05487   0.06211   0.07519   0.09349   0.13968
 Alpha virt. eigenvalues --    0.14978   0.15756   0.17058   0.18563   0.19118
 Alpha virt. eigenvalues --    0.19964   0.20465   0.21088   0.21344   0.21644
 Alpha virt. eigenvalues --    0.22069   0.23037   0.23311   0.23960   0.24933
 Alpha virt. eigenvalues --    0.25624   0.26007   0.26368   0.30666   0.31884
 Alpha virt. eigenvalues --    0.34765   0.36243   0.37124   0.37999   0.39307
 Alpha virt. eigenvalues --    0.39686   0.40939   0.41541   0.43146   0.43910
 Alpha virt. eigenvalues --    0.45313   0.47191   0.49005   0.49374   0.50111
 Alpha virt. eigenvalues --    0.51141   0.52195   0.53500   0.53929   0.54895
 Alpha virt. eigenvalues --    0.55665   0.57033   0.57763   0.57962   0.58097
 Alpha virt. eigenvalues --    0.58862   0.59389   0.60462   0.60636   0.60871
 Alpha virt. eigenvalues --    0.63900   0.64677   0.65143   0.65890   0.67317
 Alpha virt. eigenvalues --    0.68137   0.69646   0.71858   0.71942   0.72315
 Alpha virt. eigenvalues --    0.73070   0.73260   0.73764   0.74197   0.74808
 Alpha virt. eigenvalues --    0.75146   0.75600   0.75940   0.76779   0.76929
 Alpha virt. eigenvalues --    0.77895   0.77929   0.79138   0.80117   0.81092
 Alpha virt. eigenvalues --    0.81495   0.82104   0.83162   0.84688   0.84943
 Alpha virt. eigenvalues --    0.86499   0.87728   0.88956   0.89194   0.91295
 Alpha virt. eigenvalues --    0.92272   0.92557   0.93101   0.94547   1.00034
 Alpha virt. eigenvalues --    1.02211   1.03251   1.04485   1.05723   1.08457
 Alpha virt. eigenvalues --    1.10475   1.11555   1.14446   1.18033   1.19712
 Alpha virt. eigenvalues --    1.20585   1.22875   1.25303   1.27075   1.29545
 Alpha virt. eigenvalues --    1.32013   1.32564   1.33382   1.33746   1.34818
 Alpha virt. eigenvalues --    1.35235   1.36817   1.37690   1.38140   1.39068
 Alpha virt. eigenvalues --    1.39985   1.40948   1.41743   1.43773   1.47614
 Alpha virt. eigenvalues --    1.51954   1.55316   1.60027   1.60837   1.61206
 Alpha virt. eigenvalues --    1.62367   1.64668   1.67072   1.72062   1.74209
 Alpha virt. eigenvalues --    1.76779   1.77348   1.78116   1.78576   1.79341
 Alpha virt. eigenvalues --    1.80233   1.81798   1.82996   1.83306   1.84464
 Alpha virt. eigenvalues --    1.84984   1.85704   1.86307   1.87082   1.87314
 Alpha virt. eigenvalues --    1.88318   1.88940   1.89569   1.90173   1.90844
 Alpha virt. eigenvalues --    1.91637   1.92643   1.94061   1.94768   1.96369
 Alpha virt. eigenvalues --    1.97579   1.98321   1.99985   2.01596   2.01805
 Alpha virt. eigenvalues --    2.05166   2.05531   2.06497   2.07700   2.09578
 Alpha virt. eigenvalues --    2.09772   2.11569   2.14617   2.16632   2.17199
 Alpha virt. eigenvalues --    2.18695   2.22758   2.23268   2.24727   2.25410
 Alpha virt. eigenvalues --    2.25898   2.26466   2.28836   2.29030   2.29771
 Alpha virt. eigenvalues --    2.32638   2.32737   2.35037   2.36606   2.39074
 Alpha virt. eigenvalues --    2.40709   2.41355   2.41863   2.42107   2.44844
 Alpha virt. eigenvalues --    2.45437   2.45739   2.46591   2.49188   2.51774
 Alpha virt. eigenvalues --    2.53800   2.57814   2.59676   2.65718   2.69417
 Alpha virt. eigenvalues --    2.70357   2.71872   2.72646   2.73355   2.75086
 Alpha virt. eigenvalues --    2.76192   2.77096   2.78952   2.83368   2.85555
 Alpha virt. eigenvalues --    2.85863   2.86320   2.88772   2.89838   2.91605
 Alpha virt. eigenvalues --    2.95709   2.97150   2.97521   3.00218   3.01653
 Alpha virt. eigenvalues --    3.02545   3.03448   3.05902   3.06990   3.07353
 Alpha virt. eigenvalues --    3.14235   3.17176   3.20677   3.23281   3.28753
 Alpha virt. eigenvalues --    3.29982   3.34506   3.44542   3.51389   3.54932
 Alpha virt. eigenvalues --    3.80244   3.81990
          Condensed to atoms (all electrons):
               1          2          3          4          5          6
     1  C    4.393857   0.301536  -0.058391   0.000854   0.001266   0.006213
     2  O    0.301536   7.915769   0.384585  -0.080569   0.004422  -0.067578
     3  C   -0.058391   0.384585   5.065004   0.162021   0.119810   0.281750
     4  C    0.000854  -0.080569   0.162021   5.366608   0.207760   0.055824
     5  C    0.001266   0.004422   0.119810   0.207760   5.142856  -0.129114
     6  C    0.006213  -0.067578   0.281750   0.055824  -0.129114   5.131905
     7  C   -0.000231   0.003309   0.116722  -0.142888   0.059799   0.259973
     8  C    0.000046  -0.000012  -0.182797   0.122023   0.260357   0.119851
     9  N   -0.000000   0.000000  -0.000018   0.009754  -0.072760   0.008476
    10  C   -0.000000  -0.000000   0.000048  -0.000098   0.002637   0.000018
    11  C    0.000000  -0.000000  -0.000019   0.000058  -0.007085  -0.000065
    12  C   -0.000000  -0.000000   0.000057  -0.001939  -0.003234  -0.000061
    13  C    0.000000   0.000000  -0.000000   0.000024  -0.000012   0.000000
    14  C   -0.000000  -0.000000   0.000000  -0.000002  -0.000024   0.000000
    15  C    0.000000  -0.000000  -0.000000   0.000002  -0.000019  -0.000000
    16  C   -0.000000   0.000000   0.000000  -0.000030   0.000063   0.000004
    17  H    0.403254  -0.030947  -0.009173   0.005617   0.000611  -0.000148
    18  H    0.403105  -0.030946  -0.009887   0.006230   0.000744  -0.000204
    19  H    0.397818  -0.020604   0.005153   0.000254  -0.000033  -0.000081
    20  H    0.008680  -0.008091  -0.094661   0.461150  -0.056822   0.013138
    21  H   -0.000031  -0.000053   0.015264  -0.069728   0.462563  -0.002999
    22  H   -0.000199   0.001509  -0.070095   0.019771  -0.003171   0.443652
    23  H    0.000007  -0.000057   0.016162  -0.003388   0.017795  -0.072806
    24  H   -0.000000   0.000000  -0.000005  -0.000109   0.001141   0.000068
    25  H    0.000000  -0.000000  -0.000071  -0.000046  -0.000365   0.000064
    26  H    0.000000   0.000000   0.000002   0.000040  -0.000626  -0.000097
    27  H   -0.000002  -0.000000   0.000152  -0.000754   0.001840   0.000028
    28  H    0.000000   0.000000  -0.000000  -0.000001   0.000029  -0.000000
    29  H    0.000000   0.000000  -0.000000   0.000000   0.000000   0.000000
    30  H   -0.000000   0.000000  -0.000000  -0.000000  -0.000000   0.000000
    31  H   -0.000000   0.000000   0.000000  -0.000000  -0.000021   0.000000
               7          8          9         10         11         12
     1  C   -0.000231   0.000046  -0.000000  -0.000000   0.000000  -0.000000
     2  O    0.003309  -0.000012   0.000000  -0.000000  -0.000000  -0.000000
     3  C    0.116722  -0.182797  -0.000018   0.000048  -0.000019   0.000057
     4  C   -0.142888   0.122023   0.009754  -0.000098   0.000058  -0.001939
     5  C    0.059799   0.260357  -0.072760   0.002637  -0.007085  -0.003234
     6  C    0.259973   0.119851   0.008476   0.000018  -0.000065  -0.000061
     7  C    5.130349   0.258017  -0.073870  -0.006410   0.002575   0.000829
     8  C    0.258017   5.216782   0.291533  -0.051434  -0.044317  -0.004917
     9  N   -0.073870   0.291533   6.818593   0.340385   0.346685  -0.089192
    10  C   -0.006410  -0.051434   0.340385   4.433032  -0.051763   0.006590
    11  C    0.002575  -0.044317   0.346685  -0.051763   5.044415   0.271682
    12  C    0.000829  -0.004917  -0.089192   0.006590   0.271682   5.192571
    13  C   -0.000039  -0.000650   0.008556  -0.000253   0.122065   0.281891
    14  C   -0.000003   0.000034  -0.000674   0.000084  -0.165479   0.088599
    15  C    0.000006  -0.000116   0.008125   0.000382   0.121777  -0.155916
    16  C   -0.000416   0.007495  -0.091631   0.003603   0.258079   0.073457
    17  H    0.000055  -0.000097   0.000000   0.000000  -0.000000  -0.000000
    18  H    0.000008  -0.000092  -0.000000  -0.000000   0.000000   0.000001
    19  H    0.000007   0.000005  -0.000000   0.000000  -0.000000  -0.000000
    20  H   -0.002357   0.016723  -0.000167   0.000004  -0.000010   0.000034
    21  H    0.017009  -0.071927  -0.009733  -0.000162   0.003156   0.001319
    22  H   -0.068660   0.015768  -0.000138  -0.000012   0.000007  -0.000001
    23  H    0.460689  -0.073265  -0.009036   0.002118  -0.000244  -0.000086
    24  H   -0.000159   0.004553  -0.031843   0.398975  -0.010345  -0.000496
    25  H    0.003199  -0.005191  -0.019293   0.399814   0.006080  -0.000131
    26  H    0.001505   0.001828  -0.029358   0.400935  -0.007385   0.000135
    27  H   -0.001258   0.007167  -0.016386  -0.000114  -0.067955   0.459310
    28  H    0.000003  -0.000011  -0.000107   0.000006   0.015341  -0.069279
    29  H    0.000000   0.000000   0.000011  -0.000000  -0.001435   0.014959
    30  H   -0.000000   0.000007  -0.000092  -0.000038   0.015405  -0.001946
    31  H    0.000009  -0.000142  -0.016614   0.011944  -0.078269   0.016888
              13         14         15         16         17         18
     1  C    0.000000  -0.000000   0.000000  -0.000000   0.403254   0.403105
     2  O    0.000000  -0.000000  -0.000000   0.000000  -0.030947  -0.030946
     3  C   -0.000000   0.000000  -0.000000   0.000000  -0.009173  -0.009887
     4  C    0.000024  -0.000002   0.000002  -0.000030   0.005617   0.006230
     5  C   -0.000012  -0.000024  -0.000019   0.000063   0.000611   0.000744
     6  C    0.000000   0.000000  -0.000000   0.000004  -0.000148  -0.000204
     7  C   -0.000039  -0.000003   0.000006  -0.000416   0.000055   0.000008
     8  C   -0.000650   0.000034  -0.000116   0.007495  -0.000097  -0.000092
     9  N    0.008556  -0.000674   0.008125  -0.091631   0.000000  -0.000000
    10  C   -0.000253   0.000084   0.000382   0.003603   0.000000  -0.000000
    11  C    0.122065  -0.165479   0.121777   0.258079  -0.000000   0.000000
    12  C    0.281891   0.088599  -0.155916   0.073457  -0.000000   0.000001
    13  C    5.048978   0.271396   0.103507  -0.155193   0.000000  -0.000000
    14  C    0.271396   5.118579   0.281257   0.088349  -0.000000   0.000000
    15  C    0.103507   0.281257   5.047695   0.269471   0.000000  -0.000000
    16  C   -0.155193   0.088349   0.269471   5.217332  -0.000000   0.000000
    17  H    0.000000  -0.000000   0.000000  -0.000000   0.662337  -0.043681
    18  H   -0.000000   0.000000  -0.000000   0.000000  -0.043681   0.661834
    19  H    0.000000  -0.000000   0.000000  -0.000000  -0.023422  -0.023289
    20  H   -0.000000  -0.000000   0.000000  -0.000000   0.000111   0.000731
    21  H   -0.000073  -0.000002   0.000007  -0.000553   0.000032   0.000024
    22  H   -0.000000   0.000000   0.000000  -0.000000   0.000090   0.000072
    23  H    0.000004   0.000000   0.000000  -0.000055  -0.000000  -0.000000
    24  H    0.000054  -0.000063   0.000847   0.003850  -0.000000   0.000000
    25  H    0.000004   0.000004  -0.000051   0.000498  -0.000000   0.000000
    26  H   -0.000029  -0.000080   0.000889   0.005245   0.000000  -0.000000
    27  H   -0.072238   0.015155  -0.002469   0.016236  -0.000001   0.000004
    28  H    0.453922  -0.072562   0.014351  -0.001944   0.000000  -0.000000
    29  H   -0.070852   0.452294  -0.070721   0.014915   0.000000  -0.000000
    30  H    0.014320  -0.070950   0.453138  -0.069722   0.000000  -0.000000
    31  H   -0.002556   0.015811  -0.072092   0.459391  -0.000000   0.000000
              19         20         21         22         23         24
     1  C    0.397818   0.008680  -0.000031  -0.000199   0.000007  -0.000000
     2  O   -0.020604  -0.008091  -0.000053   0.001509  -0.000057   0.000000
     3  C    0.005153  -0.094661   0.015264  -0.070095   0.016162  -0.000005
     4  C    0.000254   0.461150  -0.069728   0.019771  -0.003388  -0.000109
     5  C   -0.000033  -0.056822   0.462563  -0.003171   0.017795   0.001141
     6  C   -0.000081   0.013138  -0.002999   0.443652  -0.072806   0.000068
     7  C    0.000007  -0.002357   0.017009  -0.068660   0.460689  -0.000159
     8  C    0.000005   0.016723  -0.071927   0.015768  -0.073265   0.004553
     9  N   -0.000000  -0.000167  -0.009733  -0.000138  -0.009036  -0.031843
    10  C    0.000000   0.000004  -0.000162  -0.000012   0.002118   0.398975
    11  C   -0.000000  -0.000010   0.003156   0.000007  -0.000244  -0.010345
    12  C   -0.000000   0.000034   0.001319  -0.000001  -0.000086  -0.000496
    13  C    0.000000  -0.000000  -0.000073  -0.000000   0.000004   0.000054
    14  C   -0.000000  -0.000000  -0.000002   0.000000   0.000000  -0.000063
    15  C    0.000000   0.000000   0.000007   0.000000   0.000000   0.000847
    16  C   -0.000000  -0.000000  -0.000553  -0.000000  -0.000055   0.003850
    17  H   -0.023422   0.000111   0.000032   0.000090  -0.000000  -0.000000
    18  H   -0.023289   0.000731   0.000024   0.000072  -0.000000   0.000000
    19  H    0.610418  -0.000306  -0.000001  -0.000098  -0.000000  -0.000000
    20  H   -0.000306   0.677848  -0.013785  -0.000215   0.000019   0.000002
    21  H   -0.000001  -0.013785   0.659009   0.000022  -0.000234  -0.000047
    22  H   -0.000098  -0.000215   0.000022   0.663193  -0.013403  -0.000001
    23  H   -0.000000   0.000019  -0.000234  -0.013403   0.673061   0.000263
    24  H   -0.000000   0.000002  -0.000047  -0.000001   0.000263   0.656534
    25  H   -0.000000   0.000001  -0.000021   0.000034   0.000511  -0.020490
    26  H   -0.000000  -0.000001   0.000014   0.000003  -0.000890  -0.040396
    27  H   -0.000000   0.000010  -0.001717  -0.000003  -0.000083  -0.000030
    28  H   -0.000000  -0.000000   0.000013   0.000000  -0.000000  -0.000000
    29  H    0.000000   0.000000  -0.000000   0.000000   0.000000   0.000000
    30  H   -0.000000   0.000000  -0.000001  -0.000000  -0.000000   0.000019
    31  H   -0.000000  -0.000000  -0.000006  -0.000000  -0.000005  -0.001496
              25         26         27         28         29         30
     1  C    0.000000   0.000000  -0.000002   0.000000   0.000000  -0.000000
     2  O   -0.000000   0.000000  -0.000000   0.000000   0.000000   0.000000
     3  C   -0.000071   0.000002   0.000152  -0.000000  -0.000000  -0.000000
     4  C   -0.000046   0.000040  -0.000754  -0.000001   0.000000  -0.000000
     5  C   -0.000365  -0.000626   0.001840   0.000029   0.000000  -0.000000
     6  C    0.000064  -0.000097   0.000028  -0.000000   0.000000   0.000000
     7  C    0.003199   0.001505  -0.001258   0.000003   0.000000  -0.000000
     8  C   -0.005191   0.001828   0.007167  -0.000011   0.000000   0.000007
     9  N   -0.019293  -0.029358  -0.016386  -0.000107   0.000011  -0.000092
    10  C    0.399814   0.400935  -0.000114   0.000006  -0.000000  -0.000038
    11  C    0.006080  -0.007385  -0.067955   0.015341  -0.001435   0.015405
    12  C   -0.000131   0.000135   0.459310  -0.069279   0.014959  -0.001946
    13  C    0.000004  -0.000029  -0.072238   0.453922  -0.070852   0.014320
    14  C    0.000004  -0.000080   0.015155  -0.072562   0.452294  -0.070950
    15  C   -0.000051   0.000889  -0.002469   0.014351  -0.070721   0.453138
    16  C    0.000498   0.005245   0.016236  -0.001944   0.014915  -0.069722
    17  H   -0.000000   0.000000  -0.000001   0.000000   0.000000   0.000000
    18  H    0.000000  -0.000000   0.000004  -0.000000  -0.000000  -0.000000
    19  H   -0.000000  -0.000000  -0.000000  -0.000000   0.000000  -0.000000
    20  H    0.000001  -0.000001   0.000010  -0.000000   0.000000   0.000000
    21  H   -0.000021   0.000014  -0.001717   0.000013  -0.000000  -0.000001
    22  H    0.000034   0.000003  -0.000003   0.000000   0.000000  -0.000000
    23  H    0.000511  -0.000890  -0.000083  -0.000000   0.000000  -0.000000
    24  H   -0.020490  -0.040396  -0.000030  -0.000000   0.000000   0.000019
    25  H    0.604837  -0.019865  -0.000008  -0.000000  -0.000000  -0.000001
    26  H   -0.019865   0.650085   0.000030   0.000000  -0.000000   0.000005
    27  H   -0.000008   0.000030   0.664308  -0.013222  -0.000252   0.000020
    28  H   -0.000000   0.000000  -0.013222   0.679105  -0.012523  -0.000272
    29  H   -0.000000  -0.000000  -0.000252  -0.012523   0.684424  -0.012555
    30  H   -0.000001   0.000005   0.000020  -0.000272  -0.012555   0.679430
    31  H    0.000029  -0.001461  -0.000178   0.000024  -0.000264  -0.013820
              31
     1  C   -0.000000
     2  O    0.000000
     3  C    0.000000
     4  C   -0.000000
     5  C   -0.000021
     6  C    0.000000
     7  C    0.000009
     8  C   -0.000142
     9  N   -0.016614
    10  C    0.011944
    11  C   -0.078269
    12  C    0.016888
    13  C   -0.002556
    14  C    0.015811
    15  C   -0.072092
    16  C    0.459391
    17  H   -0.000000
    18  H    0.000000
    19  H   -0.000000
    20  H   -0.000000
    21  H   -0.000006
    22  H   -0.000000
    23  H   -0.000005
    24  H   -0.001496
    25  H    0.000029
    26  H   -0.001461
    27  H   -0.000178
    28  H    0.000024
    29  H   -0.000264
    30  H   -0.013820
    31  H    0.698857
 Mulliken charges:
               1
     1  C    0.142218
     2  O   -0.372272
     3  C    0.258388
     4  C   -0.118440
     5  C   -0.010410
     6  C   -0.047812
     7  C   -0.017769
     8  C    0.112779
     9  N   -0.371208
    10  C    0.109709
    11  C    0.227045
    12  C   -0.081123
    13  C   -0.002827
    14  C   -0.021722
    15  C   -0.000069
    16  C   -0.098446
    17  H    0.035362
    18  H    0.035346
    19  H    0.054180
    20  H   -0.002035
    21  H    0.012639
    22  H    0.011877
    23  H    0.002923
    24  H    0.039176
    25  H    0.050456
    26  H    0.039471
    27  H    0.012411
    28  H    0.007126
    29  H    0.001999
    30  H    0.007053
    31  H   -0.016025
 Sum of Mulliken charges =  -0.00000
 Mulliken charges with hydrogens summed into heavy atoms:
               1
     1  C    0.267106
     2  O   -0.372272
     3  C    0.258388
     4  C   -0.120475
     5  C    0.002229
     6  C   -0.035935
     7  C   -0.014846
     8  C    0.112779
     9  N   -0.371208
    10  C    0.238812
    11  C    0.227045
    12  C   -0.068711
    13  C    0.004299
    14  C   -0.019724
    15  C    0.006984
    16  C   -0.114471
 Electronic spatial extent (au):  <R**2>=           4674.0154
 Charge=             -0.0000 electrons
 Dipole moment (field-independent basis, Debye):
    X=             -0.9853    Y=              0.1315    Z=             -1.0738  Tot=              1.4633
 Quadrupole moment (field-independent basis, Debye-Ang):
   XX=            -90.0830   YY=            -85.5182   ZZ=            -95.6076
   XY=              7.4702   XZ=              2.3858   YZ=              1.5385
 Traceless Quadrupole moment (field-independent basis, Debye-Ang):
   XX=              0.3199   YY=              4.8847   ZZ=             -5.2047
   XY=              7.4702   XZ=              2.3858   YZ=              1.5385
 Octapole moment (field-independent basis, Debye-Ang**2):
  XXX=            -32.5841  YYY=              4.7838  ZZZ=             -1.4249  XYY=             -7.5219
  XXY=            -28.0911  XXZ=            -26.7946  XZZ=            -17.4307  YZZ=              3.2823
  YYZ=              4.5941  XYZ=            -15.9143
 Hexadecapole moment (field-independent basis, Debye-Ang**3):
 XXXX=          -4630.7526 YYYY=           -980.0274 ZZZZ=           -314.4742 XXXY=            167.2108
 XXXZ=             54.9391 YYYX=             28.7952 YYYZ=             -9.0346 ZZZX=             -9.8750
 ZZZY=             10.7575 XXYY=           -920.1107 XXZZ=           -907.5200 YYZZ=           -215.3952
 XXYZ=             12.7523 YYXZ=              5.5337 ZZXY=             11.6595
 N-N= 1.020562418472D+03 E-N=-3.599002337208D+03  KE= 6.648179373548D+02
   1 Symmetry operations used in ECPInt.
 ECPInt:  NShTT=   10011 NPrTT=   36031 LenC2=    9200 LenP2D=   24003.
 LDataN:  DoStor=T MaxTD1= 5 Len=  102
 Calling FoFJK, ICntrl=      2127 FMM=F ISym2X=0 I1Cent= 0 IOpClX= 0 NMat=1 NMatS=1 NMatT=0.
 ***** Axes restored to original set *****
 -------------------------------------------------------------------
 Center     Atomic                   Forces (Hartrees/Bohr)
 Number     Number              X              Y              Z
 -------------------------------------------------------------------
      1        6          -0.001337569    0.009160000   -0.008672115
      2        8          -0.035569591    0.007658945    0.005963612
      3        6           0.026371420   -0.004635147   -0.005610694
      4        6           0.016772444   -0.003982469   -0.004358395
      5        6          -0.008133421    0.009949988   -0.003374735
      6        6           0.013676324   -0.004212555    0.001754990
      7        6          -0.006317864   -0.002935336    0.003714437
      8        6          -0.023738107    0.001103978    0.004082512
      9        7           0.002449004   -0.005224883   -0.002727185
     10        6           0.001408859   -0.020041880   -0.003896405
     11        6           0.025308613    0.017555398    0.003396347
     12        6           0.004986378   -0.000164324   -0.002001663
     13        6          -0.000239986    0.001087356    0.001000610
     14        6          -0.008488982   -0.004595473    0.000129935
     15        6          -0.000828631   -0.004170369   -0.001898797
     16        6           0.006176385    0.008882596    0.001904967
     17        1           0.000465912   -0.001711592    0.009610506
     18        1          -0.002457986   -0.009238855    0.002154314
     19        1           0.004210168    0.001485403   -0.003116233
     20        1           0.001490816   -0.008043868    0.007807826
     21        1          -0.005873444   -0.005705491    0.007762025
     22        1           0.007280490    0.005054629   -0.008027506
     23        1          -0.002893194    0.008100970   -0.007913651
     24        1          -0.004824786    0.004625508    0.009117550
     25        1           0.005471895    0.000918445   -0.000129253
     26        1          -0.006718190    0.005746114   -0.005061773
     27        1           0.009387751   -0.004045856   -0.003503452
     28        1           0.002742590   -0.009226392   -0.004055620
     29        1          -0.007934147   -0.006767009   -0.000965558
     30        1          -0.009342863    0.003577807    0.002864016
     31        1          -0.003500289    0.009794363    0.004049386
 -------------------------------------------------------------------
 Cartesian Forces:  Max     0.035569591 RMS     0.008605044

 GradGradGradGradGradGradGradGradGradGradGradGradGradGradGradGradGradGrad
 Berny optimization.
 FormGI is forming the generalized inverse of G from B-inverse, IUseBI=4.
 Internal  Forces:  Max     0.035890009 RMS     0.006455136
 Search for a local minimum.
 Step number   1 out of a maximum of  161
 All quantities printed in internal units (Hartrees-Bohrs-Radians)
 Mixed Optimization -- RFO/linear search
 Second derivative matrix not updated -- first step.
 ITU=  0
     Eigenvalues ---    0.00889   0.01129   0.01175   0.01415   0.01604
     Eigenvalues ---    0.01617   0.01876   0.01930   0.02057   0.02164
     Eigenvalues ---    0.02180   0.02241   0.02253   0.02260   0.02283
     Eigenvalues ---    0.02298   0.02302   0.02334   0.02338   0.02339
     Eigenvalues ---    0.02344   0.02355   0.02368   0.02375   0.07432
     Eigenvalues ---    0.07469   0.10346   0.10571   0.15998   0.15998
     Eigenvalues ---    0.16000   0.16000   0.16000   0.16000   0.16000
     Eigenvalues ---    0.16000   0.16000   0.16000   0.16000   0.16000
     Eigenvalues ---    0.16000   0.16000   0.16000   0.22000   0.22000
     Eigenvalues ---    0.22000   0.22955   0.23466   0.24000   0.24998
     Eigenvalues ---    0.25000   0.25000   0.25000   0.25000   0.25000
     Eigenvalues ---    0.34746   0.34747   0.34761   0.34999   0.35010
     Eigenvalues ---    0.35013   0.36254   0.36259   0.36272   0.36462
     Eigenvalues ---    0.36487   0.36539   0.36543   0.36566   0.36648
     Eigenvalues ---    0.36880   0.39717   0.42326   0.42671   0.43029
     Eigenvalues ---    0.43455   0.43714   0.44536   0.44691   0.46635
     Eigenvalues ---    0.46669   0.47290   0.47920   0.48386   0.49095
     Eigenvalues ---    0.49714   0.50138
 RFO step:  Lambda=-1.64993548D-02 EMin= 8.89186054D-03
 Linear search not attempted -- first point.
 Iteration  1 RMS(Cart)=  0.06754469 RMS(Int)=  0.00208644
 Iteration  2 RMS(Cart)=  0.00347906 RMS(Int)=  0.00015589
 Iteration  3 RMS(Cart)=  0.00001213 RMS(Int)=  0.00015575
 Iteration  4 RMS(Cart)=  0.00000001 RMS(Int)=  0.00015575
 Variable       Old X    -DE/DX   Delta X   Delta X   Delta X     New X
                                 (Linear)    (Quad)   (Total)
    R1        2.65819   0.00049   0.00000   0.00107   0.00107   2.65926
    R2        2.06088   0.00864   0.00000   0.02373   0.02373   2.08461
    R3        2.06090   0.00868   0.00000   0.02385   0.02385   2.08475
    R4        2.06065   0.00443   0.00000   0.01218   0.01218   2.07283
    R5        2.65636  -0.03589   0.00000  -0.07745  -0.07745   2.57892
    R6        2.63833   0.00353   0.00000   0.00721   0.00724   2.64556
    R7        2.63788   0.00143   0.00000   0.00259   0.00261   2.64049
    R8        2.59799   0.01797   0.00000   0.03496   0.03497   2.63296
    R9        2.03080   0.01101   0.00000   0.02875   0.02875   2.05955
   R10        2.63070   0.00550   0.00000   0.01170   0.01168   2.64238
   R11        2.03366   0.01120   0.00000   0.02939   0.02939   2.06305
   R12        2.59658   0.01416   0.00000   0.02709   0.02708   2.62367
   R13        2.03247   0.01196   0.00000   0.03131   0.03131   2.06378
   R14        2.62984   0.00904   0.00000   0.01870   0.01868   2.64852
   R15        2.03327   0.01157   0.00000   0.03035   0.03035   2.06362
   R16        2.71940  -0.01606   0.00000  -0.03881  -0.03881   2.68059
   R17        2.76027  -0.00757   0.00000  -0.01965  -0.01965   2.74062
   R18        2.68510  -0.02163   0.00000  -0.04919  -0.04919   2.63592
   R19        2.05654   0.01075   0.00000   0.02931   0.02931   2.08585
   R20        2.05659   0.00513   0.00000   0.01398   0.01398   2.07057
   R21        2.05677   0.00978   0.00000   0.02669   0.02669   2.08346
   R22        2.63637   0.01344   0.00000   0.02780   0.02780   2.66416
   R23        2.63710   0.01067   0.00000   0.02202   0.02201   2.65911
   R24        2.60095   0.01462   0.00000   0.02848   0.02848   2.62943
   R25        2.03241   0.01070   0.00000   0.02801   0.02801   2.06042
   R26        2.60971   0.01485   0.00000   0.02956   0.02956   2.63927
   R27        2.03678   0.01040   0.00000   0.02743   0.02743   2.06421
   R28        2.61013   0.01174   0.00000   0.02337   0.02338   2.63350
   R29        2.03658   0.01047   0.00000   0.02761   0.02761   2.06419
   R30        2.60220   0.01688   0.00000   0.03286   0.03286   2.63506
   R31        2.03686   0.01036   0.00000   0.02734   0.02734   2.06420
   R32        2.03205   0.01107   0.00000   0.02895   0.02895   2.06101
    A1        1.91868   0.00666   0.00000   0.03919   0.03881   1.95749
    A2        1.91874   0.00661   0.00000   0.03892   0.03853   1.95728
    A3        1.89458  -0.00739   0.00000  -0.04473  -0.04447   1.85010
    A4        1.92990  -0.00432   0.00000  -0.01902  -0.01988   1.91001
    A5        1.90072  -0.00090   0.00000  -0.00799  -0.00774   1.89298
    A6        1.90066  -0.00088   0.00000  -0.00786  -0.00761   1.89305
    A7        2.00320   0.01697   0.00000   0.06367   0.06367   2.06687
    A8        2.17471   0.00219   0.00000   0.00846   0.00844   2.18316
    A9        2.05028  -0.00913   0.00000  -0.03401  -0.03403   2.01625
   A10        2.05819   0.00694   0.00000   0.02555   0.02559   2.08378
   A11        2.10878  -0.00430   0.00000  -0.01746  -0.01746   2.09132
   A12        2.09024   0.00475   0.00000   0.02348   0.02345   2.11369
   A13        2.08417  -0.00046   0.00000  -0.00603  -0.00606   2.07810
   A14        2.11099   0.00030   0.00000   0.00309   0.00306   2.11404
   A15        2.10212  -0.00151   0.00000  -0.00920  -0.00920   2.09292
   A16        2.07006   0.00120   0.00000   0.00616   0.00616   2.07622
   A17        2.11600  -0.00327   0.00000  -0.01451  -0.01453   2.10147
   A18        2.06171   0.00165   0.00000   0.00732   0.00730   2.06902
   A19        2.10547   0.00162   0.00000   0.00716   0.00714   2.11261
   A20        2.10469   0.00063   0.00000   0.00308   0.00303   2.10771
   A21        2.10245  -0.00190   0.00000  -0.01048  -0.01046   2.09199
   A22        2.07594   0.00127   0.00000   0.00750   0.00751   2.08345
   A23        2.06771  -0.00032   0.00000   0.00025   0.00015   2.06787
   A24        2.10615   0.00125   0.00000   0.00397   0.00395   2.11010
   A25        2.10932  -0.00094   0.00000  -0.00425  -0.00427   2.10505
   A26        2.05888   0.00344   0.00000   0.01288   0.01285   2.07173
   A27        2.13015   0.00062   0.00000   0.00232   0.00230   2.13245
   A28        2.09415  -0.00406   0.00000  -0.01526  -0.01528   2.07887
   A29        1.92265   0.00497   0.00000   0.02904   0.02889   1.95153
   A30        1.92703  -0.00468   0.00000  -0.02886  -0.02868   1.89835
   A31        1.92387   0.00379   0.00000   0.02292   0.02273   1.94660
   A32        1.88729  -0.00083   0.00000  -0.00758  -0.00738   1.87992
   A33        1.90822  -0.00347   0.00000  -0.01514  -0.01561   1.89261
   A34        1.89412   0.00005   0.00000  -0.00144  -0.00129   1.89283
   A35        2.10020   0.00578   0.00000   0.02193   0.02190   2.12210
   A36        2.12219  -0.00673   0.00000  -0.02500  -0.02502   2.09717
   A37        2.06071   0.00094   0.00000   0.00289   0.00285   2.06356
   A38        2.11183  -0.00175   0.00000  -0.00753  -0.00754   2.10429
   A39        2.07630   0.00241   0.00000   0.01247   0.01247   2.08877
   A40        2.09497  -0.00066   0.00000  -0.00494  -0.00494   2.09003
   A41        2.09581   0.00322   0.00000   0.01418   0.01418   2.10999
   A42        2.09380  -0.00256   0.00000  -0.01249  -0.01250   2.08130
   A43        2.09358  -0.00066   0.00000  -0.00170  -0.00171   2.09187
   A44        2.09117  -0.00421   0.00000  -0.01702  -0.01701   2.07416
   A45        2.09596   0.00225   0.00000   0.00929   0.00928   2.10524
   A46        2.09605   0.00197   0.00000   0.00772   0.00771   2.10376
   A47        2.09835   0.00270   0.00000   0.01169   0.01170   2.11005
   A48        2.09191  -0.00040   0.00000  -0.00045  -0.00045   2.09145
   A49        2.09292  -0.00230   0.00000  -0.01124  -0.01125   2.08168
   A50        2.10847  -0.00090   0.00000  -0.00427  -0.00428   2.10420
   A51        2.08556   0.00194   0.00000   0.01058   0.01058   2.09614
   A52        2.08913  -0.00104   0.00000  -0.00630  -0.00630   2.08283
    D1       -1.06349  -0.00166   0.00000  -0.01445  -0.01532  -1.07881
    D2        1.06494   0.00161   0.00000   0.01286   0.01372   1.07866
    D3       -3.14088  -0.00003   0.00000  -0.00080  -0.00080   3.14150
    D4       -0.00210  -0.00000   0.00000   0.00002   0.00003  -0.00207
    D5        3.13971  -0.00000   0.00000  -0.00016  -0.00017   3.13954
    D6       -3.14039  -0.00028   0.00000  -0.00713  -0.00710   3.13569
    D7        0.00266   0.00017   0.00000   0.00441   0.00451   0.00717
    D8        0.00099  -0.00028   0.00000  -0.00695  -0.00691  -0.00592
    D9       -3.13914   0.00017   0.00000   0.00459   0.00470  -3.13444
   D10        3.14042  -0.00034   0.00000  -0.00860  -0.00852   3.13190
   D11        0.00122   0.00011   0.00000   0.00276   0.00280   0.00402
   D12       -0.00098  -0.00034   0.00000  -0.00877  -0.00870  -0.00968
   D13       -3.14018   0.00011   0.00000   0.00260   0.00262  -3.13756
   D14        0.00167   0.00062   0.00000   0.01582   0.01581   0.01748
   D15       -3.13290   0.00029   0.00000   0.00757   0.00755  -3.12535
   D16       -3.14138   0.00017   0.00000   0.00435   0.00446  -3.13692
   D17        0.00724  -0.00016   0.00000  -0.00390  -0.00380   0.00344
   D18       -0.00427  -0.00032   0.00000  -0.00878  -0.00883  -0.01310
   D19        3.14005   0.00026   0.00000   0.00775   0.00773  -3.13541
   D20        3.13042  -0.00001   0.00000  -0.00074  -0.00071   3.12971
   D21       -0.00845   0.00057   0.00000   0.01579   0.01585   0.00740
   D22       -0.00169   0.00064   0.00000   0.01578   0.01576   0.01408
   D23       -3.12731   0.00033   0.00000   0.00834   0.00833  -3.11898
   D24        3.13745   0.00018   0.00000   0.00413   0.00415  -3.14158
   D25        0.01183  -0.00013   0.00000  -0.00332  -0.00328   0.00855
   D26        0.00427  -0.00030   0.00000  -0.00689  -0.00697  -0.00270
   D27       -3.14005  -0.00088   0.00000  -0.02344  -0.02346   3.11967
   D28        3.13013  -0.00002   0.00000   0.00028   0.00027   3.13040
   D29       -0.01419  -0.00060   0.00000  -0.01627  -0.01623  -0.03042
   D30        2.16091  -0.00131   0.00000  -0.04415  -0.04420   2.11671
   D31       -0.97584  -0.00095   0.00000  -0.03162  -0.03156  -1.00741
   D32       -0.97789  -0.00071   0.00000  -0.02723  -0.02730  -1.00519
   D33        2.16854  -0.00036   0.00000  -0.01470  -0.01466   2.15388
   D34       -1.97887   0.00094   0.00000   0.01591   0.01616  -1.96271
   D35        0.10444   0.00010   0.00000   0.00672   0.00669   0.11113
   D36        2.19701  -0.00040   0.00000   0.00117   0.00092   2.19794
   D37        1.15799   0.00060   0.00000   0.00370   0.00396   1.16195
   D38       -3.04188  -0.00023   0.00000  -0.00550  -0.00551  -3.04739
   D39       -0.94932  -0.00074   0.00000  -0.01104  -0.01127  -0.96059
   D40       -0.21941  -0.00098   0.00000  -0.03162  -0.03157  -0.25097
   D41        2.93587  -0.00044   0.00000  -0.01625  -0.01622   2.91965
   D42        2.92712  -0.00064   0.00000  -0.01892  -0.01895   2.90817
   D43       -0.20079  -0.00009   0.00000  -0.00355  -0.00360  -0.20439
   D44       -3.13430   0.00022   0.00000   0.00519   0.00541  -3.12889
   D45       -0.00688   0.00017   0.00000   0.00454   0.00471  -0.00217
   D46       -0.00592  -0.00037   0.00000  -0.00986  -0.00987  -0.01579
   D47        3.12150  -0.00042   0.00000  -0.01051  -0.01058   3.11092
   D48        3.13491  -0.00027   0.00000  -0.00843  -0.00822   3.12669
   D49       -0.01395  -0.00024   0.00000  -0.00754  -0.00737  -0.02132
   D50        0.00670   0.00023   0.00000   0.00645   0.00647   0.01317
   D51        3.14103   0.00026   0.00000   0.00733   0.00732  -3.13484
   D52        0.00147   0.00021   0.00000   0.00554   0.00555   0.00702
   D53        3.14076  -0.00002   0.00000  -0.00039  -0.00040   3.14036
   D54       -3.12580   0.00024   0.00000   0.00606   0.00612  -3.11968
   D55        0.01349  -0.00000   0.00000   0.00012   0.00017   0.01366
   D56        0.00236   0.00008   0.00000   0.00238   0.00234   0.00470
   D57       -3.14126  -0.00009   0.00000  -0.00226  -0.00229   3.13964
   D58       -3.13693   0.00032   0.00000   0.00832   0.00834  -3.12860
   D59        0.00263   0.00015   0.00000   0.00369   0.00371   0.00635
   D60       -0.00157  -0.00023   0.00000  -0.00576  -0.00577  -0.00734
   D61        3.14020  -0.00013   0.00000  -0.00372  -0.00367   3.13652
   D62       -3.14114  -0.00005   0.00000  -0.00112  -0.00115   3.14090
   D63        0.00063   0.00004   0.00000   0.00091   0.00094   0.00157
   D64       -0.00305   0.00007   0.00000   0.00127   0.00133  -0.00172
   D65       -3.13736   0.00003   0.00000   0.00031   0.00041  -3.13695
   D66        3.13836  -0.00002   0.00000  -0.00077  -0.00075   3.13761
   D67        0.00405  -0.00006   0.00000  -0.00173  -0.00167   0.00239
         Item               Value     Threshold  Converged?
 Maximum Force            0.035890     0.000450     NO 
 RMS     Force            0.006455     0.000300     NO 
 Maximum Displacement     0.308075     0.001800     NO 
 RMS     Displacement     0.069621     0.001200     NO 
 Predicted change in Energy=-8.713780D-03
 GradGradGradGradGradGradGradGradGradGradGradGradGradGradGradGradGradGrad

                          Input orientation:                          
 ---------------------------------------------------------------------
 Center     Atomic      Atomic             Coordinates (Angstroms)
 Number     Number       Type             X           Y           Z
 ---------------------------------------------------------------------
      1          6           0        4.950917   -1.365898    0.523723
      2          8           0        4.378281   -0.375801   -0.296070
      3          6           0        3.059628   -0.070689   -0.121495
      4          6           0        2.212463   -0.670310    0.818020
      5          6           0        0.881417   -0.268208    0.906991
      6          6           0        2.554518    0.921916   -0.965304
      7          6           0        1.222176    1.303509   -0.882459
      8          6           0        0.364938    0.714720    0.057101
      9          7           0       -0.989033    1.125792    0.156820
     10          6           0       -1.275059    2.522122    0.424671
     11          6           0       -2.049266    0.228851    0.026204
     12          6           0       -1.861408   -1.064698   -0.502020
     13          6           0       -2.936997   -1.937066   -0.636826
     14          6           0       -4.225381   -1.550389   -0.261116
     15          6           0       -4.420603   -0.268190    0.248733
     16          6           0       -3.351692    0.615653    0.392425
     17          1           0        4.921771   -1.090020    1.591399
     18          1           0        4.470453   -2.349302    0.385432
     19          1           0        6.000184   -1.445274    0.214022
     20          1           0        2.578650   -1.442491    1.494372
     21          1           0        0.223408   -0.724035    1.649349
     22          1           0        3.226521    1.377667   -1.695647
     23          1           0        0.831552    2.065160   -1.560554
     24          1           0       -1.724330    2.664652    1.422761
     25          1           0       -0.335783    3.085705    0.398354
     26          1           0       -1.958212    2.947068   -0.329165
     27          1           0       -0.866958   -1.378674   -0.820295
     28          1           0       -2.767153   -2.933957   -1.049802
     29          1           0       -5.066867   -2.238204   -0.370564
     30          1           0       -5.422326    0.052794    0.543183
     31          1           0       -3.532716    1.611636    0.798307
 ---------------------------------------------------------------------
                    Distance matrix (angstroms):
                    1          2          3          4          5
     1  C    0.000000
     2  O    1.407219   0.000000
     3  C    2.381354   1.364703   0.000000
     4  C    2.840702   2.453304   1.399972   0.000000
     5  C    4.232334   3.699593   2.416899   1.393300   0.000000
     6  C    3.632358   2.336248   1.397288   2.415041   2.778695
     7  C    4.796520   3.622835   2.417378   2.787160   2.405939
     8  C    5.057462   4.173834   2.812493   2.431184   1.398289
     9  N    6.451833   5.591776   4.230920   3.729979   2.450424
    10  C    7.340933   6.393566   5.080402   4.744381   3.559349
    11  C    7.196757   6.463963   5.119798   4.426940   3.100283
    12  C    6.895698   6.280980   5.034824   4.300520   3.184776
    13  C    7.993266   7.487787   6.301463   5.498926   4.443956
    14  C    9.211648   8.683541   7.435077   6.586722   5.393316
    15  C    9.439596   8.816391   7.491991   6.669584   5.342726
    16  C    8.536809   7.823650   6.468401   5.726662   4.354906
    17  H    1.103127   2.089983   2.727749   2.848617   4.179503
    18  H    1.103201   2.089891   2.727541   2.846869   4.181406
    19  H    1.096893   2.008615   3.263269   3.913082   5.297873
    20  H    2.564309   2.753577   2.173524   1.089867   2.145823
    21  H    4.901874   4.600967   3.406889   2.156464   1.091719
    22  H    3.927633   2.521907   2.145587   3.397211   3.870677
    23  H    5.752003   4.487371   3.405446   3.879088   3.396449
    24  H    7.849365   7.031401   5.723030   5.194807   3.956969
    25  H    6.912430   5.889537   4.664963   4.558215   3.604028
    26  H    8.189333   7.154978   5.859071   5.638793   4.464256
    27  H    5.971116   5.365920   4.197288   3.559310   2.696937
    28  H    8.031401   7.626893   6.558311   5.780089   4.924158
    29  H   10.095379   9.627301   8.414279   7.540535   6.394930
    30  H   10.469825   9.845808   8.508853   7.673879   6.322387
    31  H    8.995173   8.229911   6.865511   6.181807   4.798978
                    6          7          8          9         10
     6  C    0.000000
     7  C    1.388385   0.000000
     8  C    2.425387   1.401536   0.000000
     9  N    3.722564   2.449721   1.418507   0.000000
    10  C    4.377026   3.070796   2.468076   1.450273   0.000000
    11  C    4.760069   3.561305   2.462804   1.394868   2.453011
    12  C    4.864326   3.906613   2.904404   2.448133   3.750711
    13  C    6.199871   5.278293   4.291419   3.715580   4.875773
    14  C    7.250876   6.181156   5.128646   4.220257   5.075436
    15  C    7.179314   5.965801   4.889196   3.705037   4.208472
    16  C    6.067994   4.797786   3.733041   2.428561   2.819232
    17  H    4.023493   5.053312   5.135746   6.473442   7.267016
    18  H    4.024445   5.049939   5.133350   6.475688   7.532810
    19  H    4.343617   5.620271   6.037068   7.447336   8.289376
    20  H    3.411892   3.876837   3.408787   4.594941   5.631473
    21  H    3.870353   3.393896   2.150651   2.668242   3.779256
    22  H    1.092107   2.164295   3.420568   4.611504   5.105855
    23  H    2.151730   1.092021   2.158292   2.673259   2.930485
    24  H    5.200819   3.981036   3.167381   2.123996   1.103786
    25  H    3.859454   2.691457   2.495803   2.079984   1.095700
    26  H    4.987048   3.622470   3.244936   2.119561   1.102519
    27  H    4.125560   3.400361   2.582575   2.691098   4.114936
    28  H    6.572296   5.822274   4.934377   4.593388   5.845444
    29  H    8.271976   7.235871   6.197351   5.312564   6.137663
    30  H    8.164615   6.909859   5.845241   4.577628   4.828192
    31  H    6.374986   5.052614   4.067622   2.667934   2.462844
                   11         12         13         14         15
    11  C    0.000000
    12  C    1.409815   0.000000
    13  C    2.432873   1.391434   0.000000
    14  C    2.825549   2.425345   1.396643   0.000000
    15  C    2.433065   2.783439   2.402176   1.393590   0.000000
    16  C    1.407142   2.417552   2.783470   2.425322   1.394416
    17  H    7.265302   7.098913   8.212351   9.344204   9.474075
    18  H    7.020160   6.521522   7.489009   8.756358   9.132392
    19  H    8.223844   7.903302   8.991051  10.237138  10.487112
[...]
    18  H   -0.000107   0.000082  -0.000001  -0.000001   0.000005   0.000000
    19  H    0.000104  -0.000048  -0.000000   0.000000   0.000000  -0.000000
    20  H   -0.000017   0.008744  -0.000331  -0.000004   0.000072  -0.000056
    21  H    0.007635  -0.032010  -0.003658   0.000057   0.002152   0.000712
    22  H   -0.061428   0.018361  -0.000218   0.000015  -0.000034   0.000011
    23  H    0.447967  -0.062598   0.005168  -0.001129   0.001514  -0.000270
    24  H    0.004163  -0.004315  -0.054795   0.407725  -0.001146   0.000326
    25  H   -0.005333  -0.004929  -0.029234   0.407078   0.007572  -0.000438
    26  H   -0.001448   0.012985  -0.043421   0.412937  -0.010516   0.000168
    27  H    0.000244   0.001583  -0.006114  -0.000402  -0.043920   0.430737
    28  H   -0.000026   0.000142  -0.000161   0.000018   0.013187  -0.055634
    29  H    0.000001  -0.000002   0.000023  -0.000001  -0.003638   0.012211
    30  H   -0.000000   0.000030  -0.000111  -0.000016   0.013292  -0.002755
    31  H   -0.000009  -0.000631  -0.005009   0.004501  -0.054864   0.003350
              13         14         15         16         17         18
     1  C    0.000000  -0.000000   0.000000  -0.000000   0.413403   0.412769
     2  O    0.000000  -0.000000   0.000000  -0.000000  -0.041883  -0.041310
     3  C    0.000002   0.000000   0.000001   0.000012  -0.015918  -0.017091
     4  C    0.000074  -0.000010   0.000086  -0.001073   0.011402   0.012354
     5  C    0.002891  -0.000103   0.000440  -0.001549  -0.001155  -0.000094
     6  C   -0.000166   0.000011  -0.000019   0.000177   0.001089   0.000102
     7  C    0.000006   0.000103  -0.000130   0.001182  -0.000195  -0.000107
     8  C   -0.001770  -0.000055  -0.000230   0.008323   0.000120   0.000082
     9  N    0.003790   0.000213   0.002547  -0.093196   0.000001  -0.000001
    10  C   -0.000349   0.000308  -0.002206  -0.010502   0.000001  -0.000001
    11  C   -0.014610  -0.068424  -0.005562   0.390126  -0.000003   0.000005
    12  C    0.471334  -0.003571  -0.056427   0.025144   0.000001   0.000000
    13  C    4.910937   0.457619  -0.000657  -0.072560   0.000000  -0.000001
    14  C    0.457619   4.946521   0.477344   0.011553  -0.000000   0.000000
    15  C   -0.000657   0.477344   4.862201   0.456191   0.000000  -0.000000
    16  C   -0.072560   0.011553   0.456191   5.197011  -0.000000   0.000000
    17  H    0.000000  -0.000000   0.000000  -0.000000   0.585751  -0.055625
    18  H   -0.000001   0.000000  -0.000000   0.000000  -0.055625   0.585291
    19  H   -0.000000  -0.000000   0.000000   0.000000  -0.019755  -0.019712
    20  H   -0.000018  -0.000000  -0.000000   0.000009   0.000576   0.001024
    21  H    0.000025  -0.000012  -0.000028   0.000818  -0.000012  -0.000017
    22  H    0.000000  -0.000000   0.000000  -0.000002   0.000140   0.000086
    23  H   -0.000021   0.000006  -0.000007   0.000025  -0.000001   0.000000
    24  H   -0.000241   0.000161  -0.001292   0.007461  -0.000000   0.000000
    25  H    0.000053  -0.000017   0.000109   0.000476  -0.000000  -0.000000
    26  H    0.000095  -0.000291   0.001911  -0.001111  -0.000000   0.000000
    27  H   -0.041377   0.007260  -0.001821   0.007102  -0.000001   0.000008
    28  H    0.439349  -0.057379   0.010742  -0.003233   0.000000  -0.000000
    29  H   -0.060167   0.447052  -0.059749   0.013030  -0.000000   0.000000
    30  H    0.010131  -0.055270   0.436591  -0.055663   0.000000  -0.000000
    31  H   -0.000449   0.005326  -0.020952   0.427238  -0.000000   0.000000
              19         20         21         22         23         24
     1  C    0.401159   0.009436  -0.000152  -0.000103   0.000013  -0.000000
     2  O   -0.030320  -0.006098  -0.000059   0.008499  -0.000106   0.000000
     3  C    0.006665  -0.067890   0.004953  -0.080160   0.015160  -0.000069
     4  C   -0.002439   0.426635  -0.036746   0.021810  -0.006909  -0.001432
     5  C    0.000271  -0.014089   0.418642  -0.008683   0.015644  -0.000228
     6  C   -0.000369   0.002393  -0.000516   0.454507  -0.055829   0.000485
     7  C    0.000104  -0.000017   0.007635  -0.061428   0.447967   0.004163
     8  C   -0.000048   0.008744  -0.032010   0.018361  -0.062598  -0.004315
     9  N   -0.000000  -0.000331  -0.003658  -0.000218   0.005168  -0.054795
    10  C    0.000000  -0.000004   0.000057   0.000015  -0.001129   0.407725
    11  C    0.000000   0.000072   0.002152  -0.000034   0.001514  -0.001146
    12  C   -0.000000  -0.000056   0.000712   0.000011  -0.000270   0.000326
    13  C   -0.000000  -0.000018   0.000025   0.000000  -0.000021  -0.000241
    14  C   -0.000000  -0.000000  -0.000012  -0.000000   0.000006   0.000161
    15  C    0.000000  -0.000000  -0.000028   0.000000  -0.000007  -0.001292
    16  C    0.000000   0.000009   0.000818  -0.000002   0.000025   0.007461
    17  H   -0.019755   0.000576  -0.000012   0.000140  -0.000001  -0.000000
    18  H   -0.019712   0.001024  -0.000017   0.000086   0.000000   0.000000
    19  H    0.523122  -0.000342   0.000001  -0.000197   0.000000  -0.000000
    20  H   -0.000342   0.510662  -0.004517  -0.000013   0.000019   0.000012
    21  H    0.000001  -0.004517   0.503215   0.000014  -0.000153   0.000470
    22  H   -0.000197  -0.000013   0.000014   0.533678  -0.009280  -0.000005
    23  H    0.000000   0.000019  -0.000153  -0.009280   0.523813   0.000418
    24  H   -0.000000   0.000012   0.000470  -0.000005   0.000418   0.590711
    25  H    0.000000  -0.000000  -0.000158   0.000017  -0.001429  -0.024840
    26  H    0.000000  -0.000001  -0.000037   0.000004  -0.000701  -0.050538
    27  H   -0.000000   0.000013  -0.000242  -0.000008   0.000055   0.000039
    28  H    0.000000   0.000000  -0.000000   0.000000  -0.000000  -0.000000
    29  H    0.000000   0.000000   0.000001  -0.000000   0.000000   0.000001
    30  H   -0.000000   0.000000  -0.000001  -0.000000  -0.000000  -0.000006
    31  H    0.000000   0.000000  -0.000003  -0.000000   0.000007   0.002031
              25         26         27         28         29         30
     1  C    0.000001   0.000000  -0.000004   0.000000   0.000000  -0.000000
     2  O   -0.000001   0.000000  -0.000018   0.000000  -0.000000   0.000000
     3  C    0.000015   0.000011   0.000386  -0.000004   0.000000  -0.000000
     4  C    0.000519   0.000237  -0.000913   0.000010  -0.000000  -0.000000
     5  C    0.000669   0.000004  -0.001455  -0.000013   0.000000  -0.000002
     6  C   -0.001061  -0.000482   0.000200   0.000002  -0.000000   0.000000
     7  C   -0.005333  -0.001448   0.000244  -0.000026   0.000001  -0.000000
     8  C   -0.004929   0.012985   0.001583   0.000142  -0.000002   0.000030
     9  N   -0.029234  -0.043421  -0.006114  -0.000161   0.000023  -0.000111
    10  C    0.407078   0.412937  -0.000402   0.000018  -0.000001  -0.000016
    11  C    0.007572  -0.010516  -0.043920   0.013187  -0.003638   0.013292
    12  C   -0.000438   0.000168   0.430737  -0.055634   0.012211  -0.002755
    13  C    0.000053   0.000095  -0.041377   0.439349  -0.060167   0.010131
    14  C   -0.000017  -0.000291   0.007260  -0.057379   0.447052  -0.055270
    15  C    0.000109   0.001911  -0.001821   0.010742  -0.059749   0.436591
    16  C    0.000476  -0.001111   0.007102  -0.003233   0.013030  -0.055663
    17  H   -0.000000  -0.000000  -0.000001   0.000000  -0.000000   0.000000
    18  H   -0.000000   0.000000   0.000008  -0.000000   0.000000  -0.000000
    19  H    0.000000   0.000000  -0.000000   0.000000   0.000000  -0.000000
    20  H   -0.000000  -0.000001   0.000013   0.000000   0.000000   0.000000
    21  H   -0.000158  -0.000037  -0.000242  -0.000000   0.000001  -0.000001
    22  H    0.000017   0.000004  -0.000008   0.000000  -0.000000  -0.000000
    23  H   -0.001429  -0.000701   0.000055  -0.000000   0.000000  -0.000000
    24  H   -0.024840  -0.050538   0.000039  -0.000000   0.000001  -0.000006
    25  H    0.516379  -0.014029  -0.000009  -0.000000  -0.000000  -0.000000
    26  H   -0.014029   0.565915  -0.000007  -0.000000  -0.000001  -0.000017
    27  H   -0.000009  -0.000007   0.508770  -0.007139  -0.000108   0.000032
    28  H   -0.000000  -0.000000  -0.007139   0.554056  -0.007007  -0.000186
    29  H   -0.000000  -0.000001  -0.000108  -0.007007   0.554572  -0.007076
    30  H   -0.000000  -0.000017   0.000032  -0.000186  -0.007076   0.555728
    31  H    0.000473  -0.006543  -0.000161   0.000041  -0.000153  -0.006843
              31
     1  C   -0.000000
     2  O    0.000000
     3  C   -0.000001
     4  C   -0.000011
     5  C    0.000049
     6  C    0.000011
     7  C   -0.000009
     8  C   -0.000631
     9  N   -0.005009
    10  C    0.004501
    11  C   -0.054864
    12  C    0.003350
    13  C   -0.000449
    14  C    0.005326
    15  C   -0.020952
    16  C    0.427238
    17  H   -0.000000
    18  H    0.000000
    19  H    0.000000
    20  H    0.000000
    21  H   -0.000003
    22  H   -0.000000
    23  H    0.000007
    24  H    0.002031
    25  H    0.000473
    26  H   -0.006543
    27  H   -0.000161
    28  H    0.000041
    29  H   -0.000153
    30  H   -0.006843
    31  H    0.524592
 Mulliken charges:
               1
     1  C   -0.208284
     2  O   -0.284882
     3  C    0.352496
     4  C   -0.200008
     5  C   -0.294981
     6  C   -0.155877
     7  C   -0.216762
     8  C    0.132385
     9  N   -0.058795
    10  C   -0.309310
    11  C    0.237658
    12  C   -0.246045
    13  C   -0.103921
    14  C   -0.168343
    15  C   -0.099081
    16  C   -0.306989
    17  H    0.122064
    18  H    0.122236
    19  H    0.141858
    20  H    0.133780
    21  H    0.139627
    22  H    0.122987
    23  H    0.128621
    24  H    0.124904
    25  H    0.148117
    26  H    0.134877
    27  H    0.147270
    28  H    0.113237
    29  H    0.111011
    30  H    0.112141
    31  H    0.128009
 Sum of Mulliken charges =  -0.00000
 Mulliken charges with hydrogens summed into heavy atoms:
               1
     1  C    0.177873
     2  O   -0.284882
     3  C    0.352496
     4  C   -0.066229
     5  C   -0.155354
     6  C   -0.032890
     7  C   -0.088141
     8  C    0.132385
     9  N   -0.058795
    10  C    0.098589
    11  C    0.237658
    12  C   -0.098775
    13  C    0.009316
    14  C   -0.057332
    15  C    0.013060
    16  C   -0.178980
 Electronic spatial extent (au):  <R**2>=           4658.7239
 Charge=              0.0000 electrons
 Dipole moment (field-independent basis, Debye):
    X=             -1.8681    Y=              0.2059    Z=             -1.1834  Tot=              2.2209
 Quadrupole moment (field-independent basis, Debye-Ang):
   XX=            -88.5741   YY=            -88.2600   ZZ=            -94.7772
   XY=              6.8463   XZ=              1.8250   YZ=              1.2796
 Traceless Quadrupole moment (field-independent basis, Debye-Ang):
   XX=              1.9630   YY=              2.2771   ZZ=             -4.2401
   XY=              6.8463   XZ=              1.8250   YZ=              1.2796
 Octapole moment (field-independent basis, Debye-Ang**2):
  XXX=            -57.1483  YYY=              2.5354  ZZZ=             -0.4537  XYY=             -4.0618
  XXY=            -25.8465  XXZ=            -29.8839  XZZ=            -21.6981  YZZ=              3.8561
  YYZ=              4.6803  XYZ=            -16.7190
 Hexadecapole moment (field-independent basis, Debye-Ang**3):
 XXXX=          -4576.7418 YYYY=           -942.0246 ZZZZ=           -381.6310 XXXY=            144.8740
 XXXZ=             34.0812 YYYX=             26.0346 YYYZ=            -12.7427 ZZZX=            -11.0108
 ZZZY=             16.0801 XXYY=           -927.6061 XXZZ=           -916.2811 YYZZ=           -221.0843
 XXYZ=             13.0247 YYXZ=              9.6493 ZZXY=             12.6242
 N-N= 1.020048450065D+03 E-N=-3.603456018790D+03  KE= 6.688042404483D+02
 Breneman (CHELPG) radii used.
 Read replacement radii for each type of atom:
 Atom Element Radius
    1     6    1.50
    2     8    1.70
    3     6    1.50
    4     6    1.50
    5     6    1.50
    6     6    1.50
    7     6    1.50
    8     6    1.50
    9     7    1.70
   10     6    1.50
   11     6    1.50
   12     6    1.50
   13     6    1.50
   14     6    1.50
   15     6    1.50
   16     6    1.50
   17     1    1.45
   18     1    1.45
   19     1    1.45
   20     1    1.45
   21     1    1.45
   22     1    1.45
   23     1    1.45
   24     1    1.45
   25     1    1.45
   26     1    1.45
   27     1    1.45
   28     1    1.45
   29     1    1.45
   30     1    1.45
   31     1    1.45
 Generate Potential Derived Charges using the Breneman model, NDens= 1.
 Grid spacing= 0.300 Box extension= 2.800
 NStep X,Y,Z=   57     40     31   Total possible points=       70680
 Number of Points to Fit=   19063

 **********************************************************************

            Electrostatic Properties Using The SCF Density.

 **********************************************************************

       Atomic Center    1 is at  -4.937311 -1.256695 -0.613451
       Atomic Center    2 is at  -4.345025 -0.396844  0.320335
       Atomic Center    3 is at  -3.044486 -0.066018  0.174687
       Atomic Center    4 is at  -2.221493 -0.526122 -0.859598
       Atomic Center    5 is at  -0.890106 -0.114100 -0.921179
       Atomic Center    6 is at  -2.511968  0.796096  1.143545
       Atomic Center    7 is at  -1.180986  1.181288  1.081806
       Atomic Center    8 is at  -0.351255  0.736332  0.044320
       Atomic Center    9 is at   1.002431  1.166717 -0.026038
       Atomic Center   10 is at   1.249479  2.517168 -0.479047
       Atomic Center   11 is at   2.042344  0.244427  0.019886
       Atomic Center   12 is at   1.844267 -1.040997  0.567526
       Atomic Center   13 is at   2.889264 -1.952944  0.635606
       Atomic Center   14 is at   4.164511 -1.624469  0.171178
       Atomic Center   15 is at   4.370084 -0.357410 -0.365625
       Atomic Center   16 is at   3.330488  0.568096 -0.447451
       Atomic Center   17 is at  -4.919167 -0.831787 -1.632506
       Atomic Center   18 is at  -4.445136 -2.245034 -0.631568
       Atomic Center   19 is at  -5.981260 -1.387346 -0.303568
       Atomic Center   20 is at  -2.604206 -1.196942 -1.628875
       Atomic Center   21 is at  -0.250092 -0.471902 -1.730760
       Atomic Center   22 is at  -3.165181  1.139679  1.947273
       Atomic Center   23 is at  -0.763414  1.836416  1.849521
       Atomic Center   24 is at   1.503951  2.568183 -1.555552
       Atomic Center   25 is at   0.345150  3.117600 -0.319576
       Atomic Center   26 is at   2.070992  2.982328  0.089055
       Atomic Center   27 is at   0.860416 -1.317213  0.949030
       Atomic Center   28 is at   2.703063 -2.938977  1.068355
       Atomic Center   29 is at   4.981929 -2.345316  0.229485
       Atomic Center   30 is at   5.358012 -0.075165 -0.737920
       Atomic Center   31 is at   3.531143  1.545303 -0.886021
   19063 points will be used for fitting atomic charges
 Fitting point charges to electrostatic potential
 Charges from ESP fit, RMS=   0.00367 RRMS=   0.32684:
 ESP charges:
               1
     1  C    0.121975
     2  O   -0.361716
     3  C    0.398126
     4  C   -0.290506
     5  C   -0.118233
     6  C   -0.279372
     7  C   -0.118406
     8  C    0.263881
     9  N   -0.425835
    10  C    0.108454
    11  C    0.390953
    12  C   -0.248475
    13  C   -0.044016
    14  C   -0.182396
    15  C   -0.047356
    16  C   -0.279206
    17  H    0.010187
    18  H    0.019060
    19  H    0.058045
    20  H    0.146491
    21  H    0.099321
    22  H    0.139486
    23  H    0.118351
    24  H    0.006373
    25  H    0.011047
    26  H    0.020067
    27  H    0.082180
    28  H    0.093218
    29  H    0.096723
    30  H    0.088124
    31  H    0.123455
 Sum of ESP charges =   0.00000
 ESP charges with hydrogens summed into heavy atoms:
               1
     1  C    0.209269
     2  O   -0.361716
     3  C    0.398126
     4  C   -0.144015
     5  C   -0.018912
     6  C   -0.139885
     7  C   -0.000055
     8  C    0.263881
     9  N   -0.425835
    10  C    0.145942
    11  C    0.390953
    12  C   -0.166295
    13  C    0.049201
    14  C   -0.085673
    15  C    0.040768
    16  C   -0.155751
 Charge=   0.00000 Dipole=    -1.7796     0.1986    -1.1626 Tot=     2.1349
 -----------------------------------------------------------------

              Electrostatic Properties (Atomic Units)

 -----------------------------------------------------------------
    Center     Electric         -------- Electric Field --------
               Potential          X             Y             Z
 -----------------------------------------------------------------
    1 Atom    -14.709347
    2 Atom    -22.320810
    3 Atom    -14.703214
    4 Atom    -14.764684
    5 Atom    -14.764824
    6 Atom    -14.768861
    7 Atom    -14.765242
    8 Atom    -14.734921
    9 Atom    -18.365179
   10 Atom    -14.738846
   11 Atom    -14.732004
   12 Atom    -14.784477
   13 Atom    -14.778919
   14 Atom    -14.788167
   15 Atom    -14.778290
   16 Atom    -14.782526
   17 Atom     -1.101837
   18 Atom     -1.101839
   19 Atom     -1.100218
   20 Atom     -1.094581
   21 Atom     -1.101480
   22 Atom     -1.101243
   23 Atom     -1.100800
   24 Atom     -1.117725
   25 Atom     -1.107563
   26 Atom     -1.113828
   27 Atom     -1.117812
   28 Atom     -1.118292
   29 Atom     -1.121269
   30 Atom     -1.117501
   31 Atom     -1.113907
 -----------------------------------------------------------------
 Unable to Open any file for archive entry.
 1\1\GINC-NOTCH389\SP\RwB97XD\def2TZVP\C14H15N1O1\U1366379\17-Feb-2026\
 0\\#N Guess=Read Geom=Check Integral(Ultrafine) Density Pop=(ChelpG,Re
 adRadii) NMR wB97XD def2TZVP\\prod_5e_1\\0,1\C,0,4.9059041727,-1.34679
 76988,0.6089070905\O,0,4.3353975139,-0.4430207459,-0.2965271513\C,0,3.
 0374950977,-0.1013552375,-0.1523919606\C,0,2.1967689785,-0.5913263158,
 0.8535238148\C,0,0.8700226327,-0.1648048852,0.9165454022\C,0,2.5271849
 658,0.8052954863,-1.092110108\C,0,1.2005062484,1.2049984913,-1.0299913
 744\C,0,0.3531948477,0.7301222087,-0.0203518285\N,0,-0.9957187089,1.17
 49329281,0.0519213227\C,0,-1.2310923426,2.5094801044,0.5554587004\C,0,
 -2.0465053268,0.2687723075,-0.0422469309\C,0,-1.8581737227,-0.99642089
 16,-0.6382973562\C,0,-2.9136540015,-1.8913037937,-0.7542482215\C,0,-4.
 190022741,-1.5649396218,-0.2914158665\C,0,-4.3859529828,-0.3175686841,
 0.29299323\C,0,-3.3358623543,0.5903868895,0.4231574033\H,0,4.881182408
 6,-0.9623796344,1.6437790364\H,0,4.4011995882,-2.3286020077,0.58222255
 31\H,0,5.9516830123,-1.4786255524,0.305764484\H,0,2.5620265543,-1.2969
 993112,1.5997594528\H,0,0.2161575462,-0.5460429337,1.7040598797\H,0,3.
 1940008163,1.171922583,-1.8741948778\H,0,0.8001798061,1.8953843897,-1.
 7756800952\H,0,-1.4974665159,2.5211264329,1.6302288869\H,0,-0.31750552
 53,3.1039580661,0.4300983041\H,0,-2.0400149943,3.0074062412,-0.0028530
 173\H,0,-0.8734714804,-1.2700701962,-1.0194574719\H,0,-2.7347863581,-2
 .8617619157,-1.2237384979\H,0,-5.0156772399,-2.272231819,-0.3874622936
 \H,0,-5.3745482127,-0.0374784335,0.6651460116\H,0,-3.5293616825,1.5519
 835493,0.8979514791\\Version=ES64L-G16RevC.01\State=1-A\HF=-672.492845
 9\RMSD=1.334e-09\Dipole=0.7304364,0.0529584,0.4766156\Quadrupole=1.299
 8151,1.8941189,-3.193934,-5.1252046,1.1947675,-0.8288728\PG=C01 [X(C14
 H15N1O1)]\\@
 The archive entry for this job was punched.


 EXPERIENCE IS A WONDERFUL THING.  IT ENABLES
 YOU TO RECOGNIZE A MISTAKE WHEN YOU MAKE IT AGAIN.
           - BACK OF A SUGAR PACKET
 Job cpu time:       0 days  1 hours 13 minutes  5.0 seconds.
 Elapsed time:       0 days  0 hours  9 minutes 24.5 seconds.
 File lengths (MBytes):  RWF=    209 Int=      0 D2E=      0 Chk=     32 Scr=      2
 Normal termination of Gaussian 16 at Tue Feb 17 16:37:35 2026.
