 Entering Gaussian System, Link 0=g16
 Input=1236666_2.com
 Output=1236666_2.log
 Initial command:
 /uufs/chpc.utah.edu/sys/installdir/gaussian16/C01/AVX/g16/l1.exe "/scratch/general/vast/u6053008/1319799-notchpeak.peaks/Gau-390064.inp" -scrdir="/scratch/general/vast/u6053008/1319799-notchpeak.peaks/"
 Entering Link 1 = /uufs/chpc.utah.edu/sys/installdir/gaussian16/C01/AVX/g16/l1.exe PID=    390065.
  
 Copyright (c) 1988-2019, Gaussian, Inc.  All Rights Reserved.
  
 This is part of the Gaussian(R) 16 program.  It is based on
 the Gaussian(R) 09 system (copyright 2009, Gaussian, Inc.),
 the Gaussian(R) 03 system (copyright 2003, Gaussian, Inc.),
 the Gaussian(R) 98 system (copyright 1998, Gaussian, Inc.),
 the Gaussian(R) 94 system (copyright 1995, Gaussian, Inc.),
 the Gaussian 92(TM) system (copyright 1992, Gaussian, Inc.),
 the Gaussian 90(TM) system (copyright 1990, Gaussian, Inc.),
 the Gaussian 88(TM) system (copyright 1988, Gaussian, Inc.),
 the Gaussian 86(TM) system (copyright 1986, Carnegie Mellon
 University), and the Gaussian 82(TM) system (copyright 1983,
 Carnegie Mellon University). Gaussian is a federally registered
 trademark of Gaussian, Inc.
  
 This software contains proprietary and confidential information,
 including trade secrets, belonging to Gaussian, Inc.
  
 This software is provided under written license and may be
 used, copied, transmitted, or stored only in accord with that
 written license.
  
 The following legend is applicable only to US Government
 contracts under FAR:
  
                    RESTRICTED RIGHTS LEGEND
  
 Use, reproduction and disclosure by the US Government is
 subject to restrictions as set forth in subparagraphs (a)
 and (c) of the Commercial Computer Software - Restricted
 Rights clause in FAR 52.227-19.
  
 Gaussian, Inc.
 340 Quinnipiac St., Bldg. 40, Wallingford CT 06492
  
  
 ---------------------------------------------------------------
 Warning -- This program may not be used in any manner that
 competes with the business of Gaussian, Inc. or will provide
 assistance to any competitor of Gaussian, Inc.  The licensee
 of this program is prohibited from giving any competitor of
 Gaussian, Inc. access to this program.  By using this program,
 the user acknowledges that Gaussian, Inc. is engaged in the
 business of creating and licensing software in the field of
 computational chemistry and represents and warrants to the
 licensee that it is not a competitor of Gaussian, Inc. and that
 it will not use this program in any manner prohibited above.
 ---------------------------------------------------------------
  

 Cite this work as:
 Gaussian 16, Revision C.01,
 M. J. Frisch, G. W. Trucks, H. B. Schlegel, G. E. Scuseria, 
 M. A. Robb, J. R. Cheeseman, G. Scalmani, V. Barone, 
 G. A. Petersson, H. Nakatsuji, X. Li, M. Caricato, A. V. Marenich, 
 J. Bloino, B. G. Janesko, R. Gomperts, B. Mennucci, H. P. Hratchian, 
 J. V. Ortiz, A. F. Izmaylov, J. L. Sonnenberg, D. Williams-Young, 
 F. Ding, F. Lipparini, F. Egidi, J. Goings, B. Peng, A. Petrone, 
 T. Henderson, D. Ranasinghe, V. G. Zakrzewski, J. Gao, N. Rega, 
 G. Zheng, W. Liang, M. Hada, M. Ehara, K. Toyota, R. Fukuda, 
 J. Hasegawa, M. Ishida, T. Nakajima, Y. Honda, O. Kitao, H. Nakai, 
 T. Vreven, K. Throssell, J. A. Montgomery, Jr., J. E. Peralta, 
 F. Ogliaro, M. J. Bearpark, J. J. Heyd, E. N. Brothers, K. N. Kudin, 
 V. N. Staroverov, T. A. Keith, R. Kobayashi, J. Normand, 
 K. Raghavachari, A. P. Rendell, J. C. Burant, S. S. Iyengar, 
 J. Tomasi, M. Cossi, J. M. Millam, M. Klene, C. Adamo, R. Cammi, 
 J. W. Ochterski, R. L. Martin, K. Morokuma, O. Farkas, 
 J. B. Foresman, and D. J. Fox, Gaussian, Inc., Wallingford CT, 2019.
 
 ******************************************
 Gaussian 16:  ES64L-G16RevC.01  3-Jul-2019
                14-Jul-2024 
 ******************************************
 %NProcShared=16
 Will use up to   16 processors via shared memory.
 %Mem=32GB
 %chk=1236666_2.chk
 ------------------------------------------------------
 #N OPT FREQ=NORAMAN Integral(Ultrafine) wB97XD def2SVP
 ------------------------------------------------------
 1/18=20,19=15,26=4,38=1/1,3;
 2/9=110,12=2,17=6,18=5,40=1/2;
 3/5=43,7=101,11=2,25=1,30=1,71=1,74=-58,75=-5/1,2,3;
 4//1;
 5/5=2,38=5/2;
 6/7=2,8=2,9=2,10=2,28=1/1;
 7//1,2,3,16;
 1/18=20,19=15,26=4/3(2);
 2/9=110/2;
 99//99;
 2/9=110/2;
 3/5=43,7=101,11=2,25=1,30=1,71=1,74=-58,75=-5/1,2,3;
 4/5=5,16=3,69=1/1;
 5/5=2,38=5/2;
 7//1,2,3,16;
 1/18=20,19=15,26=4/3(-5);
 2/9=110/2;
 6/7=2,8=2,9=2,10=2,19=2,28=1/1;
 99/9=1/99;
 ---------
 1236666_2
 ---------
 Symbolic Z-matrix:
 Charge =  0 Multiplicity = 1
 N                     3.65647  -1.57287   0.27532 
 C                     2.74755  -0.55497   0.11845 
 C                     3.15677   0.79242   0.1556 
 C                     2.18001   1.76581   0.01732 
 N                     0.88317   1.52678  -0.13916 
 C                     0.47609   0.24838  -0.16554 
 N                    -0.87079   0.02094  -0.31002 
 C                    -1.80431   1.10566  -0.55538 
 C                    -2.9439    1.09782   0.46761 
 C                    -3.42926  -0.33755   0.76816 
 C                    -2.92688  -1.32051  -0.28747 
 C                    -1.39905  -1.32952  -0.32059 
 C                     1.38552  -0.8252   -0.0506 
 H                     4.632    -1.35764   0.12627 
 H                     3.3782   -2.50259  -0.00516 
 H                     4.20586   1.06337   0.28652 
 H                     2.47159   2.82275   0.03415 
 H                    -2.21141   1.019    -1.57989 
 H                    -1.23666   2.04074  -0.51201 
 H                    -2.60207   1.57971   1.3959 
 H                    -3.76754   1.71611   0.07672 
 H                    -4.52687  -0.37573   0.83525 
 H                    -3.04943  -0.66335   1.75065 
 H                    -3.33058  -1.05274  -1.27753 
 H                    -3.27992  -2.34111  -0.07654 
 H                    -1.03694  -1.89622  -1.20163 
 H                    -1.03416  -1.86921   0.57305 
 H                     1.05064  -1.86103  -0.09418 
 

 GradGradGradGradGradGradGradGradGradGradGradGradGradGradGradGradGradGrad
 Berny optimization.
 Initialization pass.
                           ----------------------------
                           !    Initial Parameters    !
                           ! (Angstroms and Degrees)  !
 --------------------------                            --------------------------
 ! Name  Definition              Value          Derivative Info.                !
 --------------------------------------------------------------------------------
 ! R1    R(1,2)                  1.3736         estimate D2E/DX2                !
 ! R2    R(1,14)                 1.01           estimate D2E/DX2                !
 ! R3    R(1,15)                 1.0102         estimate D2E/DX2                !
 ! R4    R(2,3)                  1.4087         estimate D2E/DX2                !
 ! R5    R(2,13)                 1.3988         estimate D2E/DX2                !
 ! R6    R(3,4)                  1.3859         estimate D2E/DX2                !
 ! R7    R(3,16)                 1.0914         estimate D2E/DX2                !
 ! R8    R(4,5)                  1.3279         estimate D2E/DX2                !
 ! R9    R(4,17)                 1.0966         estimate D2E/DX2                !
 ! R10   R(5,6)                  1.3419         estimate D2E/DX2                !
 ! R11   R(6,7)                  1.3736         estimate D2E/DX2                !
 ! R12   R(6,13)                 1.4117         estimate D2E/DX2                !
 ! R13   R(7,8)                  1.452          estimate D2E/DX2                !
 ! R14   R(7,12)                 1.4501         estimate D2E/DX2                !
 ! R15   R(8,9)                  1.5314         estimate D2E/DX2                !
 ! R16   R(8,18)                 1.1058         estimate D2E/DX2                !
 ! R17   R(8,19)                 1.0948         estimate D2E/DX2                !
 ! R18   R(9,10)                 1.5447         estimate D2E/DX2                !
 ! R19   R(9,20)                 1.1004         estimate D2E/DX2                !
 ! R20   R(9,21)                 1.1016         estimate D2E/DX2                !
 ! R21   R(10,11)                1.5274         estimate D2E/DX2                !
 ! R22   R(10,22)                1.1003         estimate D2E/DX2                !
 ! R23   R(10,23)                1.1026         estimate D2E/DX2                !
 ! R24   R(11,12)                1.5282         estimate D2E/DX2                !
 ! R25   R(11,24)                1.1022         estimate D2E/DX2                !
 ! R26   R(11,25)                1.1003         estimate D2E/DX2                !
 ! R27   R(12,26)                1.1084         estimate D2E/DX2                !
 ! R28   R(12,27)                1.1059         estimate D2E/DX2                !
 ! R29   R(13,28)                1.0895         estimate D2E/DX2                !
 ! A1    A(2,1,14)             117.6663         estimate D2E/DX2                !
 ! A2    A(2,1,15)             117.9059         estimate D2E/DX2                !
 ! A3    A(14,1,15)            114.9098         estimate D2E/DX2                !
 ! A4    A(1,2,3)              120.9016         estimate D2E/DX2                !
 ! A5    A(1,2,13)             120.9928         estimate D2E/DX2                !
 ! A6    A(3,2,13)             118.0882         estimate D2E/DX2                !
 ! A7    A(2,3,4)              117.6739         estimate D2E/DX2                !
 ! A8    A(2,3,16)             121.3236         estimate D2E/DX2                !
 ! A9    A(4,3,16)             121.0024         estimate D2E/DX2                !
 ! A10   A(3,4,5)              125.0031         estimate D2E/DX2                !
 ! A11   A(3,4,17)             119.2124         estimate D2E/DX2                !
 ! A12   A(5,4,17)             115.7845         estimate D2E/DX2                !
 ! A13   A(4,5,6)              118.0378         estimate D2E/DX2                !
 ! A14   A(5,6,7)              117.2117         estimate D2E/DX2                !
 ! A15   A(5,6,13)             121.835          estimate D2E/DX2                !
 ! A16   A(7,6,13)             120.9533         estimate D2E/DX2                !
 ! A17   A(6,7,8)              121.635          estimate D2E/DX2                !
 ! A18   A(6,7,12)             120.8086         estimate D2E/DX2                !
 ! A19   A(8,7,12)             117.4044         estimate D2E/DX2                !
 ! A20   A(7,8,9)              111.206          estimate D2E/DX2                !
 ! A21   A(7,8,18)             109.5541         estimate D2E/DX2                !
 ! A22   A(7,8,19)             107.3396         estimate D2E/DX2                !
 ! A23   A(9,8,18)             110.1531         estimate D2E/DX2                !
 ! A24   A(9,8,19)             111.3313         estimate D2E/DX2                !
 ! A25   A(18,8,19)            107.1292         estimate D2E/DX2                !
 ! A26   A(8,9,10)             111.6255         estimate D2E/DX2                !
 ! A27   A(8,9,20)             109.2768         estimate D2E/DX2                !
 ! A28   A(8,9,21)             108.4501         estimate D2E/DX2                !
 ! A29   A(10,9,20)            109.9015         estimate D2E/DX2                !
 ! A30   A(10,9,21)            110.8336         estimate D2E/DX2                !
 ! A31   A(20,9,21)            106.6082         estimate D2E/DX2                !
 ! A32   A(9,10,11)            111.111          estimate D2E/DX2                !
 ! A33   A(9,10,22)            110.9489         estimate D2E/DX2                !
 ! A34   A(9,10,23)            109.8585         estimate D2E/DX2                !
 ! A35   A(11,10,22)           110.3596         estimate D2E/DX2                !
 ! A36   A(11,10,23)           108.2028         estimate D2E/DX2                !
 ! A37   A(22,10,23)           106.2038         estimate D2E/DX2                !
 ! A38   A(10,11,12)           110.3407         estimate D2E/DX2                !
 ! A39   A(10,11,24)           110.1202         estimate D2E/DX2                !
 ! A40   A(10,11,25)           111.0325         estimate D2E/DX2                !
 ! A41   A(12,11,24)           110.3732         estimate D2E/DX2                !
 ! A42   A(12,11,25)           108.6297         estimate D2E/DX2                !
 ! A43   A(24,11,25)           106.2606         estimate D2E/DX2                !
 ! A44   A(7,12,11)            111.0106         estimate D2E/DX2                !
 ! A45   A(7,12,26)            111.2799         estimate D2E/DX2                !
 ! A46   A(7,12,27)            109.1706         estimate D2E/DX2                !
 ! A47   A(11,12,26)           110.2955         estimate D2E/DX2                !
 ! A48   A(11,12,27)           108.3748         estimate D2E/DX2                !
 ! A49   A(26,12,27)           106.5599         estimate D2E/DX2                !
 ! A50   A(2,13,6)             119.3533         estimate D2E/DX2                !
 ! A51   A(2,13,28)            119.1954         estimate D2E/DX2                !
 ! A52   A(6,13,28)            121.451          estimate D2E/DX2                !
 ! D1    D(14,1,2,3)           -18.9024         estimate D2E/DX2                !
 ! D2    D(14,1,2,13)          162.6438         estimate D2E/DX2                !
 ! D3    D(15,1,2,3)          -163.568          estimate D2E/DX2                !
 ! D4    D(15,1,2,13)           17.9782         estimate D2E/DX2                !
 ! D5    D(1,2,3,4)           -178.7048         estimate D2E/DX2                !
 ! D6    D(1,2,3,16)             1.4178         estimate D2E/DX2                !
 ! D7    D(13,2,3,4)            -0.2072         estimate D2E/DX2                !
 ! D8    D(13,2,3,16)          179.9154         estimate D2E/DX2                !
 ! D9    D(1,2,13,6)           177.9675         estimate D2E/DX2                !
 ! D10   D(1,2,13,28)           -2.2485         estimate D2E/DX2                !
 ! D11   D(3,2,13,6)            -0.5287         estimate D2E/DX2                !
 ! D12   D(3,2,13,28)          179.2554         estimate D2E/DX2                !
 ! D13   D(2,3,4,5)              0.4691         estimate D2E/DX2                !
 ! D14   D(2,3,4,17)          -179.4958         estimate D2E/DX2                !
 ! D15   D(16,3,4,5)          -179.6531         estimate D2E/DX2                !
 ! D16   D(16,3,4,17)            0.382          estimate D2E/DX2                !
 ! D17   D(3,4,5,6)              0.0688         estimate D2E/DX2                !
 ! D18   D(17,4,5,6)          -179.9652         estimate D2E/DX2                !
 ! D19   D(4,5,6,7)            179.1422         estimate D2E/DX2                !
 ! D20   D(4,5,6,13)            -0.865          estimate D2E/DX2                !
 ! D21   D(5,6,7,8)              5.8822         estimate D2E/DX2                !
 ! D22   D(5,6,7,12)          -178.7164         estimate D2E/DX2                !
 ! D23   D(13,6,7,8)          -174.1106         estimate D2E/DX2                !
 ! D24   D(13,6,7,12)            1.2908         estimate D2E/DX2                !
 ! D25   D(5,6,13,2)             1.1059         estimate D2E/DX2                !
 ! D26   D(5,6,13,28)         -178.6731         estimate D2E/DX2                !
 ! D27   D(7,6,13,2)          -178.9016         estimate D2E/DX2                !
 ! D28   D(7,6,13,28)            1.3194         estimate D2E/DX2                !
 ! D29   D(6,7,8,9)           -126.3562         estimate D2E/DX2                !
 ! D30   D(6,7,8,18)           111.6396         estimate D2E/DX2                !
 ! D31   D(6,7,8,19)            -4.3577         estimate D2E/DX2                !
 ! D32   D(12,7,8,9)            58.0923         estimate D2E/DX2                !
 ! D33   D(12,7,8,18)          -63.9118         estimate D2E/DX2                !
 ! D34   D(12,7,8,19)         -179.9091         estimate D2E/DX2                !
 ! D35   D(6,7,12,11)          171.7253         estimate D2E/DX2                !
 ! D36   D(6,7,12,26)          -65.0213         estimate D2E/DX2                !
 ! D37   D(6,7,12,27)           52.3166         estimate D2E/DX2                !
 ! D38   D(8,7,12,11)          -12.6844         estimate D2E/DX2                !
 ! D39   D(8,7,12,26)          110.5689         estimate D2E/DX2                !
 ! D40   D(8,7,12,27)         -132.0932         estimate D2E/DX2                !
 ! D41   D(7,8,9,10)           -40.5683         estimate D2E/DX2                !
 ! D42   D(7,8,9,20)            81.2063         estimate D2E/DX2                !
 ! D43   D(7,8,9,21)          -162.9515         estimate D2E/DX2                !
 ! D44   D(18,8,9,10)           81.0874         estimate D2E/DX2                !
 ! D45   D(18,8,9,20)         -157.138          estimate D2E/DX2                !
 ! D46   D(18,8,9,21)          -41.2958         estimate D2E/DX2                !
 ! D47   D(19,8,9,10)         -160.2189         estimate D2E/DX2                !
 ! D48   D(19,8,9,20)          -38.4442         estimate D2E/DX2                !
 ! D49   D(19,8,9,21)           77.3979         estimate D2E/DX2                !
 ! D50   D(8,9,10,11)          -15.4514         estimate D2E/DX2                !
 ! D51   D(8,9,10,22)         -138.623          estimate D2E/DX2                !
 ! D52   D(8,9,10,23)          104.2495         estimate D2E/DX2                !
 ! D53   D(20,9,10,11)        -136.8646         estimate D2E/DX2                !
 ! D54   D(20,9,10,22)          99.9638         estimate D2E/DX2                !
 ! D55   D(20,9,10,23)         -17.1637         estimate D2E/DX2                !
 ! D56   D(21,9,10,11)         105.554          estimate D2E/DX2                !
 ! D57   D(21,9,10,22)         -17.6176         estimate D2E/DX2                !
 ! D58   D(21,9,10,23)        -134.7451         estimate D2E/DX2                !
 ! D59   D(9,10,11,12)          59.9467         estimate D2E/DX2                !
 ! D60   D(9,10,11,24)         -62.1418         estimate D2E/DX2                !
 ! D61   D(9,10,11,25)        -179.5518         estimate D2E/DX2                !
 ! D62   D(22,10,11,12)       -176.5441         estimate D2E/DX2                !
 ! D63   D(22,10,11,24)         61.3675         estimate D2E/DX2                !
 ! D64   D(22,10,11,25)        -56.0426         estimate D2E/DX2                !
 ! D65   D(23,10,11,12)        -60.7358         estimate D2E/DX2                !
 ! D66   D(23,10,11,24)        177.1757         estimate D2E/DX2                !
 ! D67   D(23,10,11,25)         59.7656         estimate D2E/DX2                !
 ! D68   D(10,11,12,7)         -45.8972         estimate D2E/DX2                !
 ! D69   D(10,11,12,26)       -169.7145         estimate D2E/DX2                !
 ! D70   D(10,11,12,27)         73.9868         estimate D2E/DX2                !
 ! D71   D(24,11,12,7)          76.042          estimate D2E/DX2                !
 ! D72   D(24,11,12,26)        -47.7753         estimate D2E/DX2                !
 ! D73   D(24,11,12,27)       -164.074          estimate D2E/DX2                !
 ! D74   D(25,11,12,7)        -167.8287         estimate D2E/DX2                !
 ! D75   D(25,11,12,26)         68.354          estimate D2E/DX2                !
 ! D76   D(25,11,12,27)        -47.9447         estimate D2E/DX2                !
 --------------------------------------------------------------------------------
 Trust Radius=3.00D-01 FncErr=1.00D-07 GrdErr=1.00D-06 EigMax=2.50D+02 EigMin=1.00D-04
 Number of steps in this run=    167 maximum allowed number of steps=    168.
 GradGradGradGradGradGradGradGradGradGradGradGradGradGradGradGradGradGrad

                          Input orientation:                          
 ---------------------------------------------------------------------
 Center     Atomic      Atomic             Coordinates (Angstroms)
 Number     Number       Type             X           Y           Z
 ---------------------------------------------------------------------
      1          7           0        3.656470   -1.572870    0.275320
      2          6           0        2.747550   -0.554970    0.118450
      3          6           0        3.156770    0.792420    0.155600
      4          6           0        2.180010    1.765810    0.017320
      5          7           0        0.883170    1.526780   -0.139160
      6          6           0        0.476090    0.248380   -0.165540
      7          7           0       -0.870790    0.020940   -0.310020
      8          6           0       -1.804310    1.105660   -0.555380
      9          6           0       -2.943900    1.097820    0.467610
     10          6           0       -3.429260   -0.337550    0.768160
     11          6           0       -2.926880   -1.320510   -0.287470
     12          6           0       -1.399050   -1.329520   -0.320590
     13          6           0        1.385520   -0.825200   -0.050600
     14          1           0        4.632000   -1.357640    0.126270
     15          1           0        3.378200   -2.502590   -0.005160
     16          1           0        4.205860    1.063370    0.286520
     17          1           0        2.471590    2.822750    0.034150
     18          1           0       -2.211410    1.019000   -1.579890
     19          1           0       -1.236660    2.040740   -0.512010
     20          1           0       -2.602070    1.579710    1.395900
     21          1           0       -3.767540    1.716110    0.076720
     22          1           0       -4.526870   -0.375730    0.835250
     23          1           0       -3.049430   -0.663350    1.750650
     24          1           0       -3.330580   -1.052740   -1.277530
     25          1           0       -3.279920   -2.341110   -0.076540
     26          1           0       -1.036940   -1.896220   -1.201630
     27          1           0       -1.034160   -1.869210    0.573050
     28          1           0        1.050640   -1.861030   -0.094180
 ---------------------------------------------------------------------
                    Distance matrix (angstroms):
                    1          2          3          4          5
     1  N    0.000000
     2  C    1.373632   0.000000
     3  C    2.420461   1.408652   0.000000
     4  C    3.659683   2.391307   1.385882   0.000000
     5  N    4.179811   2.806414   2.407369   1.327936   0.000000
     6  C    3.691358   2.426016   2.754116   2.288968   1.341908
     7  N    4.835177   3.688854   4.127133   3.529746   2.318000
     8  C    6.138787   4.891949   5.021546   4.079043   2.751932
     9  C    7.122812   5.936854   6.116273   5.186851   3.898543
    10  C    7.209471   6.214690   6.710280   6.037532   4.784977
    11  C    6.612179   5.740207   6.455353   5.974830   4.758733
    12  C    5.096333   4.241105   5.048255   4.743935   3.660587
    13  C    2.412975   1.398831   2.407600   2.710933   2.406659
    14  H    1.010049   2.048290   2.607666   3.972413   4.737516
    15  H    1.010189   2.050908   3.306352   4.433441   4.741197
    16  H    2.692901   2.184935   1.091395   2.161009   3.381748
    17  H    4.558901   3.390023   2.146267   1.096551   2.057341
    18  H    6.677695   5.472936   5.646293   4.732164   3.451082
    19  H    6.133579   4.796782   4.615868   3.468344   2.212883
    20  H    7.096745   5.899760   5.943266   4.980302   3.808689
    21  H    8.122361   6.899706   6.986093   5.948054   4.659566
    22  H    8.289374   7.311848   7.801591   7.087838   5.817005
    23  H    6.926249   6.023355   6.571177   6.020988   4.881946
    24  H    7.176402   6.256213   6.895229   6.323564   5.070059
    25  H    6.987668   6.289572   7.162673   6.832747   5.682940
    26  H    4.930926   4.226574   5.163145   5.024447   4.066029
    27  H    4.709402   4.029295   4.982212   4.883963   3.964359
    28  H    2.647625   2.151861   3.396906   3.800247   3.392245
                    6          7          8          9         10
     6  C    0.000000
     7  N    1.373568   0.000000
     8  C    2.467211   1.451991   0.000000
     9  C    3.580329   2.462146   1.531416   0.000000
    10  C    4.057939   2.799421   2.544617   1.544730   0.000000
    11  C    3.749198   2.455097   2.686678   2.533526   1.527400
    12  C    2.455597   1.450142   2.479811   2.983253   2.508213
    13  C    1.411683   2.423672   3.762717   4.765546   4.908185
    14  H    4.464979   5.689598   6.925213   7.971202   8.150860
    15  H    4.001975   4.951268   6.338819   7.290776   7.185188
    16  H    3.844444   5.216790   6.068997   7.152136   7.777507
    17  H    3.263323   4.374940   4.645349   5.700070   6.733966
    18  H    3.133193   2.099037   1.105831   2.176008   2.972663
    19  H    2.503220   2.062584   1.094752   2.182526   3.478878
    20  H    3.699406   2.887431   2.160703   1.100358   2.180410
    21  H    4.496812   3.378510   2.150923   1.101572   2.193181
    22  H    5.140107   3.851741   3.397161   2.193696   1.100321
    23  H    4.114891   3.075888   3.161881   2.181524   1.102589
    24  H    4.173748   2.852969   2.740382   2.796416   2.169351
    25  H    4.563002   3.381967   3.779806   3.497892   2.179466
    26  H    2.821711   2.120867   3.165088   3.922644   3.468821
    27  H    2.703804   2.092647   3.273582   3.530084   2.849659
    28  H    2.187421   2.698201   4.143030   5.002674   4.809795
                   11         12         13         14         15
    11  C    0.000000
    12  C    1.528216   0.000000
    13  C    4.347210   2.842721   0.000000
    14  H    7.570286   6.047647   3.294603   0.000000
    15  H    6.421141   4.929270   2.605086   1.702997   0.000000
    16  H    7.542435   6.124502   3.410962   2.463446   3.672352
    17  H    6.812747   5.687622   3.807134   4.706540   5.402105
    18  H    2.766867   2.785913   4.321771   7.442557   6.791547
    19  H    3.768987   3.379595   3.911820   6.811575   6.495820
    20  H    3.369052   3.585696   4.876149   7.910231   7.375078
    21  H    3.171814   3.878590   5.747042   8.944421   8.298538
    22  H    2.170962   3.468276   5.995257   9.238598   8.229213
    23  H    2.144950   2.730855   4.789518   7.881942   6.912315
    24  H    1.102222   2.173281   4.878394   8.091125   6.980596
    25  H    1.100342   2.149546   4.905608   7.975389   6.660460
    26  H    2.176925   1.108379   2.887952   5.847244   4.614400
    27  H    2.150338   1.105894   2.708089   5.706723   4.494932
    28  H    4.018730   2.516892   1.089490   3.623277   2.416001
                   16         17         18         19         20
    16  H    0.000000
    17  H    2.483304   0.000000
    18  H    6.683323   5.271539   0.000000
    19  H    5.586942   3.828962   1.770440   0.000000
    20  H    6.917026   5.398290   3.053250   2.391028   0.000000
    21  H    8.002824   6.336656   2.377364   2.618653   1.765548
    22  H    8.867507   7.736309   3.624849   4.298828   2.800523
    23  H    7.600294   6.751365   3.824275   3.964577   2.314583
    24  H    7.982612   7.099655   2.374041   3.813154   3.822008
    25  H    8.231598   7.730302   3.833029   4.854395   4.242687
    26  H    6.201670   6.008795   3.165591   4.001889   4.612904
    27  H    6.011650   5.881767   3.789832   4.062766   3.876915
    28  H    4.318850   4.896260   4.598138   4.542041   5.234627
                   21         22         23         24         25
    21  H    0.000000
    22  H    2.351116   0.000000
    23  H    2.996590   1.761679   0.000000
    24  H    3.113111   2.520574   3.066031   0.000000
    25  H    4.089290   2.499793   2.491310   1.762056   0.000000
    26  H    4.705240   4.317451   3.779688   2.444996   2.548473
    27  H    4.535662   3.807657   2.627195   3.060198   2.384973
    28  H    6.003332   5.846244   4.652785   4.609635   4.357125
                   26         27         28
    26  H    0.000000
    27  H    1.774888   0.000000
    28  H    2.363403   2.188985   0.000000
 Stoichiometry    C10H15N3
 Framework group  C1[X(C10H15N3)]
 Deg. of freedom    78
 Full point group                 C1      NOp   1
 Largest Abelian subgroup         C1      NOp   1
 Largest concise Abelian subgroup C1      NOp   1
                         Standard orientation:                         
 ---------------------------------------------------------------------
 Center     Atomic      Atomic             Coordinates (Angstroms)
 Number     Number       Type             X           Y           Z
 ---------------------------------------------------------------------
      1          7           0        3.656471   -1.572870    0.275321
      2          6           0        2.747551   -0.554970    0.118451
      3          6           0        3.156771    0.792420    0.155601
      4          6           0        2.180011    1.765810    0.017321
      5          7           0        0.883171    1.526780   -0.139159
      6          6           0        0.476091    0.248380   -0.165539
      7          7           0       -0.870789    0.020939   -0.310019
      8          6           0       -1.804309    1.105659   -0.555379
      9          6           0       -2.943899    1.097819    0.467611
     10          6           0       -3.429259   -0.337551    0.768161
     11          6           0       -2.926879   -1.320511   -0.287469
     12          6           0       -1.399049   -1.329521   -0.320589
     13          6           0        1.385521   -0.825200   -0.050599
     14          1           0        4.632001   -1.357640    0.126271
     15          1           0        3.378201   -2.502590   -0.005159
     16          1           0        4.205861    1.063370    0.286521
     17          1           0        2.471591    2.822750    0.034151
     18          1           0       -2.211409    1.018999   -1.579889
     19          1           0       -1.236659    2.040739   -0.512009
     20          1           0       -2.602069    1.579709    1.395901
     21          1           0       -3.767539    1.716109    0.076721
     22          1           0       -4.526869   -0.375731    0.835251
     23          1           0       -3.049429   -0.663351    1.750651
     24          1           0       -3.330579   -1.052741   -1.277529
     25          1           0       -3.279919   -2.341111   -0.076539
     26          1           0       -1.036939   -1.896221   -1.201629
     27          1           0       -1.034159   -1.869211    0.573051
     28          1           0        1.050641   -1.861030   -0.094179
 ---------------------------------------------------------------------
 Rotational constants (GHZ):           1.8407481           0.4667202           0.3902631
 Standard basis: def2SVP (5D, 7F)
 There are   270 symmetry adapted cartesian basis functions of A   symmetry.
 There are   257 symmetry adapted basis functions of A   symmetry.
   257 basis functions,   430 primitive gaussians,   270 cartesian basis functions
    48 alpha electrons       48 beta electrons
       nuclear repulsion energy       796.9773040215 Hartrees.
 NAtoms=   28 NActive=   28 NUniq=   28 SFac= 1.00D+00 NAtFMM=   60 NAOKFM=F Big=F
 Integral buffers will be    131072 words long.
 Raffenetti 2 integral format.
 Two-electron integral symmetry is turned on.
 Nuclear repulsion after empirical dispersion term =      796.9581292721 Hartrees.
 One-electron integrals computed using PRISM.
   1 Symmetry operations used in ECPInt.
 ECPInt:  NShTT=    7626 NPrTT=   27010 LenC2=    7274 LenP2D=   19330.
 LDataN:  DoStor=T MaxTD1= 4 Len=   56
 NBasis=   257 RedAO= T EigKep=  5.44D-04  NBF=   257
 NBsUse=   257 1.00D-06 EigRej= -1.00D+00 NBFU=   257
 ExpMin= 1.22D-01 ExpMax= 1.71D+03 ExpMxC= 2.58D+02 IAcc=3 IRadAn=         5 AccDes= 0.00D+00
 Harris functional with IExCor= 4639 and IRadAn=       5 diagonalized for initial guess.
 HarFok:  IExCor= 4639 AccDes= 0.00D+00 IRadAn=         5 IDoV= 1 UseB2=F ITyADJ=14
 ICtDFT=  3500011 ScaDFX=  1.000000  1.000000  1.000000  1.000000
 FoFCou: FMM=F IPFlag=           0 FMFlag=      100000 FMFlg1=           0
         NFxFlg=           0 DoJE=T BraDBF=F KetDBF=T FulRan=T
         wScrn=  0.000000 ICntrl=       500 IOpCl=  0 I1Cent=   200000004 NGrid=           0
         NMat0=    1 NMatS0=      1 NMatT0=    0 NMatD0=    1 NMtDS0=    0 NMtDT0=    0
 Petite list used in FoFCou.
 Requested convergence on RMS density matrix=1.00D-08 within 128 cycles.
 Requested convergence on MAX density matrix=1.00D-06.
 Requested convergence on             energy=1.00D-06.
 No special actions if energy rises.
 Integral accuracy reduced to 1.0D-05 until final iterations.
 Initial convergence to 1.0D-05 achieved.  Increase integral accuracy.
 SCF Done:  E(RwB97XD) =  -553.797161253     A.U. after   15 cycles
            NFock= 15  Conv=0.83D-08     -V/T= 2.0114

 **********************************************************************

            Population analysis using the SCF Density.

 **********************************************************************

 Orbital symmetries:
       Occupied  (A) (A) (A) (A) (A) (A) (A) (A) (A) (A) (A) (A)
                 (A) (A) (A) (A) (A) (A) (A) (A) (A) (A) (A) (A)
                 (A) (A) (A) (A) (A) (A) (A) (A) (A) (A) (A) (A)
                 (A) (A) (A) (A) (A) (A) (A) (A) (A) (A) (A) (A)
       Virtual   (A) (A) (A) (A) (A) (A) (A) (A) (A) (A) (A) (A)
                 (A) (A) (A) (A) (A) (A) (A) (A) (A) (A) (A) (A)
                 (A) (A) (A) (A) (A) (A) (A) (A) (A) (A) (A) (A)
                 (A) (A) (A) (A) (A) (A) (A) (A) (A) (A) (A) (A)
                 (A) (A) (A) (A) (A) (A) (A) (A) (A) (A) (A) (A)
                 (A) (A) (A) (A) (A) (A) (A) (A) (A) (A) (A) (A)
                 (A) (A) (A) (A) (A) (A) (A) (A) (A) (A) (A) (A)
                 (A) (A) (A) (A) (A) (A) (A) (A) (A) (A) (A) (A)
                 (A) (A) (A) (A) (A) (A) (A) (A) (A) (A) (A) (A)
                 (A) (A) (A) (A) (A) (A) (A) (A) (A) (A) (A) (A)
                 (A) (A) (A) (A) (A) (A) (A) (A) (A) (A) (A) (A)
                 (A) (A) (A) (A) (A) (A) (A) (A) (A) (A) (A) (A)
                 (A) (A) (A) (A) (A) (A) (A) (A) (A) (A) (A) (A)
                 (A) (A) (A) (A) (A) (A) (A) (A) (A) (A) (A) (A)
                 (A) (A) (A) (A) (A) (A) (A) (A) (A) (A) (A) (A)
                 (A) (A) (A) (A) (A) (A) (A) (A) (A) (A) (A) (A)
                 (A) (A) (A) (A) (A) (A) (A) (A) (A) (A) (A) (A)
                 (A) (A) (A) (A) (A)
 The electronic state is 1-A.
 Alpha  occ. eigenvalues --  -14.45506 -14.44818 -14.40377 -10.35600 -10.34499
 Alpha  occ. eigenvalues --  -10.32757 -10.31758 -10.31022 -10.29855 -10.29270
 Alpha  occ. eigenvalues --  -10.28686 -10.27866 -10.27610  -1.05638  -1.01621
 Alpha  occ. eigenvalues --   -0.98994  -0.89242  -0.85861  -0.84176  -0.82497
 Alpha  occ. eigenvalues --   -0.75002  -0.73347  -0.69612  -0.68523  -0.63628
 Alpha  occ. eigenvalues --   -0.61617  -0.61195  -0.58018  -0.56781  -0.55173
 Alpha  occ. eigenvalues --   -0.53770  -0.52190  -0.50639  -0.49981  -0.49540
 Alpha  occ. eigenvalues --   -0.48704  -0.47696  -0.45796  -0.44491  -0.43867
 Alpha  occ. eigenvalues --   -0.43355  -0.41154  -0.40335  -0.39212  -0.35285
 Alpha  occ. eigenvalues --   -0.31948  -0.29328  -0.26183
 Alpha virt. eigenvalues --    0.07834   0.09299   0.13116   0.13893   0.16183
 Alpha virt. eigenvalues --    0.16552   0.17351   0.18411   0.19177   0.20718
 Alpha virt. eigenvalues --    0.20992   0.21312   0.23195   0.24373   0.25004
 Alpha virt. eigenvalues --    0.25283   0.25791   0.26001   0.27411   0.27732
 Alpha virt. eigenvalues --    0.29045   0.32254   0.33223   0.34905   0.35154
 Alpha virt. eigenvalues --    0.38919   0.39740   0.40179   0.40958   0.42101
 Alpha virt. eigenvalues --    0.46216   0.48065   0.50499   0.52011   0.52881
 Alpha virt. eigenvalues --    0.53705   0.53904   0.54866   0.55410   0.55923
 Alpha virt. eigenvalues --    0.57482   0.58750   0.62572   0.63514   0.64799
 Alpha virt. eigenvalues --    0.65455   0.66637   0.67051   0.68900   0.69204
 Alpha virt. eigenvalues --    0.70234   0.70832   0.71747   0.72373   0.73063
 Alpha virt. eigenvalues --    0.73614   0.74123   0.75694   0.76045   0.76835
 Alpha virt. eigenvalues --    0.77436   0.77853   0.78227   0.78419   0.79240
 Alpha virt. eigenvalues --    0.79590   0.80366   0.80797   0.81345   0.81602
 Alpha virt. eigenvalues --    0.82646   0.83764   0.84383   0.85199   0.87803
 Alpha virt. eigenvalues --    0.88836   0.90419   0.91382   0.96470   0.99731
 Alpha virt. eigenvalues --    1.01344   1.03775   1.05345   1.07477   1.11634
 Alpha virt. eigenvalues --    1.12306   1.12879   1.15104   1.15579   1.19688
 Alpha virt. eigenvalues --    1.20590   1.23301   1.25545   1.31063   1.31176
 Alpha virt. eigenvalues --    1.33125   1.34581   1.36183   1.39332   1.42048
 Alpha virt. eigenvalues --    1.42127   1.42871   1.44914   1.45316   1.46535
 Alpha virt. eigenvalues --    1.48853   1.52548   1.52947   1.57033   1.59185
 Alpha virt. eigenvalues --    1.61211   1.62412   1.67755   1.72881   1.76818
 Alpha virt. eigenvalues --    1.77795   1.79781   1.80906   1.80973   1.82862
 Alpha virt. eigenvalues --    1.83314   1.85084   1.85951   1.86325   1.87472
 Alpha virt. eigenvalues --    1.88197   1.89420   1.89995   1.90476   1.90626
 Alpha virt. eigenvalues --    1.91700   1.92654   1.93075   1.94072   1.94955
 Alpha virt. eigenvalues --    1.95628   1.95942   1.97501   2.00165   2.00327
 Alpha virt. eigenvalues --    2.02231   2.03812   2.05331   2.06345   2.07023
 Alpha virt. eigenvalues --    2.07499   2.08969   2.11147   2.14067   2.16056
 Alpha virt. eigenvalues --    2.17806   2.21256   2.22145   2.23016   2.23525
 Alpha virt. eigenvalues --    2.25372   2.28785   2.30125   2.31092   2.35381
 Alpha virt. eigenvalues --    2.36574   2.38594   2.39689   2.40620   2.41318
 Alpha virt. eigenvalues --    2.42302   2.45954   2.47722   2.50746   2.51766
 Alpha virt. eigenvalues --    2.53062   2.56312   2.59327   2.61098   2.65626
 Alpha virt. eigenvalues --    2.67159   2.69946   2.70893   2.71894   2.73477
 Alpha virt. eigenvalues --    2.76808   2.77615   2.80211   2.81560   2.85310
 Alpha virt. eigenvalues --    2.87034   2.90024   2.92242   2.93393   2.94546
 Alpha virt. eigenvalues --    2.97138   2.98437   2.99462   3.03518   3.05408
 Alpha virt. eigenvalues --    3.08728   3.09742   3.10793   3.12796   3.14611
 Alpha virt. eigenvalues --    3.14982   3.15831   3.19227   3.25071   3.29870
 Alpha virt. eigenvalues --    3.37239   3.53283   3.61857   3.76587
          Condensed to atoms (all electrons):
               1          2          3          4          5          6
     1  N    6.125651   0.467680  -0.085568   0.005337  -0.000036   0.005760
     2  C    0.467680   4.839697   0.379769   0.016412  -0.045980   0.025181
     3  C   -0.085568   0.379769   5.176875   0.451836  -0.041737  -0.057135
     4  C    0.005337   0.016412   0.451836   4.658963   0.532072  -0.034459
     5  N   -0.000036  -0.045980  -0.041737   0.532072   6.385531   0.534010
     6  C    0.005760   0.025181  -0.057135  -0.034459   0.534010   4.732522
     7  N   -0.000012   0.005849   0.000101   0.003259  -0.099021   0.357729
     8  C    0.000001   0.000024  -0.000090   0.000084  -0.024696  -0.037383
     9  C   -0.000000   0.000015  -0.000001  -0.000004   0.000347   0.003531
    10  C    0.000000  -0.000003  -0.000000  -0.000001  -0.000118  -0.001823
    11  C   -0.000000  -0.000083   0.000003   0.000004  -0.000070   0.009114
    12  C   -0.000032  -0.000006   0.000066  -0.000227   0.003184  -0.055487
    13  C   -0.101340   0.328705  -0.045632  -0.070996  -0.051386   0.411429
    14  H    0.367166  -0.005505  -0.023140   0.000372   0.000010  -0.000442
    15  H    0.368105  -0.002773   0.010943  -0.000444   0.000028   0.000613
    16  H   -0.010077  -0.061080   0.415403  -0.035839   0.005398   0.000734
    17  H   -0.000134   0.006817  -0.069042   0.419895  -0.041644   0.005395
    18  H   -0.000000   0.000024  -0.000007   0.000003   0.001095   0.004669
    19  H    0.000001   0.000065   0.000445   0.000949   0.044497  -0.013917
    20  H    0.000000   0.000006   0.000000   0.000008   0.000443   0.001528
    21  H    0.000000  -0.000001   0.000000   0.000000  -0.000047  -0.000174
    22  H    0.000000   0.000000  -0.000000   0.000000   0.000001   0.000063
    23  H   -0.000000  -0.000002   0.000000   0.000000  -0.000001  -0.000415
    24  H   -0.000000   0.000003  -0.000000  -0.000000  -0.000008  -0.000683
    25  H    0.000000   0.000001  -0.000000  -0.000000   0.000004  -0.000033
    26  H   -0.000002   0.000743  -0.000044   0.000016  -0.000108  -0.009845
    27  H    0.000001   0.001667  -0.000094  -0.000008   0.000045  -0.015565
    28  H   -0.009850  -0.063063   0.013090  -0.000229   0.005587  -0.032092
               7          8          9         10         11         12
     1  N   -0.000012   0.000001  -0.000000   0.000000  -0.000000  -0.000032
     2  C    0.005849   0.000024   0.000015  -0.000003  -0.000083  -0.000006
     3  C    0.000101  -0.000090  -0.000001  -0.000000   0.000003   0.000066
     4  C    0.003259   0.000084  -0.000004  -0.000001   0.000004  -0.000227
     5  N   -0.099021  -0.024696   0.000347  -0.000118  -0.000070   0.003184
     6  C    0.357729  -0.037383   0.003531  -0.001823   0.009114  -0.055487
     7  N    6.798570   0.327304  -0.051554   0.002083  -0.062473   0.347730
     8  C    0.327304   4.510162   0.433397  -0.064968   0.008519  -0.046305
     9  C   -0.051554   0.433397   4.729563   0.369626  -0.042045  -0.039358
    10  C    0.002083  -0.064968   0.369626   4.710849   0.415496  -0.046621
    11  C   -0.062473   0.008519  -0.042045   0.415496   4.668457   0.395194
    12  C    0.347730  -0.046305  -0.039358  -0.046621   0.395194   4.564860
    13  C   -0.115063   0.005206  -0.000458  -0.000003   0.000670   0.006508
    14  H    0.000004  -0.000000   0.000000  -0.000000   0.000000   0.000001
    15  H   -0.000000  -0.000000   0.000000   0.000000  -0.000000  -0.000024
    16  H    0.000033   0.000002  -0.000000   0.000000   0.000000   0.000001
    17  H   -0.000068   0.000133  -0.000001   0.000000  -0.000000   0.000011
    18  H   -0.035955   0.376318  -0.026352  -0.014489   0.005890  -0.006854
    19  H   -0.021970   0.375642  -0.012043   0.006341  -0.000375   0.005824
    20  H   -0.001095  -0.007145   0.359340  -0.018242   0.003283   0.000804
    21  H    0.005071  -0.014007   0.355854  -0.009063  -0.004711   0.000697
    22  H    0.000206   0.004655  -0.013491   0.364102  -0.009442   0.007058
    23  H   -0.000718  -0.003263  -0.011550   0.369834  -0.025967  -0.003317
    24  H   -0.006128   0.010564  -0.015587  -0.017398   0.363717  -0.012818
    25  H    0.004618  -0.000194   0.008612  -0.014404   0.373430  -0.013261
    26  H   -0.029927  -0.002087  -0.000299   0.008943  -0.030015   0.385555
    27  H   -0.032336   0.006611  -0.000154  -0.011155  -0.013921   0.380595
    28  H   -0.011878  -0.000122  -0.000044   0.000022   0.001136   0.008597
              13         14         15         16         17         18
     1  N   -0.101340   0.367166   0.368105  -0.010077  -0.000134  -0.000000
     2  C    0.328705  -0.005505  -0.002773  -0.061080   0.006817   0.000024
     3  C   -0.045632  -0.023140   0.010943   0.415403  -0.069042  -0.000007
     4  C   -0.070996   0.000372  -0.000444  -0.035839   0.419895   0.000003
     5  N   -0.051386   0.000010   0.000028   0.005398  -0.041644   0.001095
     6  C    0.411429  -0.000442   0.000613   0.000734   0.005395   0.004669
     7  N   -0.115063   0.000004  -0.000000   0.000033  -0.000068  -0.035955
     8  C    0.005206  -0.000000  -0.000000   0.000002   0.000133   0.376318
     9  C   -0.000458   0.000000   0.000000  -0.000000  -0.000001  -0.026352
    10  C   -0.000003  -0.000000   0.000000   0.000000   0.000000  -0.014489
    11  C    0.000670   0.000000  -0.000000   0.000000  -0.000000   0.005890
    12  C    0.006508   0.000001  -0.000024   0.000001   0.000011  -0.006854
    13  C    5.350901   0.012045  -0.027061   0.013084   0.001172   0.000019
    14  H    0.012045   0.546187  -0.031642   0.005102  -0.000010  -0.000000
    15  H   -0.027061  -0.031642   0.548131  -0.000222   0.000013  -0.000000
    16  H    0.013084   0.005102  -0.000222   0.683435  -0.007089  -0.000000
    17  H    0.001172  -0.000010   0.000013  -0.007089   0.665580  -0.000006
    18  H    0.000019  -0.000000  -0.000000  -0.000000  -0.000006   0.709458
    19  H    0.003056  -0.000000  -0.000000  -0.000013  -0.000698  -0.023661
    20  H   -0.000114  -0.000000  -0.000000  -0.000000  -0.000005   0.007992
    21  H    0.000023  -0.000000   0.000000   0.000000   0.000000  -0.008324
    22  H   -0.000003  -0.000000   0.000000  -0.000000  -0.000000   0.000646
    23  H    0.000055  -0.000000  -0.000000   0.000000  -0.000000  -0.000406
    24  H    0.000064  -0.000000  -0.000000   0.000000  -0.000000  -0.006288
    25  H   -0.000031  -0.000000   0.000000  -0.000000   0.000000   0.000137
    26  H    0.006660  -0.000001  -0.000001   0.000000  -0.000000   0.004260
    27  H    0.008221   0.000002  -0.000019  -0.000000  -0.000001  -0.001055
    28  H    0.411658  -0.000362   0.006281  -0.000169   0.000064  -0.000022
              19         20         21         22         23         24
     1  N    0.000001   0.000000   0.000000   0.000000  -0.000000  -0.000000
     2  C    0.000065   0.000006  -0.000001   0.000000  -0.000002   0.000003
     3  C    0.000445   0.000000   0.000000  -0.000000   0.000000  -0.000000
     4  C    0.000949   0.000008   0.000000   0.000000   0.000000  -0.000000
     5  N    0.044497   0.000443  -0.000047   0.000001  -0.000001  -0.000008
     6  C   -0.013917   0.001528  -0.000174   0.000063  -0.000415  -0.000683
     7  N   -0.021970  -0.001095   0.005071   0.000206  -0.000718  -0.006128
     8  C    0.375642  -0.007145  -0.014007   0.004655  -0.003263   0.010564
     9  C   -0.012043   0.359340   0.355854  -0.013491  -0.011550  -0.015587
    10  C    0.006341  -0.018242  -0.009063   0.364102   0.369834  -0.017398
    11  C   -0.000375   0.003283  -0.004711  -0.009442  -0.025967   0.363717
    12  C    0.005824   0.000804   0.000697   0.007058  -0.003317  -0.012818
    13  C    0.003056  -0.000114   0.000023  -0.000003   0.000055   0.000064
    14  H   -0.000000  -0.000000  -0.000000  -0.000000  -0.000000  -0.000000
    15  H   -0.000000  -0.000000   0.000000   0.000000  -0.000000  -0.000000
    16  H   -0.000013  -0.000000   0.000000  -0.000000   0.000000   0.000000
    17  H   -0.000698  -0.000005   0.000000  -0.000000  -0.000000  -0.000000
    18  H   -0.023661   0.007992  -0.008324   0.000646  -0.000406  -0.006288
    19  H    0.585781  -0.011097   0.000804  -0.000247  -0.000013   0.000166
    20  H   -0.011097   0.668132  -0.024382   0.003990  -0.017498  -0.000199
    21  H    0.000804  -0.024382   0.680979  -0.017813   0.006478   0.002676
    22  H   -0.000247   0.003990  -0.017813   0.669556  -0.028184  -0.008327
    23  H   -0.000013  -0.017498   0.006478  -0.028184   0.680495   0.008501
    24  H    0.000166  -0.000199   0.002676  -0.008327   0.008501   0.681560
    25  H    0.000003  -0.000263  -0.000262  -0.004496  -0.007433  -0.026013
    26  H   -0.000271   0.000059   0.000142  -0.000303   0.000033  -0.011658
    27  H   -0.000178  -0.000155  -0.000098  -0.000026   0.005249   0.007869
    28  H   -0.000146  -0.000003   0.000001  -0.000000  -0.000016  -0.000020
              25         26         27         28
     1  N    0.000000  -0.000002   0.000001  -0.009850
     2  C    0.000001   0.000743   0.001667  -0.063063
     3  C   -0.000000  -0.000044  -0.000094   0.013090
     4  C   -0.000000   0.000016  -0.000008  -0.000229
     5  N    0.000004  -0.000108   0.000045   0.005587
     6  C   -0.000033  -0.009845  -0.015565  -0.032092
     7  N    0.004618  -0.029927  -0.032336  -0.011878
     8  C   -0.000194  -0.002087   0.006611  -0.000122
     9  C    0.008612  -0.000299  -0.000154  -0.000044
    10  C   -0.014404   0.008943  -0.011155   0.000022
    11  C    0.373430  -0.030015  -0.013921   0.001136
    12  C   -0.013261   0.385555   0.380595   0.008597
    13  C   -0.000031   0.006660   0.008221   0.411658
    14  H   -0.000000  -0.000001   0.000002  -0.000362
    15  H    0.000000  -0.000001  -0.000019   0.006281
    16  H   -0.000000   0.000000  -0.000000  -0.000169
    17  H    0.000000  -0.000000  -0.000001   0.000064
    18  H    0.000137   0.004260  -0.001055  -0.000022
    19  H    0.000003  -0.000271  -0.000178  -0.000146
    20  H   -0.000263   0.000059  -0.000155  -0.000003
    21  H   -0.000262   0.000142  -0.000098   0.000001
    22  H   -0.004496  -0.000303  -0.000026  -0.000000
    23  H   -0.007433   0.000033   0.005249  -0.000016
    24  H   -0.026013  -0.011658   0.007869  -0.000020
    25  H    0.654402  -0.000091  -0.010266  -0.000015
    26  H   -0.000091   0.701668  -0.050748  -0.000238
    27  H   -0.010266  -0.050748   0.700625  -0.003040
    28  H   -0.000015  -0.000238  -0.003040   0.695314
 Mulliken charges:
               1
     1  N   -0.132652
     2  C    0.105835
     3  C   -0.126042
     4  C    0.052996
     5  N   -0.207400
     6  C    0.167173
     7  N   -0.384359
     8  C    0.141636
     9  C   -0.047344
    10  C   -0.049007
    11  C   -0.055810
    12  C    0.117624
    13  C   -0.147387
    14  H    0.130213
    15  H    0.128072
    16  H   -0.008703
    17  H    0.019617
    18  H    0.012912
    19  H    0.061053
    20  H    0.034612
    21  H    0.026157
    22  H    0.032055
    23  H    0.028136
    24  H    0.030008
    25  H    0.035553
    26  H    0.027559
    27  H    0.027934
    28  H   -0.020441
 Sum of Mulliken charges =  -0.00000
 Mulliken charges with hydrogens summed into heavy atoms:
               1
     1  N    0.125633
     2  C    0.105835
     3  C   -0.134745
     4  C    0.072613
     5  N   -0.207400
     6  C    0.167173
     7  N   -0.384359
     8  C    0.215600
     9  C    0.013425
    10  C    0.011185
    11  C    0.009750
    12  C    0.173117
    13  C   -0.167828
 Electronic spatial extent (au):  <R**2>=           2879.4823
 Charge=              0.0000 electrons
 Dipole moment (field-independent basis, Debye):
    X=              0.5685    Y=             -2.8344    Z=             -0.5488  Tot=              2.9425
 Quadrupole moment (field-independent basis, Debye-Ang):
   XX=            -62.4351   YY=            -73.9182   ZZ=            -82.0006
   XY=             -4.3169   XZ=             -1.0059   YZ=              1.4993
 Traceless Quadrupole moment (field-independent basis, Debye-Ang):
   XX=             10.3495   YY=             -1.1335   ZZ=             -9.2160
   XY=             -4.3169   XZ=             -1.0059   YZ=              1.4993
 Octapole moment (field-independent basis, Debye-Ang**2):
  XXX=             66.0492  YYY=            -19.5490  ZZZ=             -1.3415  XYY=             17.4472
  XXY=            -18.6575  XXZ=             -7.9026  XZZ=             -9.1564  YZZ=             -0.2346
  YYZ=             -1.7606  XYZ=              5.7903
 Hexadecapole moment (field-independent basis, Debye-Ang**3):
 XXXX=          -2549.7981 YYYY=           -710.1700 ZZZZ=           -185.8662 XXXY=           -103.7379
 XXXZ=             -8.2188 YYYX=            -43.0316 YYYZ=              4.8020 ZZZX=             -1.3912
 ZZZY=              1.4430 XXYY=           -544.3379 XXZZ=           -555.3397 YYZZ=           -165.9635
 XXYZ=             15.1411 YYXZ=             -7.0375 ZZXY=             -2.0262
 N-N= 7.969581292721D+02 E-N=-2.877577275785D+03  KE= 5.475702965951D+02
   1 Symmetry operations used in ECPInt.
 ECPInt:  NShTT=    7626 NPrTT=   27010 LenC2=    7274 LenP2D=   19330.
 LDataN:  DoStor=T MaxTD1= 5 Len=  102
 Calling FoFJK, ICntrl=      2127 FMM=F ISym2X=0 I1Cent= 0 IOpClX= 0 NMat=1 NMatS=1 NMatT=0.
 ***** Axes restored to original set *****
 -------------------------------------------------------------------
 Center     Atomic                   Forces (Hartrees/Bohr)
 Number     Number              X              Y              Z
 -------------------------------------------------------------------
      1        7           0.000004574   -0.000007949    0.000044483
      2        6           0.000000395    0.000027736   -0.000016914
      3        6          -0.000003257   -0.000013356    0.000000471
      4        6           0.000000427    0.000003221   -0.000002607
      5        7          -0.000009731   -0.000009201    0.000003937
      6        6           0.000024107    0.000021673   -0.000007072
      7        7          -0.000011969   -0.000033321    0.000016104
      8        6           0.000004840    0.000007593    0.000005905
      9        6          -0.000004410    0.000011288   -0.000005977
     10        6          -0.000009648   -0.000006058    0.000012596
     11        6          -0.000011974   -0.000021433    0.000000078
     12        6           0.000015242    0.000032150   -0.000014422
     13        6          -0.000012537   -0.000001763    0.000001109
     14        1           0.000004131   -0.000001424   -0.000012718
     15        1           0.000005029   -0.000006973   -0.000019181
     16        1           0.000000775    0.000003919    0.000000598
     17        1          -0.000000913    0.000002100    0.000000907
     18        1          -0.000004832   -0.000001900   -0.000005516
     19        1          -0.000000639    0.000002358    0.000000693
     20        1           0.000004614   -0.000006504    0.000002668
     21        1           0.000000027    0.000001492   -0.000003002
     22        1          -0.000001237   -0.000002303   -0.000001701
     23        1           0.000006362   -0.000000350   -0.000005948
     24        1           0.000000658    0.000002310    0.000000080
     25        1           0.000002064    0.000006117   -0.000002018
     26        1          -0.000000703   -0.000005614    0.000002339
     27        1           0.000000921   -0.000003344    0.000006132
     28        1          -0.000002317   -0.000000464   -0.000001025
 -------------------------------------------------------------------
 Cartesian Forces:  Max     0.000044483 RMS     0.000010900

 GradGradGradGradGradGradGradGradGradGradGradGradGradGradGradGradGradGrad
 Berny optimization.
 FormGI is forming the generalized inverse of G from B-inverse, IUseBI=4.
 Internal  Forces:  Max     0.000024151 RMS     0.000004411
 Search for a local minimum.
 Step number   1 out of a maximum of  167
 All quantities printed in internal units (Hartrees-Bohrs-Radians)
 Mixed Optimization -- En-DIIS/RFO-DIIS
 Second derivative matrix not updated -- first step.
 ITU=  0
     Eigenvalues ---    0.00365   0.00678   0.01088   0.01242   0.01999
     Eigenvalues ---    0.02031   0.02041   0.02041   0.02042   0.02087
     Eigenvalues ---    0.02134   0.02157   0.02384   0.02407   0.02473
     Eigenvalues ---    0.02787   0.03372   0.03805   0.04207   0.04502
     Eigenvalues ---    0.04804   0.05015   0.05475   0.05780   0.06189
     Eigenvalues ---    0.06804   0.07999   0.08090   0.08141   0.09071
     Eigenvalues ---    0.09266   0.09397   0.10214   0.12064   0.12498
     Eigenvalues ---    0.16000   0.16000   0.16000   0.16000   0.16000
     Eigenvalues ---    0.18544   0.20293   0.22317   0.22457   0.23487
     Eigenvalues ---    0.24551   0.24892   0.24990   0.25000   0.26847
     Eigenvalues ---    0.27487   0.28631   0.29337   0.32772   0.33039
     Eigenvalues ---    0.33045   0.33397   0.33438   0.33509   0.33643
     Eigenvalues ---    0.33644   0.33647   0.34066   0.34269   0.34652
     Eigenvalues ---    0.34872   0.35811   0.37232   0.41184   0.42895
     Eigenvalues ---    0.44832   0.45941   0.45964   0.47114   0.50285
     Eigenvalues ---    0.50297   0.55140   0.58458
 RFO step:  Lambda=-3.01776335D-08 EMin= 3.65149488D-03
 Linear search not attempted -- first point.
 Iteration  1 RMS(Cart)=  0.00008553 RMS(Int)=  0.00000001
 Iteration  2 RMS(Cart)=  0.00000001 RMS(Int)=  0.00000001
 Variable       Old X    -DE/DX   Delta X   Delta X   Delta X     New X
                                 (Linear)    (Quad)   (Total)
    R1        2.59579   0.00002   0.00000   0.00005   0.00005   2.59584
    R2        1.90872   0.00000   0.00000   0.00001   0.00001   1.90873
    R3        1.90898   0.00001   0.00000   0.00002   0.00002   1.90901
    R4        2.66197  -0.00001   0.00000  -0.00001  -0.00001   2.66195
    R5        2.64341   0.00001   0.00000   0.00002   0.00002   2.64343
    R6        2.61894   0.00001   0.00000   0.00001   0.00001   2.61895
    R7        2.06244   0.00000   0.00000   0.00001   0.00001   2.06244
    R8        2.50944   0.00000   0.00000   0.00000   0.00000   2.50944
    R9        2.07218   0.00000   0.00000   0.00000   0.00000   2.07219
   R10        2.53584  -0.00001   0.00000  -0.00002  -0.00002   2.53582
   R11        2.59567   0.00001   0.00000   0.00002   0.00002   2.59569
   R12        2.66769  -0.00000   0.00000  -0.00001  -0.00001   2.66768
   R13        2.74387   0.00001   0.00000   0.00002   0.00002   2.74388
   R14        2.74037  -0.00002   0.00000  -0.00004  -0.00004   2.74033
   R15        2.89396  -0.00000   0.00000  -0.00000  -0.00000   2.89395
   R16        2.08972   0.00001   0.00000   0.00002   0.00002   2.08974
   R17        2.06878   0.00000   0.00000   0.00001   0.00001   2.06879
   R18        2.91912   0.00001   0.00000   0.00004   0.00004   2.91916
   R19        2.07938   0.00000   0.00000   0.00000   0.00000   2.07938
   R20        2.08167   0.00000   0.00000   0.00001   0.00001   2.08168
   R21        2.88637   0.00000   0.00000   0.00001   0.00001   2.88638
   R22        2.07931   0.00000   0.00000   0.00000   0.00000   2.07931
   R23        2.08359  -0.00000   0.00000  -0.00001  -0.00001   2.08358
   R24        2.88791   0.00001   0.00000   0.00004   0.00004   2.88795
   R25        2.08290   0.00000   0.00000   0.00000   0.00000   2.08290
   R26        2.07935  -0.00001   0.00000  -0.00002  -0.00002   2.07932
   R27        2.09453   0.00000   0.00000   0.00000   0.00000   2.09453
   R28        2.08984   0.00001   0.00000   0.00002   0.00002   2.08986
   R29        2.05884   0.00000   0.00000   0.00000   0.00000   2.05884
    A1        2.05366  -0.00000   0.00000  -0.00011  -0.00011   2.05355
    A2        2.05785  -0.00000   0.00000  -0.00010  -0.00010   2.05775
    A3        2.00556  -0.00001   0.00000  -0.00014  -0.00014   2.00541
    A4        2.11013   0.00000   0.00000   0.00001   0.00001   2.11014
    A5        2.11172   0.00000   0.00000  -0.00000  -0.00000   2.11172
    A6        2.06103  -0.00000   0.00000  -0.00001  -0.00001   2.06102
    A7        2.05380   0.00000   0.00000   0.00001   0.00001   2.05381
    A8        2.11750   0.00000   0.00000   0.00001   0.00001   2.11751
    A9        2.11189  -0.00000   0.00000  -0.00002  -0.00002   2.11187
   A10        2.18172  -0.00000   0.00000   0.00000   0.00000   2.18172
   A11        2.08065   0.00000   0.00000   0.00000   0.00000   2.08065
   A12        2.02082  -0.00000   0.00000  -0.00000  -0.00000   2.02082
   A13        2.06015  -0.00000   0.00000  -0.00002  -0.00002   2.06013
   A14        2.04573   0.00000   0.00000   0.00001   0.00001   2.04574
   A15        2.12642   0.00001   0.00000   0.00002   0.00002   2.12645
   A16        2.11103  -0.00001   0.00000  -0.00004  -0.00004   2.11100
   A17        2.12293  -0.00001   0.00000  -0.00002  -0.00002   2.12291
   A18        2.10851   0.00000   0.00000   0.00002   0.00002   2.10853
   A19        2.04909   0.00000   0.00000  -0.00001  -0.00001   2.04909
   A20        1.94091  -0.00000   0.00000  -0.00000  -0.00000   1.94091
   A21        1.91208   0.00000   0.00000  -0.00001  -0.00001   1.91207
   A22        1.87343   0.00000   0.00000   0.00002   0.00002   1.87345
   A23        1.92253  -0.00000   0.00000  -0.00003  -0.00003   1.92251
   A24        1.94310   0.00000   0.00000   0.00001   0.00001   1.94311
   A25        1.86976   0.00000   0.00000   0.00001   0.00001   1.86977
   A26        1.94823   0.00000   0.00000  -0.00000  -0.00000   1.94823
   A27        1.90724  -0.00000   0.00000  -0.00004  -0.00004   1.90720
   A28        1.89281  -0.00000   0.00000   0.00000   0.00000   1.89281
   A29        1.91814  -0.00000   0.00000  -0.00005  -0.00005   1.91809
   A30        1.93441   0.00000   0.00000   0.00005   0.00005   1.93446
   A31        1.86066   0.00000   0.00000   0.00005   0.00005   1.86071
   A32        1.93925  -0.00000   0.00000  -0.00000  -0.00000   1.93925
   A33        1.93642   0.00000   0.00000   0.00004   0.00004   1.93646
   A34        1.91739  -0.00000   0.00000  -0.00004  -0.00004   1.91736
   A35        1.92614  -0.00000   0.00000   0.00001   0.00001   1.92615
   A36        1.88849  -0.00000   0.00000  -0.00006  -0.00006   1.88844
   A37        1.85361   0.00000   0.00000   0.00005   0.00005   1.85365
   A38        1.92581  -0.00000   0.00000  -0.00003  -0.00003   1.92578
   A39        1.92196   0.00000   0.00000  -0.00001  -0.00001   1.92195
   A40        1.93788   0.00000   0.00000   0.00001   0.00001   1.93789
   A41        1.92638   0.00000   0.00000  -0.00000  -0.00000   1.92637
   A42        1.89595   0.00000   0.00000   0.00002   0.00002   1.89597
   A43        1.85460  -0.00000   0.00000   0.00002   0.00002   1.85461
   A44        1.93750   0.00001   0.00000   0.00003   0.00003   1.93753
   A45        1.94220   0.00000   0.00000   0.00005   0.00005   1.94225
   A46        1.90539  -0.00000   0.00000  -0.00002  -0.00002   1.90537
   A47        1.92502  -0.00000   0.00000  -0.00001  -0.00001   1.92501
   A48        1.89150  -0.00000   0.00000  -0.00003  -0.00003   1.89146
   A49        1.85982  -0.00000   0.00000  -0.00002  -0.00002   1.85980
   A50        2.08311  -0.00000   0.00000  -0.00001  -0.00001   2.08310
   A51        2.08035   0.00000   0.00000   0.00002   0.00002   2.08037
   A52        2.11972  -0.00000   0.00000  -0.00001  -0.00001   2.11971
    D1       -0.32991  -0.00001   0.00000  -0.00026  -0.00026  -0.33017
    D2        2.83867  -0.00001   0.00000  -0.00017  -0.00017   2.83850
    D3       -2.85480   0.00001   0.00000   0.00038   0.00038  -2.85442
    D4        0.31378   0.00001   0.00000   0.00047   0.00047   0.31425
    D5       -3.11899   0.00000   0.00000   0.00007   0.00007  -3.11892
    D6        0.02475   0.00000   0.00000   0.00006   0.00006   0.02480
    D7       -0.00362  -0.00000   0.00000  -0.00002  -0.00002  -0.00364
    D8        3.14012  -0.00000   0.00000  -0.00003  -0.00003   3.14008
    D9        3.10612  -0.00000   0.00000  -0.00008  -0.00008   3.10603
   D10       -0.03924  -0.00000   0.00000  -0.00006  -0.00006  -0.03930
   D11       -0.00923   0.00000   0.00000   0.00000   0.00000  -0.00922
   D12        3.12860   0.00000   0.00000   0.00003   0.00003   3.12863
   D13        0.00819   0.00000   0.00000   0.00005   0.00005   0.00824
   D14       -3.13279  -0.00000   0.00000  -0.00001  -0.00001  -3.13281
   D15       -3.13554   0.00000   0.00000   0.00006   0.00006  -3.13548
   D16        0.00667  -0.00000   0.00000  -0.00000  -0.00000   0.00666
   D17        0.00120  -0.00000   0.00000  -0.00005  -0.00005   0.00115
   D18       -3.14099   0.00000   0.00000   0.00001   0.00001  -3.14098
   D19        3.12662  -0.00000   0.00000  -0.00003  -0.00003   3.12659
   D20       -0.01510   0.00000   0.00000   0.00003   0.00003  -0.01507
   D21        0.10266   0.00000   0.00000   0.00016   0.00016   0.10283
   D22       -3.11919   0.00000   0.00000   0.00001   0.00001  -3.11918
   D23       -3.03880   0.00000   0.00000   0.00011   0.00011  -3.03870
   D24        0.02253  -0.00000   0.00000  -0.00005  -0.00005   0.02248
   D25        0.01930  -0.00000   0.00000  -0.00001  -0.00001   0.01930
   D26       -3.11843  -0.00000   0.00000  -0.00004  -0.00004  -3.11847
   D27       -3.12242   0.00000   0.00000   0.00005   0.00005  -3.12237
   D28        0.02303   0.00000   0.00000   0.00002   0.00002   0.02305
   D29       -2.20533  -0.00000   0.00000  -0.00014  -0.00014  -2.20548
   D30        1.94848   0.00000   0.00000  -0.00010  -0.00010   1.94838
   D31       -0.07606  -0.00000   0.00000  -0.00012  -0.00012  -0.07618
   D32        1.01390  -0.00000   0.00000   0.00001   0.00001   1.01391
   D33       -1.11547   0.00000   0.00000   0.00005   0.00005  -1.11542
   D34       -3.14001   0.00000   0.00000   0.00003   0.00003  -3.13998
   D35        2.99717   0.00000   0.00000   0.00016   0.00016   2.99733
   D36       -1.13484   0.00000   0.00000   0.00020   0.00020  -1.13464
   D37        0.91310   0.00000   0.00000   0.00019   0.00019   0.91329
   D38       -0.22139  -0.00000   0.00000   0.00000   0.00000  -0.22138
   D39        1.92979   0.00000   0.00000   0.00005   0.00005   1.92984
   D40       -2.30546   0.00000   0.00000   0.00004   0.00004  -2.30542
   D41       -0.70805   0.00000   0.00000  -0.00000  -0.00000  -0.70806
   D42        1.41732  -0.00000   0.00000  -0.00010  -0.00010   1.41722
   D43       -2.84404  -0.00000   0.00000  -0.00007  -0.00007  -2.84411
   D44        1.41524   0.00000   0.00000  -0.00003  -0.00003   1.41521
   D45       -2.74258  -0.00000   0.00000  -0.00013  -0.00013  -2.74270
   D46       -0.72075  -0.00000   0.00000  -0.00009  -0.00009  -0.72084
   D47       -2.79635   0.00000   0.00000  -0.00003  -0.00003  -2.79638
   D48       -0.67098  -0.00000   0.00000  -0.00013  -0.00013  -0.67111
   D49        1.35085  -0.00000   0.00000  -0.00010  -0.00010   1.35075
   D50       -0.26968  -0.00000   0.00000  -0.00001  -0.00001  -0.26969
   D51       -2.41943  -0.00000   0.00000  -0.00005  -0.00005  -2.41948
   D52        1.81950  -0.00000   0.00000  -0.00011  -0.00011   1.81939
   D53       -2.38874   0.00000   0.00000   0.00008   0.00008  -2.38866
   D54        1.74470   0.00000   0.00000   0.00004   0.00004   1.74474
   D55       -0.29956  -0.00000   0.00000  -0.00002  -0.00002  -0.29958
   D56        1.84226  -0.00000   0.00000   0.00002   0.00002   1.84229
   D57       -0.30748  -0.00000   0.00000  -0.00001  -0.00001  -0.30750
   D58       -2.35175  -0.00000   0.00000  -0.00007  -0.00007  -2.35182
   D59        1.04627  -0.00000   0.00000  -0.00000  -0.00000   1.04626
   D60       -1.08458  -0.00000   0.00000   0.00003   0.00003  -1.08455
   D61       -3.13377  -0.00000   0.00000   0.00001   0.00001  -3.13376
   D62       -3.08127  -0.00000   0.00000   0.00005   0.00005  -3.08123
   D63        1.07106   0.00000   0.00000   0.00008   0.00008   1.07114
   D64       -0.97813  -0.00000   0.00000   0.00006   0.00006  -0.97807
   D65       -1.06004   0.00000   0.00000   0.00008   0.00008  -1.05996
   D66        3.09230   0.00000   0.00000   0.00011   0.00011   3.09241
   D67        1.04311   0.00000   0.00000   0.00009   0.00009   1.04320
   D68       -0.80106   0.00000   0.00000  -0.00000  -0.00000  -0.80106
   D69       -2.96208  -0.00000   0.00000  -0.00009  -0.00009  -2.96216
   D70        1.29131   0.00000   0.00000  -0.00003  -0.00003   1.29128
   D71        1.32718  -0.00000   0.00000  -0.00004  -0.00004   1.32714
   D72       -0.83384  -0.00000   0.00000  -0.00012  -0.00012  -0.83396
   D73       -2.86363  -0.00000   0.00000  -0.00007  -0.00007  -2.86370
   D74       -2.92916   0.00000   0.00000  -0.00001  -0.00001  -2.92918
   D75        1.19300  -0.00000   0.00000  -0.00010  -0.00010   1.19291
   D76       -0.83679   0.00000   0.00000  -0.00004  -0.00004  -0.83684
         Item               Value     Threshold  Converged?
 Maximum Force            0.000024     0.000450     YES
 RMS     Force            0.000004     0.000300     YES
 Maximum Displacement     0.000584     0.001800     YES
 RMS     Displacement     0.000086     0.001200     YES
 Predicted change in Energy=-1.508563D-08
 Optimization completed.
    -- Stationary point found.
                           ----------------------------
                           !   Optimized Parameters   !
                           ! (Angstroms and Degrees)  !
 --------------------------                            --------------------------
 ! Name  Definition              Value          Derivative Info.                !
 --------------------------------------------------------------------------------
 ! R1    R(1,2)                  1.3736         -DE/DX =    0.0                 !
 ! R2    R(1,14)                 1.01           -DE/DX =    0.0                 !
 ! R3    R(1,15)                 1.0102         -DE/DX =    0.0                 !
 ! R4    R(2,3)                  1.4087         -DE/DX =    0.0                 !
 ! R5    R(2,13)                 1.3988         -DE/DX =    0.0                 !
 ! R6    R(3,4)                  1.3859         -DE/DX =    0.0                 !
 ! R7    R(3,16)                 1.0914         -DE/DX =    0.0                 !
 ! R8    R(4,5)                  1.3279         -DE/DX =    0.0                 !
 ! R9    R(4,17)                 1.0966         -DE/DX =    0.0                 !
 ! R10   R(5,6)                  1.3419         -DE/DX =    0.0                 !
 ! R11   R(6,7)                  1.3736         -DE/DX =    0.0                 !
 ! R12   R(6,13)                 1.4117         -DE/DX =    0.0                 !
 ! R13   R(7,8)                  1.452          -DE/DX =    0.0                 !
 ! R14   R(7,12)                 1.4501         -DE/DX =    0.0                 !
 ! R15   R(8,9)                  1.5314         -DE/DX =    0.0                 !
 ! R16   R(8,18)                 1.1058         -DE/DX =    0.0                 !
 ! R17   R(8,19)                 1.0948         -DE/DX =    0.0                 !
 ! R18   R(9,10)                 1.5447         -DE/DX =    0.0                 !
 ! R19   R(9,20)                 1.1004         -DE/DX =    0.0                 !
 ! R20   R(9,21)                 1.1016         -DE/DX =    0.0                 !
 ! R21   R(10,11)                1.5274         -DE/DX =    0.0                 !
 ! R22   R(10,22)                1.1003         -DE/DX =    0.0                 !
 ! R23   R(10,23)                1.1026         -DE/DX =    0.0                 !
 ! R24   R(11,12)                1.5282         -DE/DX =    0.0                 !
 ! R25   R(11,24)                1.1022         -DE/DX =    0.0                 !
 ! R26   R(11,25)                1.1003         -DE/DX =    0.0                 !
 ! R27   R(12,26)                1.1084         -DE/DX =    0.0                 !
 ! R28   R(12,27)                1.1059         -DE/DX =    0.0                 !
 ! R29   R(13,28)                1.0895         -DE/DX =    0.0                 !
 ! A1    A(2,1,14)             117.6663         -DE/DX =    0.0                 !
 ! A2    A(2,1,15)             117.9059         -DE/DX =    0.0                 !
 ! A3    A(14,1,15)            114.9098         -DE/DX =    0.0                 !
 ! A4    A(1,2,3)              120.9016         -DE/DX =    0.0                 !
 ! A5    A(1,2,13)             120.9928         -DE/DX =    0.0                 !
 ! A6    A(3,2,13)             118.0882         -DE/DX =    0.0                 !
 ! A7    A(2,3,4)              117.6739         -DE/DX =    0.0                 !
 ! A8    A(2,3,16)             121.3236         -DE/DX =    0.0                 !
 ! A9    A(4,3,16)             121.0024         -DE/DX =    0.0                 !
 ! A10   A(3,4,5)              125.0031         -DE/DX =    0.0                 !
 ! A11   A(3,4,17)             119.2124         -DE/DX =    0.0                 !
 ! A12   A(5,4,17)             115.7845         -DE/DX =    0.0                 !
 ! A13   A(4,5,6)              118.0378         -DE/DX =    0.0                 !
 ! A14   A(5,6,7)              117.2117         -DE/DX =    0.0                 !
 ! A15   A(5,6,13)             121.835          -DE/DX =    0.0                 !
 ! A16   A(7,6,13)             120.9533         -DE/DX =    0.0                 !
 ! A17   A(6,7,8)              121.635          -DE/DX =    0.0                 !
 ! A18   A(6,7,12)             120.8086         -DE/DX =    0.0                 !
 ! A19   A(8,7,12)             117.4044         -DE/DX =    0.0                 !
 ! A20   A(7,8,9)              111.206          -DE/DX =    0.0                 !
 ! A21   A(7,8,18)             109.5541         -DE/DX =    0.0                 !
 ! A22   A(7,8,19)             107.3396         -DE/DX =    0.0                 !
 ! A23   A(9,8,18)             110.1531         -DE/DX =    0.0                 !
 ! A24   A(9,8,19)             111.3313         -DE/DX =    0.0                 !
 ! A25   A(18,8,19)            107.1292         -DE/DX =    0.0                 !
 ! A26   A(8,9,10)             111.6255         -DE/DX =    0.0                 !
 ! A27   A(8,9,20)             109.2768         -DE/DX =    0.0                 !
 ! A28   A(8,9,21)             108.4501         -DE/DX =    0.0                 !
 ! A29   A(10,9,20)            109.9015         -DE/DX =    0.0                 !
 ! A30   A(10,9,21)            110.8336         -DE/DX =    0.0                 !
 ! A31   A(20,9,21)            106.6082         -DE/DX =    0.0                 !
 ! A32   A(9,10,11)            111.111          -DE/DX =    0.0                 !
 ! A33   A(9,10,22)            110.9489         -DE/DX =    0.0                 !
 ! A34   A(9,10,23)            109.8585         -DE/DX =    0.0                 !
 ! A35   A(11,10,22)           110.3596         -DE/DX =    0.0                 !
 ! A36   A(11,10,23)           108.2028         -DE/DX =    0.0                 !
 ! A37   A(22,10,23)           106.2038         -DE/DX =    0.0                 !
 ! A38   A(10,11,12)           110.3407         -DE/DX =    0.0                 !
 ! A39   A(10,11,24)           110.1202         -DE/DX =    0.0                 !
 ! A40   A(10,11,25)           111.0325         -DE/DX =    0.0                 !
 ! A41   A(12,11,24)           110.3732         -DE/DX =    0.0                 !
 ! A42   A(12,11,25)           108.6297         -DE/DX =    0.0                 !
 ! A43   A(24,11,25)           106.2606         -DE/DX =    0.0                 !
 ! A44   A(7,12,11)            111.0106         -DE/DX =    0.0                 !
 ! A45   A(7,12,26)            111.2799         -DE/DX =    0.0                 !
 ! A46   A(7,12,27)            109.1706         -DE/DX =    0.0                 !
 ! A47   A(11,12,26)           110.2955         -DE/DX =    0.0                 !
 ! A48   A(11,12,27)           108.3748         -DE/DX =    0.0                 !
 ! A49   A(26,12,27)           106.5599         -DE/DX =    0.0                 !
 ! A50   A(2,13,6)             119.3533         -DE/DX =    0.0                 !
 ! A51   A(2,13,28)            119.1954         -DE/DX =    0.0                 !
 ! A52   A(6,13,28)            121.451          -DE/DX =    0.0                 !
 ! D1    D(14,1,2,3)           -18.9024         -DE/DX =    0.0                 !
 ! D2    D(14,1,2,13)          162.6438         -DE/DX =    0.0                 !
 ! D3    D(15,1,2,3)          -163.568          -DE/DX =    0.0                 !
 ! D4    D(15,1,2,13)           17.9782         -DE/DX =    0.0                 !
 ! D5    D(1,2,3,4)           -178.7048         -DE/DX =    0.0                 !
 ! D6    D(1,2,3,16)             1.4178         -DE/DX =    0.0                 !
 ! D7    D(13,2,3,4)            -0.2072         -DE/DX =    0.0                 !
 ! D8    D(13,2,3,16)          179.9154         -DE/DX =    0.0                 !
 ! D9    D(1,2,13,6)           177.9675         -DE/DX =    0.0                 !
 ! D10   D(1,2,13,28)           -2.2485         -DE/DX =    0.0                 !
 ! D11   D(3,2,13,6)            -0.5287         -DE/DX =    0.0                 !
 ! D12   D(3,2,13,28)          179.2554         -DE/DX =    0.0                 !
 ! D13   D(2,3,4,5)              0.4691         -DE/DX =    0.0                 !
 ! D14   D(2,3,4,17)          -179.4958         -DE/DX =    0.0                 !
 ! D15   D(16,3,4,5)          -179.6531         -DE/DX =    0.0                 !
 ! D16   D(16,3,4,17)            0.382          -DE/DX =    0.0                 !
 ! D17   D(3,4,5,6)              0.0688         -DE/DX =    0.0                 !
 ! D18   D(17,4,5,6)          -179.9652         -DE/DX =    0.0                 !
 ! D19   D(4,5,6,7)            179.1422         -DE/DX =    0.0                 !
 ! D20   D(4,5,6,13)            -0.865          -DE/DX =    0.0                 !
 ! D21   D(5,6,7,8)              5.8822         -DE/DX =    0.0                 !
 ! D22   D(5,6,7,12)          -178.7164         -DE/DX =    0.0                 !
 ! D23   D(13,6,7,8)          -174.1106         -DE/DX =    0.0                 !
 ! D24   D(13,6,7,12)            1.2908         -DE/DX =    0.0                 !
 ! D25   D(5,6,13,2)             1.1059         -DE/DX =    0.0                 !
 ! D26   D(5,6,13,28)         -178.6731         -DE/DX =    0.0                 !
 ! D27   D(7,6,13,2)          -178.9016         -DE/DX =    0.0                 !
 ! D28   D(7,6,13,28)            1.3194         -DE/DX =    0.0                 !
 ! D29   D(6,7,8,9)           -126.3562         -DE/DX =    0.0                 !
 ! D30   D(6,7,8,18)           111.6396         -DE/DX =    0.0                 !
 ! D31   D(6,7,8,19)            -4.3577         -DE/DX =    0.0                 !
 ! D32   D(12,7,8,9)            58.0923         -DE/DX =    0.0                 !
 ! D33   D(12,7,8,18)          -63.9118         -DE/DX =    0.0                 !
 ! D34   D(12,7,8,19)         -179.9091         -DE/DX =    0.0                 !
 ! D35   D(6,7,12,11)          171.7253         -DE/DX =    0.0                 !
 ! D36   D(6,7,12,26)          -65.0213         -DE/DX =    0.0                 !
 ! D37   D(6,7,12,27)           52.3166         -DE/DX =    0.0                 !
 ! D38   D(8,7,12,11)          -12.6844         -DE/DX =    0.0                 !
 ! D39   D(8,7,12,26)          110.5689         -DE/DX =    0.0                 !
 ! D40   D(8,7,12,27)         -132.0932         -DE/DX =    0.0                 !
 ! D41   D(7,8,9,10)           -40.5683         -DE/DX =    0.0                 !
 ! D42   D(7,8,9,20)            81.2063         -DE/DX =    0.0                 !
 ! D43   D(7,8,9,21)          -162.9515         -DE/DX =    0.0                 !
 ! D44   D(18,8,9,10)           81.0874         -DE/DX =    0.0                 !
 ! D45   D(18,8,9,20)         -157.138          -DE/DX =    0.0                 !
 ! D46   D(18,8,9,21)          -41.2958         -DE/DX =    0.0                 !
 ! D47   D(19,8,9,10)         -160.2189         -DE/DX =    0.0                 !
 ! D48   D(19,8,9,20)          -38.4442         -DE/DX =    0.0                 !
 ! D49   D(19,8,9,21)           77.3979         -DE/DX =    0.0                 !
 ! D50   D(8,9,10,11)          -15.4514         -DE/DX =    0.0                 !
 ! D51   D(8,9,10,22)         -138.623          -DE/DX =    0.0                 !
 ! D52   D(8,9,10,23)          104.2495         -DE/DX =    0.0                 !
 ! D53   D(20,9,10,11)        -136.8646         -DE/DX =    0.0                 !
 ! D54   D(20,9,10,22)          99.9638         -DE/DX =    0.0                 !
 ! D55   D(20,9,10,23)         -17.1637         -DE/DX =    0.0                 !
 ! D56   D(21,9,10,11)         105.554          -DE/DX =    0.0                 !
 ! D57   D(21,9,10,22)         -17.6176         -DE/DX =    0.0                 !
 ! D58   D(21,9,10,23)        -134.7451         -DE/DX =    0.0                 !
[...]
     2  C    0.354293   4.677308   0.448656   0.001134  -0.028976  -0.021789
     3  C   -0.050185   0.448656   5.114517   0.519814  -0.072352  -0.040017
     4  C   -0.001436   0.001134   0.519814   4.667988   0.577754  -0.083859
     5  N    0.000404  -0.028976  -0.072352   0.577754   6.641122   0.448093
     6  C   -0.001005  -0.021789  -0.040017  -0.083859   0.448093   4.635849
     7  N   -0.000083  -0.002654   0.002715  -0.000868  -0.095363   0.463253
     8  C    0.000013  -0.001019   0.000100  -0.003880  -0.046048  -0.063109
     9  C    0.000001   0.000112   0.000014   0.000549   0.005080   0.006419
    10  C   -0.000001  -0.000028   0.000013  -0.000178  -0.000716  -0.007419
    11  C   -0.000002  -0.000276  -0.000015   0.000026  -0.000192   0.009736
    12  C   -0.000080  -0.000209   0.000086  -0.000678   0.005834  -0.063840
    13  C   -0.069185   0.489086  -0.039182  -0.034974  -0.078276   0.437102
    14  H    0.374963  -0.030986  -0.006484   0.000632   0.000070  -0.001452
    15  H    0.377095  -0.019587   0.007094  -0.000533   0.000125   0.002378
    16  H   -0.000535  -0.077020   0.420449  -0.022355   0.007008  -0.001346
    17  H   -0.000205   0.006335  -0.080305   0.434303  -0.031444   0.007451
    18  H   -0.000001   0.000111  -0.000046   0.000267   0.003126   0.007782
    19  H    0.000004  -0.000016   0.000630   0.001707   0.034571  -0.024758
    20  H    0.000000   0.000031  -0.000019   0.000177   0.001531   0.000742
    21  H    0.000000  -0.000003   0.000002   0.000006   0.000037   0.000259
    22  H    0.000000   0.000001  -0.000000   0.000001   0.000001   0.000211
    23  H    0.000000  -0.000034   0.000005  -0.000002   0.000010  -0.000301
    24  H   -0.000000  -0.000014   0.000002  -0.000008  -0.000030  -0.001424
    25  H    0.000000   0.000009  -0.000000  -0.000001   0.000016   0.000349
    26  H   -0.000054   0.001564  -0.000006   0.000068  -0.000029  -0.005154
    27  H   -0.000023   0.000084  -0.000166  -0.000250   0.000351  -0.016815
    28  H   -0.000448  -0.025597   0.008692  -0.001967   0.004705   0.000574
               7          8          9         10         11         12
     1  N   -0.000083   0.000013   0.000001  -0.000001  -0.000002  -0.000080
     2  C   -0.002654  -0.001019   0.000112  -0.000028  -0.000276  -0.000209
     3  C    0.002715   0.000100   0.000014   0.000013  -0.000015   0.000086
     4  C   -0.000868  -0.003880   0.000549  -0.000178   0.000026  -0.000678
     5  N   -0.095363  -0.046048   0.005080  -0.000716  -0.000192   0.005834
     6  C    0.463253  -0.063109   0.006419  -0.007419   0.009736  -0.063840
     7  N    6.457601   0.267122  -0.037355  -0.008215  -0.070640   0.333553
     8  C    0.267122   5.006104   0.319003  -0.032163   0.025272  -0.038122
     9  C   -0.037355   0.319003   4.910066   0.341784  -0.060596  -0.010920
    10  C   -0.008215  -0.032163   0.341784   4.931407   0.311013  -0.009158
    11  C   -0.070640   0.025272  -0.060596   0.311013   4.874843   0.308701
    12  C    0.333553  -0.038122  -0.010920  -0.009158   0.308701   4.972487
    13  C   -0.078143   0.007465   0.000276   0.000334  -0.001106  -0.022860
    14  H    0.000014  -0.000001   0.000000   0.000000  -0.000000  -0.000007
    15  H   -0.000025   0.000000  -0.000000   0.000000  -0.000004  -0.000096
    16  H    0.000080   0.000017  -0.000002   0.000000   0.000000   0.000006
    17  H    0.000005   0.000393  -0.000031   0.000003  -0.000001   0.000020
    18  H   -0.049458   0.398616  -0.053116  -0.013661   0.005333  -0.009383
    19  H   -0.023642   0.411819  -0.022166   0.005867  -0.000570   0.005311
    20  H   -0.000040  -0.030544   0.411974  -0.039027   0.007292  -0.001288
    21  H    0.007345  -0.041524   0.411577  -0.034993  -0.000761   0.000361
    22  H   -0.000258   0.005363  -0.031990   0.409907  -0.033172   0.007571
    23  H    0.000101  -0.000299  -0.029424   0.403312  -0.029144  -0.003904
    24  H   -0.002819   0.008937  -0.008183  -0.033655   0.430998  -0.044948
    25  H    0.006245  -0.003050   0.009002  -0.033614   0.421719  -0.036317
    26  H   -0.048754  -0.009876   0.000804   0.007083  -0.031832   0.397646
    27  H   -0.062036   0.016763  -0.005337  -0.001365  -0.015324   0.407978
    28  H   -0.004551  -0.000234  -0.000142   0.000077   0.001232   0.001539
              13         14         15         16         17         18
     1  N   -0.069185   0.374963   0.377095  -0.000535  -0.000205  -0.000001
     2  C    0.489086  -0.030986  -0.019587  -0.077020   0.006335   0.000111
     3  C   -0.039182  -0.006484   0.007094   0.420449  -0.080305  -0.000046
     4  C   -0.034974   0.000632  -0.000533  -0.022355   0.434303   0.000267
     5  N   -0.078276   0.000070   0.000125   0.007008  -0.031444   0.003126
     6  C    0.437102  -0.001452   0.002378  -0.001346   0.007451   0.007782
     7  N   -0.078143   0.000014  -0.000025   0.000080   0.000005  -0.049458
     8  C    0.007465  -0.000001   0.000000   0.000017   0.000393   0.398616
     9  C    0.000276   0.000000  -0.000000  -0.000002  -0.000031  -0.053116
    10  C    0.000334   0.000000   0.000000   0.000000   0.000003  -0.013661
    11  C   -0.001106  -0.000000  -0.000004   0.000000  -0.000001   0.005333
    12  C   -0.022860  -0.000007  -0.000096   0.000006   0.000020  -0.009383
    13  C    5.333333   0.008278  -0.022091   0.012375  -0.002765   0.001236
    14  H    0.008278   0.436298  -0.030802   0.003718  -0.000026  -0.000000
    15  H   -0.022091  -0.030802   0.440957  -0.000214   0.000022  -0.000000
    16  H    0.012375   0.003718  -0.000214   0.557997  -0.002994  -0.000001
    17  H   -0.002765  -0.000026   0.000022  -0.002994   0.560389  -0.000012
    18  H    0.001236  -0.000000  -0.000000  -0.000001  -0.000012   0.626225
    19  H    0.001921  -0.000000  -0.000001  -0.000024  -0.000716  -0.019109
    20  H   -0.000073  -0.000000  -0.000000  -0.000000  -0.000007   0.006188
    21  H    0.000111  -0.000000   0.000000  -0.000000  -0.000001  -0.001015
    22  H   -0.000018   0.000000  -0.000000  -0.000000   0.000000   0.000187
    23  H    0.000127  -0.000000  -0.000000   0.000000  -0.000000  -0.000122
    24  H   -0.000044  -0.000000  -0.000000   0.000000  -0.000000  -0.007366
    25  H   -0.000164   0.000000   0.000000  -0.000000   0.000000   0.000689
    26  H    0.011408  -0.000004   0.000021   0.000000  -0.000001   0.007030
    27  H    0.007344   0.000006  -0.000011   0.000000  -0.000001  -0.002346
    28  H    0.362869  -0.000034   0.004439  -0.000058   0.000095  -0.000030
              19         20         21         22         23         24
     1  N    0.000004   0.000000   0.000000   0.000000   0.000000  -0.000000
     2  C   -0.000016   0.000031  -0.000003   0.000001  -0.000034  -0.000014
     3  C    0.000630  -0.000019   0.000002  -0.000000   0.000005   0.000002
     4  C    0.001707   0.000177   0.000006   0.000001  -0.000002  -0.000008
     5  N    0.034571   0.001531   0.000037   0.000001   0.000010  -0.000030
     6  C   -0.024758   0.000742   0.000259   0.000211  -0.000301  -0.001424
     7  N   -0.023642  -0.000040   0.007345  -0.000258   0.000101  -0.002819
     8  C    0.411819  -0.030544  -0.041524   0.005363  -0.000299   0.008937
     9  C   -0.022166   0.411974   0.411577  -0.031990  -0.029424  -0.008183
    10  C    0.005867  -0.039027  -0.034993   0.409907   0.403312  -0.033655
    11  C   -0.000570   0.007292  -0.000761  -0.033172  -0.029144   0.430998
    12  C    0.005311  -0.001288   0.000361   0.007571  -0.003904  -0.044948
    13  C    0.001921  -0.000073   0.000111  -0.000018   0.000127  -0.000044
    14  H   -0.000000  -0.000000  -0.000000   0.000000  -0.000000  -0.000000
    15  H   -0.000001  -0.000000   0.000000  -0.000000  -0.000000  -0.000000
    16  H   -0.000024  -0.000000  -0.000000  -0.000000   0.000000   0.000000
    17  H   -0.000716  -0.000007  -0.000001   0.000000  -0.000000  -0.000000
    18  H   -0.019109   0.006188  -0.001015   0.000187  -0.000122  -0.007366
    19  H    0.475993  -0.006380   0.000276  -0.000190  -0.000083   0.000239
    20  H   -0.006380   0.582947  -0.025481   0.003420  -0.012224  -0.000254
    21  H    0.000276  -0.025481   0.599405  -0.012696   0.005640   0.001501
    22  H   -0.000190   0.003420  -0.012696   0.585829  -0.027877  -0.004174
    23  H   -0.000083  -0.012224   0.005640  -0.027877   0.597276   0.006319
    24  H    0.000239  -0.000254   0.001501  -0.004174   0.006319   0.583568
    25  H    0.000018  -0.000162  -0.000289  -0.004014  -0.004550  -0.027132
    26  H   -0.000302   0.000073   0.000308  -0.000305   0.000231  -0.011253
    27  H   -0.000035  -0.000041  -0.000263   0.000085   0.002192   0.007928
    28  H   -0.000188  -0.000020   0.000002   0.000001  -0.000019  -0.000069
              25         26         27         28
     1  N    0.000000  -0.000054  -0.000023  -0.000448
     2  C    0.000009   0.001564   0.000084  -0.025597
     3  C   -0.000000  -0.000006  -0.000166   0.008692
     4  C   -0.000001   0.000068  -0.000250  -0.001967
     5  N    0.000016  -0.000029   0.000351   0.004705
     6  C    0.000349  -0.005154  -0.016815   0.000574
     7  N    0.006245  -0.048754  -0.062036  -0.004551
     8  C   -0.003050  -0.009876   0.016763  -0.000234
     9  C    0.009002   0.000804  -0.005337  -0.000142
    10  C   -0.033614   0.007083  -0.001365   0.000077
    11  C    0.421719  -0.031832  -0.015324   0.001232
    12  C   -0.036317   0.397646   0.407978   0.001539
    13  C   -0.000164   0.011408   0.007344   0.362869
    14  H    0.000000  -0.000004   0.000006  -0.000034
    15  H    0.000000   0.000021  -0.000011   0.004439
    16  H   -0.000000   0.000000   0.000000  -0.000058
    17  H    0.000000  -0.000001  -0.000001   0.000095
    18  H    0.000689   0.007030  -0.002346  -0.000030
    19  H    0.000018  -0.000302  -0.000035  -0.000188
    20  H   -0.000162   0.000073  -0.000041  -0.000020
    21  H   -0.000289   0.000308  -0.000263   0.000002
    22  H   -0.004014  -0.000305   0.000085   0.000001
    23  H   -0.004550   0.000231   0.002192  -0.000019
    24  H   -0.027132  -0.011253   0.007928  -0.000069
    25  H    0.568843   0.001383  -0.010037   0.000028
    26  H    0.001383   0.651887  -0.070780  -0.000706
    27  H   -0.010037  -0.070780   0.640489  -0.004278
    28  H    0.000028  -0.000706  -0.004278   0.529842
 Mulliken charges:
               1
     1  N   -0.484266
     2  C    0.229485
     3  C   -0.234011
     4  C   -0.053434
     5  N   -0.376411
     6  C    0.312090
     7  N   -0.053128
     8  C   -0.197118
     9  C   -0.157398
    10  C   -0.196609
    11  C   -0.152531
    12  C   -0.199282
    13  C   -0.324386
    14  H    0.245817
    15  H    0.241232
    16  H    0.102898
    17  H    0.109494
    18  H    0.098875
    19  H    0.159823
    20  H    0.101184
    21  H    0.090193
    22  H    0.102118
    23  H    0.092771
    24  H    0.101881
    25  H    0.111028
    26  H    0.099548
    27  H    0.105890
    28  H    0.124246
 Sum of Mulliken charges =  -0.00000
 Mulliken charges with hydrogens summed into heavy atoms:
               1
     1  N    0.002783
     2  C    0.229485
     3  C   -0.131113
     4  C    0.056060
     5  N   -0.376411
     6  C    0.312090
     7  N   -0.053128
     8  C    0.061581
     9  C    0.033979
    10  C   -0.001720
    11  C    0.060378
    12  C    0.006156
    13  C   -0.200139
 Electronic spatial extent (au):  <R**2>=           2880.5662
 Charge=              0.0000 electrons
 Dipole moment (field-independent basis, Debye):
    X=              0.3769    Y=             -2.7453    Z=             -0.5465  Tot=              2.8245
 Quadrupole moment (field-independent basis, Debye-Ang):
   XX=            -62.9275   YY=            -74.2145   ZZ=            -82.6696
   XY=             -3.8778   XZ=             -0.9936   YZ=              1.5723
 Traceless Quadrupole moment (field-independent basis, Debye-Ang):
   XX=             10.3430   YY=             -0.9440   ZZ=             -9.3990
   XY=             -3.8778   XZ=             -0.9936   YZ=              1.5723
 Octapole moment (field-independent basis, Debye-Ang**2):
  XXX=             63.0889  YYY=            -18.8198  ZZZ=             -1.6636  XYY=             16.7740
  XXY=            -16.5026  XXZ=             -7.9543  XZZ=            -11.0062  YZZ=             -0.0954
  YYZ=             -1.8025  XYZ=              6.1685
 Hexadecapole moment (field-independent basis, Debye-Ang**3):
 XXXX=          -2563.9761 YYYY=           -718.0601 ZZZZ=           -192.3886 XXXY=            -93.6705
 XXXZ=             -8.0559 YYYX=            -38.8537 YYYZ=              5.5600 ZZZX=             -1.8392
 ZZZY=              2.1809 XXYY=           -551.7900 XXZZ=           -565.3361 YYZZ=           -170.8076
 XXYZ=             16.3399 YYXZ=             -8.3203 ZZXY=             -0.4500
 N-N= 7.969581292721D+02 E-N=-2.882433741806D+03  KE= 5.513117168275D+02
 Breneman (CHELPG) radii used.
 Read replacement radii for each type of atom:
 Atom Element Radius
    1     7    1.70
    2     6    1.50
    3     6    1.50
    4     6    1.50
    5     7    1.70
    6     6    1.50
    7     7    1.70
    8     6    1.50
    9     6    1.50
   10     6    1.50
   11     6    1.50
   12     6    1.50
   13     6    1.50
   14     1    1.45
   15     1    1.45
   16     1    1.45
   17     1    1.45
   18     1    1.45
   19     1    1.45
   20     1    1.45
   21     1    1.45
   22     1    1.45
   23     1    1.45
   24     1    1.45
   25     1    1.45
   26     1    1.45
   27     1    1.45
   28     1    1.45
 Generate Potential Derived Charges using the Breneman model, NDens= 1.
 Grid spacing= 0.300 Box extension= 2.800
 NStep X,Y,Z=   51     38     31   Total possible points=       60078
 Number of Points to Fit=   16206

 **********************************************************************

            Electrostatic Properties Using The SCF Density.

 **********************************************************************

       Atomic Center    1 is at   3.656471 -1.572870  0.275321
       Atomic Center    2 is at   2.747551 -0.554970  0.118451
       Atomic Center    3 is at   3.156771  0.792420  0.155601
       Atomic Center    4 is at   2.180011  1.765810  0.017321
       Atomic Center    5 is at   0.883171  1.526780 -0.139159
       Atomic Center    6 is at   0.476091  0.248380 -0.165539
       Atomic Center    7 is at  -0.870789  0.020939 -0.310019
       Atomic Center    8 is at  -1.804309  1.105659 -0.555379
       Atomic Center    9 is at  -2.943899  1.097819  0.467611
       Atomic Center   10 is at  -3.429259 -0.337551  0.768161
       Atomic Center   11 is at  -2.926879 -1.320511 -0.287469
       Atomic Center   12 is at  -1.399049 -1.329521 -0.320589
       Atomic Center   13 is at   1.385521 -0.825200 -0.050599
       Atomic Center   14 is at   4.632001 -1.357640  0.126271
       Atomic Center   15 is at   3.378201 -2.502590 -0.005159
       Atomic Center   16 is at   4.205861  1.063370  0.286521
       Atomic Center   17 is at   2.471591  2.822750  0.034151
       Atomic Center   18 is at  -2.211409  1.018999 -1.579889
       Atomic Center   19 is at  -1.236659  2.040739 -0.512009
       Atomic Center   20 is at  -2.602069  1.579709  1.395901
       Atomic Center   21 is at  -3.767539  1.716109  0.076721
       Atomic Center   22 is at  -4.526869 -0.375731  0.835251
       Atomic Center   23 is at  -3.049429 -0.663351  1.750651
       Atomic Center   24 is at  -3.330579 -1.052741 -1.277529
       Atomic Center   25 is at  -3.279919 -2.341111 -0.076539
       Atomic Center   26 is at  -1.036939 -1.896221 -1.201629
       Atomic Center   27 is at  -1.034159 -1.869211  0.573051
       Atomic Center   28 is at   1.050641 -1.861030 -0.094179
   16206 points will be used for fitting atomic charges
 Fitting point charges to electrostatic potential
 Charges from ESP fit, RMS=   0.00312 RRMS=   0.21628:
 ESP charges:
               1
     1  N   -0.852800
     2  C    0.610085
     3  C   -0.498722
     4  C    0.251905
     5  N   -0.557850
     6  C    0.628527
     7  N   -0.414577
     8  C    0.255048
     9  C   -0.037151
    10  C    0.007089
    11  C   -0.047905
    12  C    0.250973
    13  C   -0.624694
    14  H    0.358307
    15  H    0.353212
    16  H    0.156141
    17  H    0.055550
    18  H   -0.025621
    19  H   -0.041092
    20  H    0.016517
    21  H   -0.001494
    22  H    0.005801
    23  H    0.000781
    24  H    0.029142
    25  H    0.001423
    26  H   -0.056567
    27  H   -0.008685
    28  H    0.186654
 Sum of ESP charges =   0.00000
 ESP charges with hydrogens summed into heavy atoms:
               1
     1  N   -0.141282
     2  C    0.610085
     3  C   -0.342580
     4  C    0.307455
     5  N   -0.557850
     6  C    0.628527
     7  N   -0.414577
     8  C    0.188335
     9  C   -0.022128
    10  C    0.013672
    11  C   -0.017339
    12  C    0.185722
    13  C   -0.438040
 Charge=   0.00000 Dipole=     0.4765    -2.7022    -0.6412 Tot=     2.8178
 -----------------------------------------------------------------

              Electrostatic Properties (Atomic Units)

 -----------------------------------------------------------------
    Center     Electric         -------- Electric Field --------
               Potential          X             Y             Z
 -----------------------------------------------------------------
    1 Atom    -18.375645
    2 Atom    -14.723291
    3 Atom    -14.792687
    4 Atom    -14.753563
    5 Atom    -18.433840
    6 Atom    -14.711318
    7 Atom    -18.377027
    8 Atom    -14.753681
    9 Atom    -14.778122
   10 Atom    -14.772653
   11 Atom    -14.767409
   12 Atom    -14.737131
   13 Atom    -14.788305
   14 Atom     -1.028717
   15 Atom     -1.028602
   16 Atom     -1.111688
   17 Atom     -1.125200
   18 Atom     -1.137318
   19 Atom     -1.134023
   20 Atom     -1.137757
   21 Atom     -1.133027
   22 Atom     -1.130616
   23 Atom     -1.133281
   24 Atom     -1.125998
   25 Atom     -1.121304
   26 Atom     -1.124960
   27 Atom     -1.123870
   28 Atom     -1.108364
 -----------------------------------------------------------------
 Unable to Open any file for archive entry.
 1\1\GINC-NOTCH295\SP\RwB97XD\def2TZVP\C10H15N3\U6053008\14-Jul-2024\0\
 \#N Guess=Read Geom=Check Integral(Ultrafine) Density Pop=(ChelpG,Read
 Radii) NMR wB97XD def2TZVP\\1236666_2\\0,1\N,0,3.65647,-1.57287,0.2753
 2\C,0,2.74755,-0.55497,0.11845\C,0,3.15677,0.79242,0.1556\C,0,2.18001,
 1.76581,0.01732\N,0,0.88317,1.52678,-0.13916\C,0,0.47609,0.24838,-0.16
 554\N,0,-0.87079,0.02094,-0.31002\C,0,-1.80431,1.10566,-0.55538\C,0,-2
 .9439,1.09782,0.46761\C,0,-3.42926,-0.33755,0.76816\C,0,-2.92688,-1.32
 051,-0.28747\C,0,-1.39905,-1.32952,-0.32059\C,0,1.38552,-0.8252,-0.050
 6\H,0,4.632,-1.35764,0.12627\H,0,3.3782,-2.50259,-0.00516\H,0,4.20586,
 1.06337,0.28652\H,0,2.47159,2.82275,0.03415\H,0,-2.21141,1.019,-1.5798
 9\H,0,-1.23666,2.04074,-0.51201\H,0,-2.60207,1.57971,1.3959\H,0,-3.767
 54,1.71611,0.07672\H,0,-4.52687,-0.37573,0.83525\H,0,-3.04943,-0.66335
 ,1.75065\H,0,-3.33058,-1.05274,-1.27753\H,0,-3.27992,-2.34111,-0.07654
 \H,0,-1.03694,-1.89622,-1.20163\H,0,-1.03416,-1.86921,0.57305\H,0,1.05
 064,-1.86103,-0.09418\\Version=ES64L-G16RevC.01\State=1-A\HF=-554.3831
 151\RMSD=1.616e-09\Dipole=0.1482775,-1.0800989,-0.2149909\Quadrupole=7
 .6897814,-0.7018204,-6.987961,-2.8830533,-0.7387405,1.1689775\PG=C01 [
 X(C10H15N3)]\\@
 The archive entry for this job was punched.


 ALL MEN WHO EXPLORE
 DEPLORE
 THAT FRUSTRATING HURDLE
 THE GIRDLE.

         -- COLIN FLETCHER
 Job cpu time:       0 days  0 hours 54 minutes 58.3 seconds.
 Elapsed time:       0 days  0 hours  3 minutes 38.3 seconds.
 File lengths (MBytes):  RWF=    153 Int=      0 D2E=      0 Chk=     23 Scr=      2
 Normal termination of Gaussian 16 at Sun Jul 14 10:11:54 2024.
