 Entering Gaussian System, Link 0=g16
 Input=12300592_1.com
 Output=12300592_1.log
 Initial command:
 /uufs/chpc.utah.edu/sys/installdir/gaussian16/C01/AVX/g16/l1.exe "/scratch/general/vast/u6053008/1287098-notchpeak.peaks/Gau-448361.inp" -scrdir="/scratch/general/vast/u6053008/1287098-notchpeak.peaks/"
 Entering Link 1 = /uufs/chpc.utah.edu/sys/installdir/gaussian16/C01/AVX/g16/l1.exe PID=    448362.
  
 Copyright (c) 1988-2019, Gaussian, Inc.  All Rights Reserved.
  
 This is part of the Gaussian(R) 16 program.  It is based on
 the Gaussian(R) 09 system (copyright 2009, Gaussian, Inc.),
 the Gaussian(R) 03 system (copyright 2003, Gaussian, Inc.),
 the Gaussian(R) 98 system (copyright 1998, Gaussian, Inc.),
 the Gaussian(R) 94 system (copyright 1995, Gaussian, Inc.),
 the Gaussian 92(TM) system (copyright 1992, Gaussian, Inc.),
 the Gaussian 90(TM) system (copyright 1990, Gaussian, Inc.),
 the Gaussian 88(TM) system (copyright 1988, Gaussian, Inc.),
 the Gaussian 86(TM) system (copyright 1986, Carnegie Mellon
 University), and the Gaussian 82(TM) system (copyright 1983,
 Carnegie Mellon University). Gaussian is a federally registered
 trademark of Gaussian, Inc.
  
 This software contains proprietary and confidential information,
 including trade secrets, belonging to Gaussian, Inc.
  
 This software is provided under written license and may be
 used, copied, transmitted, or stored only in accord with that
 written license.
  
 The following legend is applicable only to US Government
 contracts under FAR:
  
                    RESTRICTED RIGHTS LEGEND
  
 Use, reproduction and disclosure by the US Government is
 subject to restrictions as set forth in subparagraphs (a)
 and (c) of the Commercial Computer Software - Restricted
 Rights clause in FAR 52.227-19.
  
 Gaussian, Inc.
 340 Quinnipiac St., Bldg. 40, Wallingford CT 06492
  
  
 ---------------------------------------------------------------
 Warning -- This program may not be used in any manner that
 competes with the business of Gaussian, Inc. or will provide
 assistance to any competitor of Gaussian, Inc.  The licensee
 of this program is prohibited from giving any competitor of
 Gaussian, Inc. access to this program.  By using this program,
 the user acknowledges that Gaussian, Inc. is engaged in the
 business of creating and licensing software in the field of
 computational chemistry and represents and warrants to the
 licensee that it is not a competitor of Gaussian, Inc. and that
 it will not use this program in any manner prohibited above.
 ---------------------------------------------------------------
  

 Cite this work as:
 Gaussian 16, Revision C.01,
 M. J. Frisch, G. W. Trucks, H. B. Schlegel, G. E. Scuseria, 
 M. A. Robb, J. R. Cheeseman, G. Scalmani, V. Barone, 
 G. A. Petersson, H. Nakatsuji, X. Li, M. Caricato, A. V. Marenich, 
 J. Bloino, B. G. Janesko, R. Gomperts, B. Mennucci, H. P. Hratchian, 
 J. V. Ortiz, A. F. Izmaylov, J. L. Sonnenberg, D. Williams-Young, 
 F. Ding, F. Lipparini, F. Egidi, J. Goings, B. Peng, A. Petrone, 
 T. Henderson, D. Ranasinghe, V. G. Zakrzewski, J. Gao, N. Rega, 
 G. Zheng, W. Liang, M. Hada, M. Ehara, K. Toyota, R. Fukuda, 
 J. Hasegawa, M. Ishida, T. Nakajima, Y. Honda, O. Kitao, H. Nakai, 
 T. Vreven, K. Throssell, J. A. Montgomery, Jr., J. E. Peralta, 
 F. Ogliaro, M. J. Bearpark, J. J. Heyd, E. N. Brothers, K. N. Kudin, 
 V. N. Staroverov, T. A. Keith, R. Kobayashi, J. Normand, 
 K. Raghavachari, A. P. Rendell, J. C. Burant, S. S. Iyengar, 
 J. Tomasi, M. Cossi, J. M. Millam, M. Klene, C. Adamo, R. Cammi, 
 J. W. Ochterski, R. L. Martin, K. Morokuma, O. Farkas, 
 J. B. Foresman, and D. J. Fox, Gaussian, Inc., Wallingford CT, 2019.
 
 ******************************************
 Gaussian 16:  ES64L-G16RevC.01  3-Jul-2019
                12-Jul-2024 
 ******************************************
 %NProcShared=16
 Will use up to   16 processors via shared memory.
 %Mem=32GB
 %chk=12300592_1.chk
 ------------------------------------------------------
 #N OPT FREQ=NORAMAN Integral(Ultrafine) wB97XD def2SVP
 ------------------------------------------------------
 1/18=20,19=15,26=4,38=1/1,3;
 2/9=110,12=2,17=6,18=5,40=1/2;
 3/5=43,7=101,11=2,25=1,30=1,71=1,74=-58,75=-5/1,2,3;
 4//1;
 5/5=2,38=5/2;
 6/7=2,8=2,9=2,10=2,28=1/1;
 7//1,2,3,16;
 1/18=20,19=15,26=4/3(2);
 2/9=110/2;
 99//99;
 2/9=110/2;
 3/5=43,7=101,11=2,25=1,30=1,71=1,74=-58,75=-5/1,2,3;
 4/5=5,16=3,69=1/1;
 5/5=2,38=5/2;
 7//1,2,3,16;
 1/18=20,19=15,26=4/3(-5);
 2/9=110/2;
 6/7=2,8=2,9=2,10=2,19=2,28=1/1;
 99/9=1/99;
 ----------
 12300592_1
 ----------
 Symbolic Z-matrix:
 Charge =  0 Multiplicity = 1
 C                    -2.51838  -1.75679   0.00129 
 N                    -2.26038  -0.33508   0.00023 
 C                    -3.36046   0.60228   0.00186 
 C                    -0.97145   0.12224  -0.00066 
 C                    -0.67005   1.50702  -0.00061 
 C                     0.65398   1.90966  -0.00122 
 N                     1.69109   1.0705   -0.0021 
 C                     1.42386  -0.23343  -0.00218 
 C                     2.6489   -1.13308  -0.00525 
 O                     3.8242   -0.39933   0.00917 
 C                     0.1332   -0.75387  -0.00137 
 H                    -2.097    -2.25161   0.89363 
 H                    -3.60065  -1.93141   0.0023 
 H                    -2.09854  -2.2526   -0.8912 
 H                    -3.35086   1.25221  -0.89031 
 H                    -3.34962   1.2508    0.89507 
 H                    -4.30807   0.05102   0.00201 
 H                    -1.45267   2.26383   0.00014 
 H                     0.89214   2.97858  -0.00098 
 H                     2.587    -1.80591   0.87326 
 H                     2.59488  -1.78618  -0.89943 
 H                     3.53283   0.53004   0.00507 
 H                     0.00433  -1.83624  -0.00113 
 

 GradGradGradGradGradGradGradGradGradGradGradGradGradGradGradGradGradGrad
 Berny optimization.
 Initialization pass.
                           ----------------------------
                           !    Initial Parameters    !
                           ! (Angstroms and Degrees)  !
 --------------------------                            --------------------------
 ! Name  Definition              Value          Derivative Info.                !
 --------------------------------------------------------------------------------
 ! R1    R(1,2)                  1.4449         estimate D2E/DX2                !
 ! R2    R(1,12)                 1.1039         estimate D2E/DX2                !
 ! R3    R(1,13)                 1.0963         estimate D2E/DX2                !
 ! R4    R(1,14)                 1.1039         estimate D2E/DX2                !
 ! R5    R(2,3)                  1.4453         estimate D2E/DX2                !
 ! R6    R(2,4)                  1.3677         estimate D2E/DX2                !
 ! R7    R(3,15)                 1.1038         estimate D2E/DX2                !
 ! R8    R(3,16)                 1.1039         estimate D2E/DX2                !
 ! R9    R(3,17)                 1.0963         estimate D2E/DX2                !
 ! R10   R(4,5)                  1.4172         estimate D2E/DX2                !
 ! R11   R(4,11)                 1.4099         estimate D2E/DX2                !
 ! R12   R(5,6)                  1.3839         estimate D2E/DX2                !
 ! R13   R(5,18)                 1.0887         estimate D2E/DX2                !
 ! R14   R(6,7)                  1.3341         estimate D2E/DX2                !
 ! R15   R(6,19)                 1.0951         estimate D2E/DX2                !
 ! R16   R(7,8)                  1.331          estimate D2E/DX2                !
 ! R17   R(8,9)                  1.5199         estimate D2E/DX2                !
 ! R18   R(8,11)                 1.3916         estimate D2E/DX2                !
 ! R19   R(9,10)                 1.3856         estimate D2E/DX2                !
 ! R20   R(9,20)                 1.1083         estimate D2E/DX2                !
 ! R21   R(9,21)                 1.1086         estimate D2E/DX2                !
 ! R22   R(10,22)                0.974          estimate D2E/DX2                !
 ! R23   R(11,23)                1.09           estimate D2E/DX2                !
 ! A1    A(2,1,12)             111.9295         estimate D2E/DX2                !
 ! A2    A(2,1,13)             109.4511         estimate D2E/DX2                !
 ! A3    A(2,1,14)             111.9266         estimate D2E/DX2                !
 ! A4    A(12,1,13)            107.7396         estimate D2E/DX2                !
 ! A5    A(12,1,14)            107.8799         estimate D2E/DX2                !
 ! A6    A(13,1,14)            107.7381         estimate D2E/DX2                !
 ! A7    A(1,2,3)              120.1481         estimate D2E/DX2                !
 ! A8    A(1,2,4)              119.8206         estimate D2E/DX2                !
 ! A9    A(3,2,4)              120.0313         estimate D2E/DX2                !
 ! A10   A(2,3,15)             111.9834         estimate D2E/DX2                !
 ! A11   A(2,3,16)             111.9916         estimate D2E/DX2                !
 ! A12   A(2,3,17)             109.3781         estimate D2E/DX2                !
 ! A13   A(15,3,16)            107.9389         estimate D2E/DX2                !
 ! A14   A(15,3,17)            107.6797         estimate D2E/DX2                !
 ! A15   A(16,3,17)            107.6858         estimate D2E/DX2                !
 ! A16   A(2,4,5)              121.814          estimate D2E/DX2                !
 ! A17   A(2,4,11)             122.0467         estimate D2E/DX2                !
 ! A18   A(5,4,11)             116.1393         estimate D2E/DX2                !
 ! A19   A(4,5,6)              119.1936         estimate D2E/DX2                !
 ! A20   A(4,5,18)             121.7604         estimate D2E/DX2                !
 ! A21   A(6,5,18)             119.0459         estimate D2E/DX2                !
 ! A22   A(5,6,7)              124.1079         estimate D2E/DX2                !
 ! A23   A(5,6,19)             119.4752         estimate D2E/DX2                !
 ! A24   A(7,6,19)             116.4169         estimate D2E/DX2                !
 ! A25   A(6,7,8)              117.3955         estimate D2E/DX2                !
 ! A26   A(7,8,9)              114.711          estimate D2E/DX2                !
 ! A27   A(7,8,11)             123.543          estimate D2E/DX2                !
 ! A28   A(9,8,11)             121.746          estimate D2E/DX2                !
 ! A29   A(8,9,10)             111.7276         estimate D2E/DX2                !
 ! A30   A(8,9,20)             108.2235         estimate D2E/DX2                !
 ! A31   A(8,9,21)             108.1231         estimate D2E/DX2                !
 ! A32   A(10,9,20)            111.1375         estimate D2E/DX2                !
 ! A33   A(10,9,21)            111.2041         estimate D2E/DX2                !
 ! A34   A(20,9,21)            106.1996         estimate D2E/DX2                !
 ! A35   A(9,10,22)            104.5664         estimate D2E/DX2                !
 ! A36   A(4,11,8)             119.6206         estimate D2E/DX2                !
 ! A37   A(4,11,23)            121.6285         estimate D2E/DX2                !
 ! A38   A(8,11,23)            118.7509         estimate D2E/DX2                !
 ! D1    D(12,1,2,3)          -119.3166         estimate D2E/DX2                !
 ! D2    D(12,1,2,4)            60.6031         estimate D2E/DX2                !
 ! D3    D(13,1,2,3)             0.058          estimate D2E/DX2                !
 ! D4    D(13,1,2,4)           179.9777         estimate D2E/DX2                !
 ! D5    D(14,1,2,3)           119.4289         estimate D2E/DX2                !
 ! D6    D(14,1,2,4)           -60.6513         estimate D2E/DX2                !
 ! D7    D(1,2,3,15)          -119.3861         estimate D2E/DX2                !
 ! D8    D(1,2,3,16)           119.1978         estimate D2E/DX2                !
 ! D9    D(1,2,3,17)            -0.1006         estimate D2E/DX2                !
 ! D10   D(4,2,3,15)            60.6943         estimate D2E/DX2                !
 ! D11   D(4,2,3,16)           -60.7218         estimate D2E/DX2                !
 ! D12   D(4,2,3,17)           179.9799         estimate D2E/DX2                !
 ! D13   D(1,2,4,5)           -179.9474         estimate D2E/DX2                !
 ! D14   D(1,2,4,11)             0.0378         estimate D2E/DX2                !
 ! D15   D(3,2,4,5)             -0.0276         estimate D2E/DX2                !
 ! D16   D(3,2,4,11)           179.9576         estimate D2E/DX2                !
 ! D17   D(2,4,5,6)            179.9849         estimate D2E/DX2                !
 ! D18   D(2,4,5,18)             0.0            estimate D2E/DX2                !
 ! D19   D(11,4,5,6)            -0.0011         estimate D2E/DX2                !
 ! D20   D(11,4,5,18)         -179.986          estimate D2E/DX2                !
 ! D21   D(2,4,11,8)          -179.996          estimate D2E/DX2                !
 ! D22   D(2,4,11,23)           -0.0067         estimate D2E/DX2                !
 ! D23   D(5,4,11,8)            -0.01           estimate D2E/DX2                !
 ! D24   D(5,4,11,23)          179.9793         estimate D2E/DX2                !
 ! D25   D(4,5,6,7)              0.0121         estimate D2E/DX2                !
 ! D26   D(4,5,6,19)          -179.9877         estimate D2E/DX2                !
 ! D27   D(18,5,6,7)           179.9974         estimate D2E/DX2                !
 ! D28   D(18,5,6,19)           -0.0024         estimate D2E/DX2                !
 ! D29   D(5,6,7,8)             -0.0108         estimate D2E/DX2                !
 ! D30   D(19,6,7,8)           179.989          estimate D2E/DX2                !
 ! D31   D(6,7,8,9)            179.915          estimate D2E/DX2                !
 ! D32   D(6,7,8,11)            -0.0015         estimate D2E/DX2                !
 ! D33   D(7,8,9,10)             0.7375         estimate D2E/DX2                !
 ! D34   D(7,8,9,20)           123.4135         estimate D2E/DX2                !
 ! D35   D(7,8,9,21)          -121.9534         estimate D2E/DX2                !
 ! D36   D(11,8,9,10)         -179.3444         estimate D2E/DX2                !
 ! D37   D(11,8,9,20)          -56.6684         estimate D2E/DX2                !
 ! D38   D(11,8,9,21)           57.9647         estimate D2E/DX2                !
 ! D39   D(7,8,11,4)             0.012          estimate D2E/DX2                !
 ! D40   D(7,8,11,23)         -179.9777         estimate D2E/DX2                !
 ! D41   D(9,8,11,4)          -179.8988         estimate D2E/DX2                !
 ! D42   D(9,8,11,23)            0.1115         estimate D2E/DX2                !
 ! D43   D(8,9,10,22)           -0.7664         estimate D2E/DX2                !
 ! D44   D(20,9,10,22)        -121.7636         estimate D2E/DX2                !
 ! D45   D(21,9,10,22)         120.1488         estimate D2E/DX2                !
 --------------------------------------------------------------------------------
 Trust Radius=3.00D-01 FncErr=1.00D-07 GrdErr=1.00D-06 EigMax=2.50D+02 EigMin=1.00D-04
 Number of steps in this run=    116 maximum allowed number of steps=    138.
 GradGradGradGradGradGradGradGradGradGradGradGradGradGradGradGradGradGrad

                          Input orientation:                          
 ---------------------------------------------------------------------
 Center     Atomic      Atomic             Coordinates (Angstroms)
 Number     Number       Type             X           Y           Z
 ---------------------------------------------------------------------
      1          6           0       -2.518380   -1.756790    0.001290
      2          7           0       -2.260380   -0.335080    0.000230
      3          6           0       -3.360460    0.602280    0.001860
      4          6           0       -0.971450    0.122240   -0.000660
      5          6           0       -0.670050    1.507020   -0.000610
      6          6           0        0.653980    1.909660   -0.001220
      7          7           0        1.691090    1.070500   -0.002100
      8          6           0        1.423860   -0.233430   -0.002180
      9          6           0        2.648900   -1.133080   -0.005250
     10          8           0        3.824200   -0.399330    0.009170
     11          6           0        0.133200   -0.753870   -0.001370
     12          1           0       -2.097000   -2.251610    0.893630
     13          1           0       -3.600650   -1.931410    0.002300
     14          1           0       -2.098540   -2.252600   -0.891200
     15          1           0       -3.350860    1.252210   -0.890310
     16          1           0       -3.349620    1.250800    0.895070
     17          1           0       -4.308070    0.051020    0.002010
     18          1           0       -1.452670    2.263830    0.000140
     19          1           0        0.892140    2.978580   -0.000980
     20          1           0        2.587000   -1.805910    0.873260
     21          1           0        2.594880   -1.786180   -0.899430
     22          1           0        3.532830    0.530040    0.005070
     23          1           0        0.004330   -1.836240   -0.001130
 ---------------------------------------------------------------------
                    Distance matrix (angstroms):
                    1          2          3          4          5
     1  C    0.000000
     2  N    1.444931   0.000000
     3  C    2.504857   1.445276   0.000000
     4  C    2.433876   1.367656   2.436763   0.000000
     5  C    3.750838   2.433615   2.838462   1.417201   0.000000
     6  C    4.848374   3.678635   4.221964   2.415966   1.383898
     7  N    5.070820   4.194017   5.073204   2.826361   2.401153
     8  C    4.226333   3.685643   4.856763   2.421573   2.722798
     9  C    5.204790   4.973717   6.254913   3.831812   4.240941
    10  O    6.486222   6.084926   7.254145   4.823939   4.881859
    11  C    2.834913   2.429941   3.747641   1.409901   2.399340
    12  H    1.103938   2.120836   3.245963   2.775208   4.118635
    13  H    1.096267   2.084370   2.545049   3.336192   4.517878
    14  H    1.103916   2.120783   3.246589   2.775474   4.119281
    15  H    3.246853   2.121720   1.103843   2.780270   2.836060
    16  H    3.245828   2.121838   1.103866   2.780589   2.836897
    17  H    2.543849   2.083773   1.096290   3.337381   3.918563
    18  H    4.159462   2.721531   2.529904   2.194990   1.088695
    19  H    5.835699   4.573699   4.871490   3.410520   2.146142
    20  H    5.179541   5.140293   6.475415   4.140539   4.727317
    21  H    5.192070   5.146711   6.479440   4.143497   4.723644
    22  H    6.468906   5.857452   6.893669   4.522706   4.314942
    23  H    2.523962   2.717056   4.155502   2.188102   3.410598
                    6          7          8          9         10
     6  C    0.000000
     7  N    1.334087   0.000000
     8  C    2.277180   1.331032   0.000000
     9  C    3.638405   2.402743   1.519902   0.000000
    10  O    3.921969   2.590499   2.406093   1.385614   0.000000
    11  C    2.713965   2.399031   1.391640   2.544123   3.708004
    12  H    5.068019   5.117458   4.155957   4.958091   6.266883
    13  H    5.731990   6.083913   5.303664   6.300338   7.581274
    14  H    5.068810   5.118084   4.156285   4.957461   6.270895
    15  H    4.154692   5.122811   5.078765   6.516906   7.417421
    16  H    4.155267   5.123103   5.078790   6.517339   7.414273
    17  H    5.298726   6.085169   5.738985   7.057023   8.144733
    18  H    2.136215   3.362628   3.809296   5.325589   5.910826
    19  H    1.095130   2.068597   3.255724   4.471238   4.472958
    20  H    4.278638   3.137299   2.142891   1.108292   2.062955
    21  H    4.270024   3.127724   2.141817   1.108610   2.064009
    22  H    3.192361   1.919415   2.242921   1.883456   0.973982
    23  H    3.801817   3.360699   2.141043   2.736458   4.081204
                   11         12         13         14         15
    11  C    0.000000
    12  H    2.831615   0.000000
    13  H    3.915131   1.777065   0.000000
    14  H    2.831723   1.784831   1.777031   0.000000
    15  H    4.117432   4.126907   3.315808   3.721827   0.000000
    16  H    4.117322   3.719669   3.314591   4.126715   1.785381
    17  H    4.513617   3.314502   2.104869   3.314591   1.776329
    18  H    3.409032   4.647869   4.713158   4.648632   2.327961
    19  H    3.808828   6.090170   6.655312   6.091133   4.666295
    20  H    2.809431   4.705201   6.249907   5.026643   6.908000
    21  H    2.816388   5.044346   6.262492   4.716546   6.677104
    22  H    3.633999   6.342090   7.546210   6.344975   6.979142
    23  H    1.090015   2.321361   3.606238   2.321130   4.646124
                   16         17         18         19         20
    16  H    0.000000
    17  H    1.776416   0.000000
    18  H    2.329281   3.612456   0.000000
    19  H    4.666975   5.967646   2.451327   0.000000
    20  H    6.677380   7.193696   5.800350   5.150552   0.000000
    21  H    6.912348   7.199904   5.796074   5.139015   1.772817
    22  H    6.977085   7.855519   5.278377   3.601198   2.665523
    23  H    4.645640   4.707287   4.351256   4.895988   2.726841
                   21         22         23
    21  H    0.000000
    22  H    2.657583   0.000000
    23  H    2.742334   4.248486   0.000000
 Stoichiometry    C8H12N2O
 Framework group  C1[X(C8H12N2O)]
 Deg. of freedom    63
 Full point group                 C1      NOp   1
 Largest Abelian subgroup         C1      NOp   1
 Largest concise Abelian subgroup C1      NOp   1
                         Standard orientation:                         
 ---------------------------------------------------------------------
 Center     Atomic      Atomic             Coordinates (Angstroms)
 Number     Number       Type             X           Y           Z
 ---------------------------------------------------------------------
      1          6           0        2.518380   -1.756789   -0.001292
      2          7           0        2.260379   -0.335080   -0.000232
      3          6           0        3.360459    0.602281   -0.001862
      4          6           0        0.971449    0.122240    0.000658
      5          6           0        0.670049    1.507020    0.000608
      6          6           0       -0.653981    1.909660    0.001218
      7          7           0       -1.691091    1.070499    0.002098
      8          6           0       -1.423861   -0.233430    0.002178
      9          6           0       -2.648900   -1.133081    0.005248
     10          8           0       -3.824201   -0.399331   -0.009172
     11          6           0       -0.133201   -0.753870    0.001368
     12          1           0        2.097000   -2.251610   -0.893632
     13          1           0        3.600650   -1.931409   -0.002302
     14          1           0        2.098540   -2.252600    0.891198
     15          1           0        3.350859    1.252211    0.890308
     16          1           0        3.349619    1.250801   -0.895072
     17          1           0        4.308069    0.051021   -0.002012
     18          1           0        1.452669    2.263830   -0.000142
     19          1           0       -0.892142    2.978580    0.000978
     20          1           0       -2.587000   -1.805911   -0.873262
     21          1           0       -2.594880   -1.786181    0.899428
     22          1           0       -3.532831    0.530039   -0.005072
     23          1           0       -0.004330   -1.836240    0.001128
 ---------------------------------------------------------------------
 Rotational constants (GHZ):           2.5045842           0.6445463           0.5176622
 Standard basis: def2SVP (5D, 7F)
 There are   225 symmetry adapted cartesian basis functions of A   symmetry.
 There are   214 symmetry adapted basis functions of A   symmetry.
   214 basis functions,   359 primitive gaussians,   225 cartesian basis functions
    41 alpha electrons       41 beta electrons
       nuclear repulsion energy       607.3191943777 Hartrees.
 NAtoms=   23 NActive=   23 NUniq=   23 SFac= 1.00D+00 NAtFMM=   60 NAOKFM=F Big=F
 Integral buffers will be    131072 words long.
 Raffenetti 2 integral format.
 Two-electron integral symmetry is turned on.
 Nuclear repulsion after empirical dispersion term =      607.3060341680 Hartrees.
 One-electron integrals computed using PRISM.
   1 Symmetry operations used in ECPInt.
 ECPInt:  NShTT=    5253 NPrTT=   18707 LenC2=    5071 LenP2D=   13852.
 LDataN:  DoStor=T MaxTD1= 4 Len=   56
 NBasis=   214 RedAO= T EigKep=  5.79D-04  NBF=   214
 NBsUse=   214 1.00D-06 EigRej= -1.00D+00 NBFU=   214
 ExpMin= 1.22D-01 ExpMax= 2.27D+03 ExpMxC= 3.41D+02 IAcc=3 IRadAn=         5 AccDes= 0.00D+00
 Harris functional with IExCor= 4639 and IRadAn=       5 diagonalized for initial guess.
 HarFok:  IExCor= 4639 AccDes= 0.00D+00 IRadAn=         5 IDoV= 1 UseB2=F ITyADJ=14
 ICtDFT=  3500011 ScaDFX=  1.000000  1.000000  1.000000  1.000000
 FoFCou: FMM=F IPFlag=           0 FMFlag=      100000 FMFlg1=           0
         NFxFlg=           0 DoJE=T BraDBF=F KetDBF=T FulRan=T
         wScrn=  0.000000 ICntrl=       500 IOpCl=  0 I1Cent=   200000004 NGrid=           0
         NMat0=    1 NMatS0=      1 NMatT0=    0 NMatD0=    1 NMtDS0=    0 NMtDT0=    0
 Petite list used in FoFCou.
 Requested convergence on RMS density matrix=1.00D-08 within 128 cycles.
 Requested convergence on MAX density matrix=1.00D-06.
 Requested convergence on             energy=1.00D-06.
 No special actions if energy rises.
 Integral accuracy reduced to 1.0D-05 until final iterations.
 Initial convergence to 1.0D-05 achieved.  Increase integral accuracy.
 SCF Done:  E(RwB97XD) =  -496.276454197     A.U. after   15 cycles
            NFock= 15  Conv=0.54D-08     -V/T= 2.0106

 **********************************************************************

            Population analysis using the SCF Density.

 **********************************************************************

 Orbital symmetries:
       Occupied  (A) (A) (A) (A) (A) (A) (A) (A) (A) (A) (A) (A)
                 (A) (A) (A) (A) (A) (A) (A) (A) (A) (A) (A) (A)
                 (A) (A) (A) (A) (A) (A) (A) (A) (A) (A) (A) (A)
                 (A) (A) (A) (A) (A)
       Virtual   (A) (A) (A) (A) (A) (A) (A) (A) (A) (A) (A) (A)
                 (A) (A) (A) (A) (A) (A) (A) (A) (A) (A) (A) (A)
                 (A) (A) (A) (A) (A) (A) (A) (A) (A) (A) (A) (A)
                 (A) (A) (A) (A) (A) (A) (A) (A) (A) (A) (A) (A)
                 (A) (A) (A) (A) (A) (A) (A) (A) (A) (A) (A) (A)
                 (A) (A) (A) (A) (A) (A) (A) (A) (A) (A) (A) (A)
                 (A) (A) (A) (A) (A) (A) (A) (A) (A) (A) (A) (A)
                 (A) (A) (A) (A) (A) (A) (A) (A) (A) (A) (A) (A)
                 (A) (A) (A) (A) (A) (A) (A) (A) (A) (A) (A) (A)
                 (A) (A) (A) (A) (A) (A) (A) (A) (A) (A) (A) (A)
                 (A) (A) (A) (A) (A) (A) (A) (A) (A) (A) (A) (A)
                 (A) (A) (A) (A) (A) (A) (A) (A) (A) (A) (A) (A)
                 (A) (A) (A) (A) (A) (A) (A) (A) (A) (A) (A) (A)
                 (A) (A) (A) (A) (A) (A) (A) (A) (A) (A) (A) (A)
                 (A) (A) (A) (A) (A)
 The electronic state is 1-A.
 Alpha  occ. eigenvalues --  -19.21724 -14.48283 -14.43178 -10.36200 -10.34766
 Alpha  occ. eigenvalues --  -10.34722 -10.33630 -10.33549 -10.33058 -10.30207
 Alpha  occ. eigenvalues --  -10.30045  -1.09350  -1.06662  -1.02967  -0.89126
 Alpha  occ. eigenvalues --   -0.86753  -0.83468  -0.78683  -0.75724  -0.71548
 Alpha  occ. eigenvalues --   -0.66809  -0.63367  -0.60347  -0.57279  -0.56923
 Alpha  occ. eigenvalues --   -0.55241  -0.54372  -0.53612  -0.52637  -0.50755
 Alpha  occ. eigenvalues --   -0.49948  -0.49688  -0.47926  -0.47687  -0.44775
 Alpha  occ. eigenvalues --   -0.40442  -0.39571  -0.34797  -0.34755  -0.31808
 Alpha  occ. eigenvalues --   -0.29390
 Alpha virt. eigenvalues --    0.05396   0.06281   0.12356   0.14981   0.15458
 Alpha virt. eigenvalues --    0.17252   0.18072   0.20222   0.20721   0.20810
 Alpha virt. eigenvalues --    0.20981   0.21647   0.22153   0.23619   0.24004
 Alpha virt. eigenvalues --    0.26146   0.28729   0.30409   0.32711   0.34614
 Alpha virt. eigenvalues --    0.36656   0.37089   0.39172   0.42138   0.44800
 Alpha virt. eigenvalues --    0.46429   0.48019   0.49419   0.51883   0.52271
 Alpha virt. eigenvalues --    0.53274   0.55625   0.56764   0.57631   0.58013
 Alpha virt. eigenvalues --    0.59776   0.60991   0.63952   0.63986   0.68295
 Alpha virt. eigenvalues --    0.69099   0.69674   0.70317   0.70490   0.70924
 Alpha virt. eigenvalues --    0.71071   0.72410   0.72624   0.74037   0.74221
 Alpha virt. eigenvalues --    0.75314   0.75729   0.76100   0.77449   0.78112
 Alpha virt. eigenvalues --    0.78555   0.79366   0.79457   0.82054   0.84702
 Alpha virt. eigenvalues --    0.86721   0.88056   0.92340   0.96573   0.98232
 Alpha virt. eigenvalues --    0.98699   1.01143   1.07709   1.08913   1.14242
 Alpha virt. eigenvalues --    1.15197   1.17566   1.18663   1.19569   1.21425
 Alpha virt. eigenvalues --    1.25099   1.27535   1.29203   1.32208   1.33649
 Alpha virt. eigenvalues --    1.34378   1.34955   1.35673   1.38794   1.41422
 Alpha virt. eigenvalues --    1.44711   1.45416   1.54396   1.56523   1.57763
 Alpha virt. eigenvalues --    1.59380   1.59721   1.60323   1.63226   1.64546
 Alpha virt. eigenvalues --    1.67664   1.74631   1.75145   1.79514   1.79546
 Alpha virt. eigenvalues --    1.80591   1.82675   1.83371   1.83461   1.84979
 Alpha virt. eigenvalues --    1.85013   1.86646   1.88289   1.88790   1.89752
 Alpha virt. eigenvalues --    1.90762   1.93969   1.95747   1.95865   1.96098
 Alpha virt. eigenvalues --    1.97888   2.00371   2.00761   2.02347   2.05013
 Alpha virt. eigenvalues --    2.07371   2.11258   2.14818   2.17378   2.20742
 Alpha virt. eigenvalues --    2.22356   2.25063   2.28910   2.29068   2.29376
 Alpha virt. eigenvalues --    2.30387   2.32937   2.35771   2.41013   2.42570
 Alpha virt. eigenvalues --    2.43847   2.46863   2.47119   2.47613   2.48640
 Alpha virt. eigenvalues --    2.50087   2.52351   2.59186   2.66425   2.66811
 Alpha virt. eigenvalues --    2.67839   2.73510   2.74504   2.75931   2.77607
 Alpha virt. eigenvalues --    2.80868   2.85122   2.88437   2.89964   2.92165
 Alpha virt. eigenvalues --    2.93834   2.95988   2.98040   2.99495   3.01330
 Alpha virt. eigenvalues --    3.04465   3.07068   3.09921   3.13361   3.15960
 Alpha virt. eigenvalues --    3.18091   3.28464   3.32813   3.37062   3.45593
 Alpha virt. eigenvalues --    3.54198   3.72182   3.90274
          Condensed to atoms (all electrons):
               1          2          3          4          5          6
     1  C    4.456438   0.348364  -0.044724  -0.057362   0.007642  -0.000117
     2  N    0.348364   6.634160   0.348376   0.406754  -0.091266   0.005451
     3  C   -0.044724   0.348376   4.459196  -0.056457   0.001927   0.000623
     4  C   -0.057362   0.406754  -0.056457   4.850378   0.383816   0.007746
     5  C    0.007642  -0.091266   0.001927   0.383816   5.098233   0.465711
     6  C   -0.000117   0.005451   0.000623   0.007746   0.465711   4.678889
     7  N    0.000025  -0.000219   0.000019  -0.047593  -0.032670   0.511936
     8  C    0.000654   0.006716  -0.000093   0.021352  -0.071138  -0.048388
     9  C   -0.000034  -0.000066   0.000003   0.002915   0.000779   0.006543
    10  O    0.000000   0.000000  -0.000000  -0.000206  -0.000007  -0.000786
    11  C    0.003177  -0.096376   0.007701   0.380832  -0.003277  -0.074001
    12  H    0.400133  -0.028620   0.002994  -0.012003  -0.000123  -0.000019
    13  H    0.398224  -0.020664  -0.011489   0.007189  -0.000135   0.000012
    14  H    0.400150  -0.028583   0.003004  -0.012017  -0.000123  -0.000019
    15  H    0.002998  -0.029243   0.400954  -0.011137   0.005727   0.000729
    16  H    0.002981  -0.029306   0.400968  -0.011087   0.005714   0.000725
    17  H   -0.011457  -0.020062   0.398523   0.006867   0.000437  -0.000048
    18  H   -0.000061  -0.014555   0.010695  -0.061152   0.425068  -0.038671
    19  H    0.000009  -0.000111  -0.000047   0.006642  -0.065347   0.422684
    20  H    0.000004   0.000002  -0.000000   0.000310   0.000009  -0.000208
    21  H    0.000004   0.000002  -0.000000   0.000227   0.000014  -0.000216
    22  H   -0.000000   0.000002  -0.000000   0.000278   0.000488  -0.001447
    23  H    0.012148  -0.014678  -0.000072  -0.057177   0.011953  -0.000461
               7          8          9         10         11         12
     1  C    0.000025   0.000654  -0.000034   0.000000   0.003177   0.400133
     2  N   -0.000219   0.006716  -0.000066   0.000000  -0.096376  -0.028620
     3  C    0.000019  -0.000093   0.000003  -0.000000   0.007701   0.002994
     4  C   -0.047593   0.021352   0.002915  -0.000206   0.380832  -0.012003
     5  C   -0.032670  -0.071138   0.000779  -0.000007  -0.003277  -0.000123
     6  C    0.511936  -0.048388   0.006543  -0.000786  -0.074001  -0.000019
     7  N    6.409482   0.523408  -0.093673  -0.029818  -0.054449  -0.000012
     8  C    0.523408   5.180529   0.297403  -0.040841   0.350889   0.001107
     9  C   -0.093673   0.297403   4.473789   0.404693  -0.059136  -0.000012
    10  O   -0.029818  -0.040841   0.404693   7.718290   0.006348  -0.000000
    11  C   -0.054449   0.350889  -0.059136   0.006348   5.189650   0.006165
    12  H   -0.000012   0.001107  -0.000012  -0.000000   0.006165   0.641372
    13  H    0.000000  -0.000079   0.000000   0.000000   0.000447  -0.020803
    14  H   -0.000012   0.001103  -0.000012  -0.000000   0.006152  -0.040431
    15  H   -0.000017  -0.000024  -0.000000  -0.000000  -0.000034  -0.000747
    16  H   -0.000017  -0.000022  -0.000000  -0.000000  -0.000035   0.001102
    17  H    0.000001   0.000015  -0.000000   0.000000  -0.000176   0.000272
    18  H    0.005604   0.000199   0.000082   0.000001   0.011631  -0.000011
    19  H   -0.039416   0.006419  -0.000198   0.000071   0.001604  -0.000000
    20  H    0.000307  -0.026834   0.376121  -0.035998   0.000055  -0.000006
    21  H   -0.000137  -0.026336   0.374824  -0.035837   0.000540  -0.000003
    22  H    0.055656  -0.017564  -0.053792   0.346471   0.004058   0.000000
    23  H    0.005655  -0.046034  -0.005337   0.000037   0.427374  -0.001496
              13         14         15         16         17         18
     1  C    0.398224   0.400150   0.002998   0.002981  -0.011457  -0.000061
     2  N   -0.020664  -0.028583  -0.029243  -0.029306  -0.020062  -0.014555
     3  C   -0.011489   0.003004   0.400954   0.400968   0.398523   0.010695
     4  C    0.007189  -0.012017  -0.011137  -0.011087   0.006867  -0.061152
     5  C   -0.000135  -0.000123   0.005727   0.005714   0.000437   0.425068
     6  C    0.000012  -0.000019   0.000729   0.000725  -0.000048  -0.038671
     7  N    0.000000  -0.000012  -0.000017  -0.000017   0.000001   0.005604
     8  C   -0.000079   0.001103  -0.000024  -0.000022   0.000015   0.000199
     9  C    0.000000  -0.000012  -0.000000  -0.000000  -0.000000   0.000082
    10  O    0.000000  -0.000000  -0.000000  -0.000000   0.000000   0.000001
    11  C    0.000447   0.006152  -0.000034  -0.000035  -0.000176   0.011631
    12  H   -0.020803  -0.040431  -0.000747   0.001102   0.000272  -0.000011
    13  H    0.616880  -0.020794   0.000269   0.000266   0.004417  -0.000004
    14  H   -0.020794   0.641320   0.001092  -0.000747   0.000279  -0.000011
    15  H    0.000269   0.001092   0.640500  -0.040419  -0.020538  -0.001730
    16  H    0.000266  -0.000747  -0.040419   0.640583  -0.020576  -0.001722
    17  H    0.004417   0.000279  -0.020538  -0.020576   0.616076   0.000138
    18  H   -0.000004  -0.000011  -0.001730  -0.001722   0.000138   0.664970
    19  H   -0.000000  -0.000000   0.000004   0.000004  -0.000000  -0.007833
    20  H    0.000000  -0.000003  -0.000000   0.000000   0.000000  -0.000001
    21  H    0.000000  -0.000006   0.000000  -0.000000   0.000000  -0.000001
    22  H   -0.000000   0.000000   0.000000   0.000000  -0.000000  -0.000024
    23  H    0.000093  -0.001483  -0.000013  -0.000013  -0.000005  -0.000089
              19         20         21         22         23
     1  C    0.000009   0.000004   0.000004  -0.000000   0.012148
     2  N   -0.000111   0.000002   0.000002   0.000002  -0.014678
     3  C   -0.000047  -0.000000  -0.000000  -0.000000  -0.000072
     4  C    0.006642   0.000310   0.000227   0.000278  -0.057177
     5  C   -0.065347   0.000009   0.000014   0.000488   0.011953
     6  C    0.422684  -0.000208  -0.000216  -0.001447  -0.000461
     7  N   -0.039416   0.000307  -0.000137   0.055656   0.005655
     8  C    0.006419  -0.026834  -0.026336  -0.017564  -0.046034
     9  C   -0.000198   0.376121   0.374824  -0.053792  -0.005337
    10  O    0.000071  -0.035998  -0.035837   0.346471   0.000037
    11  C    0.001604   0.000055   0.000540   0.004058   0.427374
    12  H   -0.000000  -0.000006  -0.000003   0.000000  -0.001496
    13  H   -0.000000   0.000000   0.000000  -0.000000   0.000093
    14  H   -0.000000  -0.000003  -0.000006   0.000000  -0.001483
    15  H    0.000004  -0.000000   0.000000   0.000000  -0.000013
    16  H    0.000004   0.000000  -0.000000   0.000000  -0.000013
    17  H   -0.000000   0.000000   0.000000  -0.000000  -0.000005
    18  H   -0.007833  -0.000001  -0.000001  -0.000024  -0.000089
    19  H    0.645839   0.000014   0.000014  -0.000688   0.000050
    20  H    0.000014   0.710015  -0.051403   0.005653   0.001657
    21  H    0.000014  -0.051403   0.710818   0.005487   0.001503
    22  H   -0.000688   0.005653   0.005487   0.487116  -0.000152
    23  H    0.000050   0.001657   0.001503  -0.000152   0.671555
 Mulliken charges:
               1
     1  C    0.080805
     2  N   -0.376080
     3  C    0.077900
     4  C    0.250883
     5  C   -0.143433
     6  C    0.063331
     7  N   -0.214060
     8  C   -0.112441
     9  C    0.275108
    10  O   -0.332419
    11  C   -0.109138
    12  H    0.051139
    13  H    0.046169
    14  H    0.051142
    15  H    0.051629
    16  H    0.051601
    17  H    0.045838
    18  H    0.007478
    19  H    0.030288
    20  H    0.020308
    21  H    0.020505
    22  H    0.168460
    23  H   -0.005014
 Sum of Mulliken charges =  -0.00000
 Mulliken charges with hydrogens summed into heavy atoms:
               1
     1  C    0.229255
     2  N   -0.376080
     3  C    0.226968
     4  C    0.250883
     5  C   -0.135956
     6  C    0.093619
     7  N   -0.214060
     8  C   -0.112441
     9  C    0.315922
    10  O   -0.163958
    11  C   -0.114152
 Electronic spatial extent (au):  <R**2>=           2145.0878
 Charge=             -0.0000 electrons
 Dipole moment (field-independent basis, Debye):
    X=              6.4388    Y=             -0.5817    Z=              0.0152  Tot=              6.4651
 Quadrupole moment (field-independent basis, Debye-Ang):
   XX=            -72.3156   YY=            -58.9570   ZZ=            -68.2135
   XY=             -2.0004   XZ=             -0.0843   YZ=             -0.0163
 Traceless Quadrupole moment (field-independent basis, Debye-Ang):
   XX=             -5.8202   YY=              7.5384   ZZ=             -1.7181
   XY=             -2.0004   XZ=             -0.0843   YZ=             -0.0163
 Octapole moment (field-independent basis, Debye-Ang**2):
  XXX=            102.6485  YYY=              0.6519  ZZZ=             -0.0270  XYY=              1.4213
  XXY=              6.4171  XXZ=              0.2574  XZZ=             -3.7624  YZZ=             -2.8313
  YYZ=             -0.0355  XYZ=              0.0675
 Hexadecapole moment (field-independent basis, Debye-Ang**3):
 XXXX=          -2237.5201 YYYY=           -590.3804 ZZZZ=            -88.9729 XXXY=            -71.3067
 XXXZ=             -1.1208 YYYX=             -5.0767 YYYZ=              0.0729 ZZZX=              0.0487
 ZZZY=             -0.0224 XXYY=           -420.6427 XXZZ=           -362.5071 YYZZ=           -122.7192
 XXYZ=             -0.2290 YYXZ=              0.0857 ZZXY=              2.7560
 N-N= 6.073060341680D+02 E-N=-2.367388947772D+03  KE= 4.910810323583D+02
   1 Symmetry operations used in ECPInt.
 ECPInt:  NShTT=    5253 NPrTT=   18707 LenC2=    5071 LenP2D=   13852.
 LDataN:  DoStor=T MaxTD1= 5 Len=  102
 Calling FoFJK, ICntrl=      2127 FMM=F ISym2X=0 I1Cent= 0 IOpClX= 0 NMat=1 NMatS=1 NMatT=0.
 ***** Axes restored to original set *****
 -------------------------------------------------------------------
 Center     Atomic                   Forces (Hartrees/Bohr)
 Number     Number              X              Y              Z
 -------------------------------------------------------------------
      1        6           0.000010868    0.000019185    0.000002537
      2        7          -0.000000356   -0.000015337    0.000007477
      3        6           0.000013614   -0.000000659   -0.000002820
      4        6          -0.000012519    0.000000260   -0.000001854
      5        6          -0.000017842   -0.000008160   -0.000000397
      6        6           0.000033830   -0.000023241   -0.000000925
      7        7          -0.000019760    0.000011041   -0.000001137
      8        6          -0.000021454    0.000006142    0.000005158
      9        6           0.000000737   -0.000003833   -0.000004195
     10        8           0.000023703   -0.000019104   -0.000010906
     11        6           0.000010362    0.000010668   -0.000003891
     12        1           0.000000480   -0.000002134    0.000001387
     13        1          -0.000008946   -0.000002729   -0.000001713
     14        1           0.000005076   -0.000003431   -0.000005334
     15        1           0.000001563    0.000001421   -0.000002241
     16        1           0.000000876    0.000001281    0.000002346
     17        1          -0.000007777   -0.000006401    0.000001009
     18        1           0.000003990    0.000006271    0.000000370
     19        1          -0.000015250    0.000009241   -0.000000030
     20        1          -0.000000120    0.000004753    0.000004205
     21        1           0.000002495   -0.000005174    0.000000000
     22        1          -0.000001337    0.000021400    0.000010567
     23        1          -0.000002234   -0.000001461    0.000000388
 -------------------------------------------------------------------
 Cartesian Forces:  Max     0.000033830 RMS     0.000009978

 GradGradGradGradGradGradGradGradGradGradGradGradGradGradGradGradGradGrad
 Berny optimization.
 FormGI is forming the generalized inverse of G from B-inverse, IUseBI=4.
 Internal  Forces:  Max     0.000029961 RMS     0.000007094
 Search for a local minimum.
 Step number   1 out of a maximum of  116
 All quantities printed in internal units (Hartrees-Bohrs-Radians)
 Mixed Optimization -- En-DIIS/RFO-DIIS
 Second derivative matrix not updated -- first step.
 ITU=  0
     Eigenvalues ---    0.00503   0.01093   0.01097   0.01350   0.01516
     Eigenvalues ---    0.01882   0.01937   0.02021   0.02062   0.02095
     Eigenvalues ---    0.02120   0.02237   0.02383   0.02494   0.06088
     Eigenvalues ---    0.07232   0.07250   0.07525   0.07557   0.07562
     Eigenvalues ---    0.11673   0.14136   0.16000   0.16000   0.16000
     Eigenvalues ---    0.16000   0.16000   0.16000   0.16000   0.16000
     Eigenvalues ---    0.16000   0.16000   0.22036   0.22316   0.23477
     Eigenvalues ---    0.24564   0.25000   0.25000   0.25000   0.25000
     Eigenvalues ---    0.30376   0.32748   0.32782   0.33250   0.33253
     Eigenvalues ---    0.33258   0.33261   0.34096   0.34098   0.34226
     Eigenvalues ---    0.34811   0.34964   0.38871   0.38917   0.41322
     Eigenvalues ---    0.42105   0.45235   0.47846   0.48090   0.51430
     Eigenvalues ---    0.52571   0.56460   0.58083
 RFO step:  Lambda=-2.99425152D-08 EMin= 5.02680221D-03
 Linear search not attempted -- first point.
 Iteration  1 RMS(Cart)=  0.00014228 RMS(Int)=  0.00000002
 Iteration  2 RMS(Cart)=  0.00000002 RMS(Int)=  0.00000000
 Variable       Old X    -DE/DX   Delta X   Delta X   Delta X     New X
                                 (Linear)    (Quad)   (Total)
    R1        2.73052  -0.00001   0.00000  -0.00004  -0.00004   2.73048
    R2        2.08614   0.00000   0.00000   0.00001   0.00001   2.08615
    R3        2.07164   0.00001   0.00000   0.00003   0.00003   2.07167
    R4        2.08610   0.00001   0.00000   0.00002   0.00002   2.08612
    R5        2.73118  -0.00001   0.00000  -0.00002  -0.00002   2.73116
    R6        2.58450  -0.00001   0.00000  -0.00003  -0.00003   2.58447
    R7        2.08596   0.00000   0.00000   0.00001   0.00001   2.08597
    R8        2.08600   0.00000   0.00000   0.00001   0.00001   2.08601
    R9        2.07169   0.00001   0.00000   0.00003   0.00003   2.07172
   R10        2.67812  -0.00001   0.00000  -0.00002  -0.00002   2.67810
   R11        2.66433  -0.00000   0.00000  -0.00000  -0.00000   2.66432
   R12        2.61519   0.00000   0.00000   0.00001   0.00001   2.61520
   R13        2.05733   0.00000   0.00000   0.00000   0.00000   2.05734
   R14        2.52106  -0.00002   0.00000  -0.00003  -0.00003   2.52103
   R15        2.06950   0.00001   0.00000   0.00002   0.00002   2.06951
   R16        2.51529   0.00000   0.00000   0.00000   0.00000   2.51529
   R17        2.87220   0.00002   0.00000   0.00008   0.00008   2.87228
   R18        2.62982  -0.00000   0.00000  -0.00001  -0.00001   2.62981
   R19        2.61843   0.00002   0.00000   0.00004   0.00004   2.61847
   R20        2.09437   0.00000   0.00000   0.00000   0.00000   2.09437
   R21        2.09497   0.00000   0.00000   0.00001   0.00001   2.09498
   R22        1.84056   0.00002   0.00000   0.00004   0.00004   1.84060
   R23        2.05983   0.00000   0.00000   0.00001   0.00001   2.05984
    A1        1.95354   0.00000   0.00000   0.00001   0.00001   1.95355
    A2        1.91028  -0.00000   0.00000   0.00000   0.00000   1.91028
    A3        1.95349  -0.00000   0.00000  -0.00001  -0.00001   1.95348
    A4        1.88041  -0.00000   0.00000   0.00000   0.00000   1.88041
    A5        1.88286  -0.00000   0.00000  -0.00000  -0.00000   1.88286
    A6        1.88038   0.00000   0.00000  -0.00000  -0.00000   1.88038
    A7        2.09698   0.00001   0.00000   0.00004   0.00004   2.09702
    A8        2.09126   0.00000   0.00000   0.00002   0.00002   2.09128
    A9        2.09494  -0.00001   0.00000  -0.00005  -0.00005   2.09489
   A10        1.95448  -0.00000   0.00000  -0.00001  -0.00001   1.95447
   A11        1.95462  -0.00000   0.00000  -0.00001  -0.00001   1.95461
   A12        1.90901   0.00000   0.00000   0.00001   0.00001   1.90902
   A13        1.88389   0.00000   0.00000  -0.00001  -0.00001   1.88388
   A14        1.87937   0.00000   0.00000   0.00002   0.00002   1.87938
   A15        1.87947   0.00000   0.00000   0.00001   0.00001   1.87948
   A16        2.12606  -0.00000   0.00000  -0.00001  -0.00001   2.12605
   A17        2.13012   0.00001   0.00000   0.00002   0.00002   2.13014
   A18        2.02701  -0.00000   0.00000  -0.00002  -0.00002   2.02700
   A19        2.08032  -0.00000   0.00000  -0.00001  -0.00001   2.08031
   A20        2.12512   0.00001   0.00000   0.00006   0.00006   2.12518
   A21        2.07774  -0.00001   0.00000  -0.00005  -0.00005   2.07770
   A22        2.16609   0.00001   0.00000   0.00003   0.00003   2.16612
   A23        2.08524  -0.00002   0.00000  -0.00011  -0.00011   2.08512
   A24        2.03186   0.00001   0.00000   0.00009   0.00009   2.03195
   A25        2.04894  -0.00000   0.00000  -0.00001  -0.00001   2.04893
   A26        2.00208   0.00001   0.00000   0.00005   0.00005   2.00213
   A27        2.15623  -0.00000   0.00000  -0.00002  -0.00002   2.15621
   A28        2.12487  -0.00001   0.00000  -0.00003  -0.00003   2.12483
   A29        1.95001   0.00003   0.00000   0.00014   0.00014   1.95016
   A30        1.88886  -0.00001   0.00000  -0.00005  -0.00005   1.88881
   A31        1.88710  -0.00001   0.00000  -0.00001  -0.00001   1.88710
   A32        1.93972  -0.00001   0.00000  -0.00005  -0.00005   1.93966
   A33        1.94088  -0.00001   0.00000  -0.00002  -0.00002   1.94086
   A34        1.85353   0.00000   0.00000  -0.00002  -0.00002   1.85351
   A35        1.82503   0.00001   0.00000   0.00006   0.00006   1.82509
   A36        2.08777   0.00001   0.00000   0.00003   0.00003   2.08780
   A37        2.12282  -0.00001   0.00000  -0.00003  -0.00003   2.12279
   A38        2.07259  -0.00000   0.00000   0.00000   0.00000   2.07260
    D1       -2.08247  -0.00000   0.00000   0.00003   0.00003  -2.08244
    D2        1.05772   0.00000   0.00000   0.00018   0.00018   1.05791
    D3        0.00101   0.00000   0.00000   0.00005   0.00005   0.00106
    D4        3.14120   0.00000   0.00000   0.00020   0.00020   3.14140
    D5        2.08443   0.00000   0.00000   0.00004   0.00004   2.08447
    D6       -1.05857   0.00000   0.00000   0.00019   0.00019  -1.05838
    D7       -2.08368  -0.00000   0.00000   0.00007   0.00007  -2.08361
    D8        2.08039   0.00000   0.00000   0.00010   0.00010   2.08049
    D9       -0.00176   0.00000   0.00000   0.00010   0.00010  -0.00166
   D10        1.05931  -0.00000   0.00000  -0.00008  -0.00008   1.05924
   D11       -1.05980  -0.00000   0.00000  -0.00005  -0.00005  -1.05984
   D12        3.14124  -0.00000   0.00000  -0.00005  -0.00005   3.14119
   D13       -3.14067  -0.00000   0.00000  -0.00013  -0.00013  -3.14081
   D14        0.00066  -0.00000   0.00000  -0.00009  -0.00009   0.00057
   D15       -0.00048  -0.00000   0.00000   0.00002   0.00002  -0.00047
   D16        3.14085   0.00000   0.00000   0.00006   0.00006   3.14091
   D17        3.14133   0.00000   0.00000   0.00006   0.00006   3.14139
   D18        0.00000   0.00000   0.00000   0.00004   0.00004   0.00004
   D19       -0.00002   0.00000   0.00000   0.00002   0.00002   0.00000
   D20       -3.14135  -0.00000   0.00000  -0.00000  -0.00000  -3.14135
   D21       -3.14152  -0.00000   0.00000  -0.00002  -0.00002  -3.14154
   D22       -0.00012  -0.00000   0.00000  -0.00004  -0.00004  -0.00016
   D23       -0.00018   0.00000   0.00000   0.00002   0.00002  -0.00016
   D24        3.14123  -0.00000   0.00000   0.00000   0.00000   3.14123
   D25        0.00021  -0.00000   0.00000  -0.00003  -0.00003   0.00018
   D26       -3.14138  -0.00000   0.00000  -0.00002  -0.00002  -3.14140
   D27        3.14155  -0.00000   0.00000  -0.00001  -0.00001   3.14154
   D28       -0.00004   0.00000   0.00000   0.00000   0.00000  -0.00004
   D29       -0.00019  -0.00000   0.00000  -0.00001  -0.00001  -0.00020
   D30        3.14140  -0.00000   0.00000  -0.00002  -0.00002   3.14139
   D31        3.14011  -0.00000   0.00000  -0.00002  -0.00002   3.14009
   D32       -0.00003   0.00000   0.00000   0.00005   0.00005   0.00003
   D33        0.01287   0.00000   0.00000  -0.00011  -0.00011   0.01276
   D34        2.15397   0.00000   0.00000  -0.00012  -0.00012   2.15385
   D35       -2.12849  -0.00000   0.00000  -0.00018  -0.00018  -2.12867
   D36       -3.13015  -0.00000   0.00000  -0.00019  -0.00019  -3.13034
   D37       -0.98905   0.00000   0.00000  -0.00020  -0.00020  -0.98925
   D38        1.01168  -0.00000   0.00000  -0.00025  -0.00025   1.01142
   D39        0.00021  -0.00000   0.00000  -0.00006  -0.00006   0.00015
   D40       -3.14120  -0.00000   0.00000  -0.00004  -0.00004  -3.14125
   D41       -3.13983   0.00000   0.00000   0.00002   0.00002  -3.13981
   D42        0.00195   0.00000   0.00000   0.00004   0.00004   0.00198
   D43       -0.01338   0.00000   0.00000   0.00030   0.00030  -0.01307
   D44       -2.12518   0.00000   0.00000   0.00031   0.00031  -2.12487
   D45        2.09699   0.00001   0.00000   0.00038   0.00038   2.09738
         Item               Value     Threshold  Converged?
 Maximum Force            0.000030     0.000450     YES
 RMS     Force            0.000007     0.000300     YES
 Maximum Displacement     0.000642     0.001800     YES
 RMS     Displacement     0.000142     0.001200     YES
 Predicted change in Energy=-1.497129D-08
 Optimization completed.
    -- Stationary point found.
                           ----------------------------
                           !   Optimized Parameters   !
                           ! (Angstroms and Degrees)  !
 --------------------------                            --------------------------
 ! Name  Definition              Value          Derivative Info.                !
 --------------------------------------------------------------------------------
 ! R1    R(1,2)                  1.4449         -DE/DX =    0.0                 !
 ! R2    R(1,12)                 1.1039         -DE/DX =    0.0                 !
 ! R3    R(1,13)                 1.0963         -DE/DX =    0.0                 !
 ! R4    R(1,14)                 1.1039         -DE/DX =    0.0                 !
 ! R5    R(2,3)                  1.4453         -DE/DX =    0.0                 !
 ! R6    R(2,4)                  1.3677         -DE/DX =    0.0                 !
 ! R7    R(3,15)                 1.1038         -DE/DX =    0.0                 !
 ! R8    R(3,16)                 1.1039         -DE/DX =    0.0                 !
 ! R9    R(3,17)                 1.0963         -DE/DX =    0.0                 !
 ! R10   R(4,5)                  1.4172         -DE/DX =    0.0                 !
 ! R11   R(4,11)                 1.4099         -DE/DX =    0.0                 !
 ! R12   R(5,6)                  1.3839         -DE/DX =    0.0                 !
 ! R13   R(5,18)                 1.0887         -DE/DX =    0.0                 !
 ! R14   R(6,7)                  1.3341         -DE/DX =    0.0                 !
 ! R15   R(6,19)                 1.0951         -DE/DX =    0.0                 !
 ! R16   R(7,8)                  1.331          -DE/DX =    0.0                 !
 ! R17   R(8,9)                  1.5199         -DE/DX =    0.0                 !
 ! R18   R(8,11)                 1.3916         -DE/DX =    0.0                 !
 ! R19   R(9,10)                 1.3856         -DE/DX =    0.0                 !
 ! R20   R(9,20)                 1.1083         -DE/DX =    0.0                 !
 ! R21   R(9,21)                 1.1086         -DE/DX =    0.0                 !
 ! R22   R(10,22)                0.974          -DE/DX =    0.0                 !
 ! R23   R(11,23)                1.09           -DE/DX =    0.0                 !
 ! A1    A(2,1,12)             111.9295         -DE/DX =    0.0                 !
 ! A2    A(2,1,13)             109.4511         -DE/DX =    0.0                 !
 ! A3    A(2,1,14)             111.9266         -DE/DX =    0.0                 !
 ! A4    A(12,1,13)            107.7396         -DE/DX =    0.0                 !
 ! A5    A(12,1,14)            107.8799         -DE/DX =    0.0                 !
 ! A6    A(13,1,14)            107.7381         -DE/DX =    0.0                 !
 ! A7    A(1,2,3)              120.1481         -DE/DX =    0.0                 !
 ! A8    A(1,2,4)              119.8206         -DE/DX =    0.0                 !
 ! A9    A(3,2,4)              120.0313         -DE/DX =    0.0                 !
 ! A10   A(2,3,15)             111.9834         -DE/DX =    0.0                 !
 ! A11   A(2,3,16)             111.9916         -DE/DX =    0.0                 !
 ! A12   A(2,3,17)             109.3781         -DE/DX =    0.0                 !
 ! A13   A(15,3,16)            107.9389         -DE/DX =    0.0                 !
 ! A14   A(15,3,17)            107.6797         -DE/DX =    0.0                 !
 ! A15   A(16,3,17)            107.6858         -DE/DX =    0.0                 !
 ! A16   A(2,4,5)              121.814          -DE/DX =    0.0                 !
 ! A17   A(2,4,11)             122.0467         -DE/DX =    0.0                 !
 ! A18   A(5,4,11)             116.1393         -DE/DX =    0.0                 !
 ! A19   A(4,5,6)              119.1936         -DE/DX =    0.0                 !
 ! A20   A(4,5,18)             121.7604         -DE/DX =    0.0                 !
 ! A21   A(6,5,18)             119.0459         -DE/DX =    0.0                 !
 ! A22   A(5,6,7)              124.1079         -DE/DX =    0.0                 !
 ! A23   A(5,6,19)             119.4752         -DE/DX =    0.0                 !
 ! A24   A(7,6,19)             116.4169         -DE/DX =    0.0                 !
 ! A25   A(6,7,8)              117.3955         -DE/DX =    0.0                 !
 ! A26   A(7,8,9)              114.711          -DE/DX =    0.0                 !
 ! A27   A(7,8,11)             123.543          -DE/DX =    0.0                 !
 ! A28   A(9,8,11)             121.746          -DE/DX =    0.0                 !
 ! A29   A(8,9,10)             111.7276         -DE/DX =    0.0                 !
 ! A30   A(8,9,20)             108.2235         -DE/DX =    0.0                 !
 ! A31   A(8,9,21)             108.1231         -DE/DX =    0.0                 !
 ! A32   A(10,9,20)            111.1375         -DE/DX =    0.0                 !
 ! A33   A(10,9,21)            111.2041         -DE/DX =    0.0                 !
 ! A34   A(20,9,21)            106.1996         -DE/DX =    0.0                 !
 ! A35   A(9,10,22)            104.5664         -DE/DX =    0.0                 !
 ! A36   A(4,11,8)             119.6206         -DE/DX =    0.0                 !
 ! A37   A(4,11,23)            121.6285         -DE/DX =    0.0                 !
 ! A38   A(8,11,23)            118.7509         -DE/DX =    0.0                 !
 ! D1    D(12,1,2,3)          -119.3166         -DE/DX =    0.0                 !
 ! D2    D(12,1,2,4)            60.6031         -DE/DX =    0.0                 !
 ! D3    D(13,1,2,3)             0.058          -DE/DX =    0.0                 !
 ! D4    D(13,1,2,4)           179.9777         -DE/DX =    0.0                 !
 ! D5    D(14,1,2,3)           119.4289         -DE/DX =    0.0                 !
 ! D6    D(14,1,2,4)           -60.6513         -DE/DX =    0.0                 !
 ! D7    D(1,2,3,15)          -119.3861         -DE/DX =    0.0                 !
 ! D8    D(1,2,3,16)           119.1978         -DE/DX =    0.0                 !
 ! D9    D(1,2,3,17)            -0.1006         -DE/DX =    0.0                 !
 ! D10   D(4,2,3,15)            60.6943         -DE/DX =    0.0                 !
 ! D11   D(4,2,3,16)           -60.7218         -DE/DX =    0.0                 !
 ! D12   D(4,2,3,17)           179.9799         -DE/DX =    0.0                 !
 ! D13   D(1,2,4,5)           -179.9474         -DE/DX =    0.0                 !
 ! D14   D(1,2,4,11)             0.0378         -DE/DX =    0.0                 !
 ! D15   D(3,2,4,5)             -0.0276         -DE/DX =    0.0                 !
 ! D16   D(3,2,4,11)           179.9576         -DE/DX =    0.0                 !
 ! D17   D(2,4,5,6)            179.9849         -DE/DX =    0.0                 !
 ! D18   D(2,4,5,18)             0.0            -DE/DX =    0.0                 !
 ! D19   D(11,4,5,6)            -0.0011         -DE/DX =    0.0                 !
 ! D20   D(11,4,5,18)         -179.986          -DE/DX =    0.0                 !
 ! D21   D(2,4,11,8)          -179.996          -DE/DX =    0.0                 !
 ! D22   D(2,4,11,23)           -0.0067         -DE/DX =    0.0                 !
 ! D23   D(5,4,11,8)            -0.01           -DE/DX =    0.0                 !
 ! D24   D(5,4,11,23)          179.9793         -DE/DX =    0.0                 !
 ! D25   D(4,5,6,7)              0.0121         -DE/DX =    0.0                 !
 ! D26   D(4,5,6,19)          -179.9877         -DE/DX =    0.0                 !
 ! D27   D(18,5,6,7)           179.9974         -DE/DX =    0.0                 !
 ! D28   D(18,5,6,19)           -0.0024         -DE/DX =    0.0                 !
 ! D29   D(5,6,7,8)             -0.0108         -DE/DX =    0.0                 !
 ! D30   D(19,6,7,8)           179.989          -DE/DX =    0.0                 !
 ! D31   D(6,7,8,9)            179.915          -DE/DX =    0.0                 !
 ! D32   D(6,7,8,11)            -0.0015         -DE/DX =    0.0                 !
 ! D33   D(7,8,9,10)             0.7375         -DE/DX =    0.0                 !
 ! D34   D(7,8,9,20)           123.4135         -DE/DX =    0.0                 !
 ! D35   D(7,8,9,21)          -121.9534         -DE/DX =    0.0                 !
 ! D36   D(11,8,9,10)         -179.3444         -DE/DX =    0.0                 !
 ! D37   D(11,8,9,20)          -56.6684         -DE/DX =    0.0                 !
 ! D38   D(11,8,9,21)           57.9647         -DE/DX =    0.0                 !
 ! D39   D(7,8,11,4)             0.012          -DE/DX =    0.0                 !
 ! D40   D(7,8,11,23)         -179.9777         -DE/DX =    0.0                 !
 ! D41   D(9,8,11,4)          -179.8988         -DE/DX =    0.0                 !
 ! D42   D(9,8,11,23)            0.1115         -DE/DX =    0.0                 !
 ! D43   D(8,9,10,22)           -0.7664         -DE/DX =    0.0                 !
 ! D44   D(20,9,10,22)        -121.7636         -DE/DX =    0.0                 !
 ! D45   D(21,9,10,22)         120.1488         -DE/DX =    0.0                 !
 --------------------------------------------------------------------------------
 GradGradGradGradGradGradGradGradGradGradGradGradGradGradGradGradGradGrad

                          Input orientation:                          
 ---------------------------------------------------------------------
 Center     Atomic      Atomic             Coordinates (Angstroms)
 Number     Number       Type             X           Y           Z
 ---------------------------------------------------------------------
      1          6           0       -2.518380   -1.756790    0.001290
      2          7           0       -2.260380   -0.335080    0.000230
      3          6           0       -3.360460    0.602280    0.001860
      4          6           0       -0.971450    0.122240   -0.000660
      5          6           0       -0.670050    1.507020   -0.000610
      6          6           0        0.653980    1.909660   -0.001220
      7          7           0        1.691090    1.070500   -0.002100
      8          6           0        1.423860   -0.233430   -0.002180
      9          6           0        2.648900   -1.133080   -0.005250
     10          8           0        3.824200   -0.399330    0.009170
     11          6           0        0.133200   -0.753870   -0.001370
     12          1           0       -2.097000   -2.251610    0.893630
     13          1           0       -3.600650   -1.931410    0.002300
     14          1           0       -2.098540   -2.252600   -0.891200
     15          1           0       -3.350860    1.252210   -0.890310
     16          1           0       -3.349620    1.250800    0.895070
     17          1           0       -4.308070    0.051020    0.002010
     18          1           0       -1.452670    2.263830    0.000140
     19          1           0        0.892140    2.978580   -0.000980
     20          1           0        2.587000   -1.805910    0.873260
     21          1           0        2.594880   -1.786180   -0.899430
     22          1           0        3.532830    0.530040    0.005070
     23          1           0        0.004330   -1.836240   -0.001130
 ---------------------------------------------------------------------
                    Distance matrix (angstroms):
                    1          2          3          4          5
     1  C    0.000000
     2  N    1.444931   0.000000
     3  C    2.504857   1.445276   0.000000
     4  C    2.433876   1.367656   2.436763   0.000000
     5  C    3.750838   2.433615   2.838462   1.417201   0.000000
     6  C    4.848374   3.678635   4.221964   2.415966   1.383898
     7  N    5.070820   4.194017   5.073204   2.826361   2.401153
     8  C    4.226333   3.685643   4.856763   2.421573   2.722798
     9  C    5.204790   4.973717   6.254913   3.831812   4.240941
    10  O    6.486222   6.084926   7.254145   4.823939   4.881859
    11  C    2.834913   2.429941   3.747641   1.409901   2.399340
    12  H    1.103938   2.120836   3.245963   2.775208   4.118635
    13  H    1.096267   2.084370   2.545049   3.336192   4.517878
    14  H    1.103916   2.120783   3.246589   2.775474   4.119281
    15  H    3.246853   2.121720   1.103843   2.780270   2.836060
    16  H    3.245828   2.121838   1.103866   2.780589   2.836897
    17  H    2.543849   2.083773   1.096290   3.337381   3.918563
    18  H    4.159462   2.721531   2.529904   2.194990   1.088695
    19  H    5.835699   4.573699   4.871490   3.410520   2.146142
    20  H    5.179541   5.140293   6.475415   4.140539   4.727317
    21  H    5.192070   5.146711   6.479440   4.143497   4.723644
    22  H    6.468906   5.857452   6.893669   4.522706   4.314942
    23  H    2.523962   2.717056   4.155502   2.188102   3.410598
                    6          7          8          9         10
     6  C    0.000000
     7  N    1.334087   0.000000
     8  C    2.277180   1.331032   0.000000
     9  C    3.638405   2.402743   1.519902   0.000000
    10  O    3.921969   2.590499   2.406093   1.385614   0.000000
    11  C    2.713965   2.399031   1.391640   2.544123   3.708004
    12  H    5.068019   5.117458   4.155957   4.958091   6.266883
    13  H    5.731990   6.083913   5.303664   6.300338   7.581274
    14  H    5.068810   5.118084   4.156285   4.957461   6.270895
    15  H    4.154692   5.122811   5.078765   6.516906   7.417421
    16  H    4.155267   5.123103   5.078790   6.517339   7.414273
    17  H    5.298726   6.085169   5.738985   7.057023   8.144733
    18  H    2.136215   3.362628   3.809296   5.325589   5.910826
    19  H    1.095130   2.068597   3.255724   4.471238   4.472958
    20  H    4.278638   3.137299   2.142891   1.108292   2.062955
    21  H    4.270024   3.127724   2.141817   1.108610   2.064009
    22  H    3.192361   1.919415   2.242921   1.883456   0.973982
    23  H    3.801817   3.360699   2.141043   2.736458   4.081204
                   11         12         13         14         15
    11  C    0.000000
    12  H    2.831615   0.000000
    13  H    3.915131   1.777065   0.000000
    14  H    2.831723   1.784831   1.777031   0.000000
    15  H    4.117432   4.126907   3.315808   3.721827   0.000000
    16  H    4.117322   3.719669   3.314591   4.126715   1.785381
    17  H    4.513617   3.314502   2.104869   3.314591   1.776329
    18  H    3.409032   4.647869   4.713158   4.648632   2.327961
    19  H    3.808828   6.090170   6.655312   6.091133   4.666295
    20  H    2.809431   4.705201   6.249907   5.026643   6.908000
    21  H    2.816388   5.044346   6.262492   4.716546   6.677104
    22  H    3.633999   6.342090   7.546210   6.344975   6.979142
    23  H    1.090015   2.321361   3.606238   2.321130   4.646124
                   16         17         18         19         20
    16  H    0.000000
    17  H    1.776416   0.000000
    18  H    2.329281   3.612456   0.000000
    19  H    4.666975   5.967646   2.451327   0.000000
    20  H    6.677380   7.193696   5.800350   5.150552   0.000000
    21  H    6.912348   7.199904   5.796074   5.139015   1.772817
    22  H    6.977085   7.855519   5.278377   3.601198   2.665523
    23  H    4.645640   4.707287   4.351256   4.895988   2.726841
                   21         22         23
    21  H    0.000000
    22  H    2.657583   0.000000
    23  H    2.742334   4.248486   0.000000
 Stoichiometry    C8H12N2O
 Framework group  C1[X(C8H12N2O)]
 Deg. of freedom    63
 Full point group                 C1      NOp   1
 Largest Abelian subgroup         C1      NOp   1
 Largest concise Abelian subgroup C1      NOp   1
                         Standard orientation:                         
 ---------------------------------------------------------------------
 Center     Atomic      Atomic             Coordinates (Angstroms)
 Number     Number       Type             X           Y           Z
 ---------------------------------------------------------------------
      1          6           0        2.518380   -1.756789   -0.001292
      2          7           0        2.260379   -0.335080   -0.000232
      3          6           0        3.360459    0.602281   -0.001862
      4          6           0        0.971449    0.122240    0.000658
      5          6           0        0.670049    1.507020    0.000608
      6          6           0       -0.653981    1.909660    0.001218
      7          7           0       -1.691091    1.070499    0.002098
      8          6           0       -1.423861   -0.233430    0.002178
      9          6           0       -2.648900   -1.133081    0.005248
     10          8           0       -3.824201   -0.399331   -0.009172
     11          6           0       -0.133201   -0.753870    0.001368
     12          1           0        2.097000   -2.251610   -0.893632
     13          1           0        3.600650   -1.931409   -0.002302
     14          1           0        2.098540   -2.252600    0.891198
     15          1           0        3.350859    1.252211    0.890308
     16          1           0        3.349619    1.250801   -0.895072
     17          1           0        4.308069    0.051021   -0.002012
     18          1           0        1.452669    2.263830   -0.000142
     19          1           0       -0.892142    2.978580    0.000978
     20          1           0       -2.587000   -1.805911   -0.873262
     21          1           0       -2.594880   -1.786181    0.899428
     22          1           0       -3.532831    0.530039   -0.005072
     23          1           0       -0.004330   -1.836240    0.001128
 ---------------------------------------------------------------------
 Rotational constants (GHZ):           2.5045842           0.6445463           0.5176622
 Unable to Open any file for archive entry.
 1\1\GINC-NOTCH224\FOpt\RwB97XD\def2SVP\C8H12N2O1\U6053008\12-Jul-2024\
 0\\#N OPT FREQ=NORAMAN Integral(Ultrafine) wB97XD def2SVP\\12300592_1\
 \0,1\C,-2.51838,-1.75679,0.00129\N,-2.26038,-0.33508,0.00023\C,-3.3604
 6,0.60228,0.00186\C,-0.97145,0.12224,-0.00066\C,-0.67005,1.50702,-0.00
 061\C,0.65398,1.90966,-0.00122\N,1.69109,1.0705,-0.0021\C,1.42386,-0.2
 3343,-0.00218\C,2.6489,-1.13308,-0.00525\O,3.8242,-0.39933,0.00917\C,0
 .1332,-0.75387,-0.00137\H,-2.097,-2.25161,0.89363\H,-3.60065,-1.93141,
 0.0023\H,-2.09854,-2.2526,-0.8912\H,-3.35086,1.25221,-0.89031\H,-3.349
 62,1.2508,0.89507\H,-4.30807,0.05102,0.00201\H,-1.45267,2.26383,0.0001
 4\H,0.89214,2.97858,-0.00098\H,2.587,-1.80591,0.87326\H,2.59488,-1.786
 18,-0.89943\H,3.53283,0.53004,0.00507\H,0.00433,-1.83624,-0.00113\\Ver
 sion=ES64L-G16RevC.01\State=1-A\HF=-496.2764542\RMSD=5.443e-09\RMSF=9.
 978e-06\Dipole=-2.5332255,-0.2288469,-0.0059692\Quadrupole=-4.3271995,
 5.6045883,-1.2773888,1.4872528,-0.0626995,0.0121032\PG=C01 [X(C8H12N2O
 1)]\\@
 The archive entry for this job was punched.


 FORGIVE MY NONSENSE AS I ALSO FORGIVE THOSE WHO THINK THEY TALK SENSE

                                                       -- ROBERT FROST
 Job cpu time:       0 days  0 hours  7 minutes 19.3 seconds.
 Elapsed time:       0 days  0 hours  0 minutes 28.0 seconds.
 File lengths (MBytes):  RWF=     40 Int=      0 D2E=      0 Chk=      5 Scr=      2
 Normal termination of Gaussian 16 at Fri Jul 12 13:08:10 2024.
 Link1:  Proceeding to internal job step number  2.
 --------------------------------------------------------------------
 #N Geom=AllCheck Guess=TCheck SCRF=Check GenChk RwB97XD/def2SVP Freq
 --------------------------------------------------------------------
 1/10=4,29=7,30=1,38=1,40=1/1,3;
 2/12=2,40=1/2;
 3/5=43,7=101,11=2,14=-4,25=1,30=1,70=2,71=2,74=-58,75=-5,116=1,140=1/1,2,3;
 4/5=101/1;
 5/5=2,38=6,98=1/2;
 8/6=4,10=90,11=11/1;
 11/6=1,8=1,9=11,15=111,16=1/1,2,10;
 10/6=1/2;
 6/7=2,8=2,9=2,10=2,28=1/1;
 7/8=1,10=1,25=1/1,2,3,16;
 1/10=4,30=1/3;
 99//99;
 Structure from the checkpoint file:  "12300592_1.chk"
 ----------
 12300592_1
 ----------
 Charge =  0 Multiplicity = 1
 Redundant internal coordinates found in file.  (old form).
 C,0,-2.51838,-1.75679,0.00129
 N,0,-2.26038,-0.33508,0.00023
 C,0,-3.36046,0.60228,0.00186
 C,0,-0.97145,0.12224,-0.00066
 C,0,-0.67005,1.50702,-0.00061
 C,0,0.65398,1.90966,-0.00122
 N,0,1.69109,1.0705,-0.0021
 C,0,1.42386,-0.23343,-0.00218
 C,0,2.6489,-1.13308,-0.00525
 O,0,3.8242,-0.39933,0.00917
 C,0,0.1332,-0.75387,-0.00137
 H,0,-2.097,-2.25161,0.89363
 H,0,-3.60065,-1.93141,0.0023
 H,0,-2.09854,-2.2526,-0.8912
 H,0,-3.35086,1.25221,-0.89031
 H,0,-3.34962,1.2508,0.89507
 H,0,-4.30807,0.05102,0.00201
 H,0,-1.45267,2.26383,0.00014
 H,0,0.89214,2.97858,-0.00098
 H,0,2.587,-1.80591,0.87326
 H,0,2.59488,-1.78618,-0.89943
 H,0,3.53283,0.53004,0.00507
 H,0,0.00433,-1.83624,-0.00113
 Recover connectivity data from disk.

 GradGradGradGradGradGradGradGradGradGradGradGradGradGradGradGradGradGrad
 Berny optimization.
 Initialization pass.
                           ----------------------------
                           !    Initial Parameters    !
                           ! (Angstroms and Degrees)  !
 --------------------------                            --------------------------
 ! Name  Definition              Value          Derivative Info.                !
 --------------------------------------------------------------------------------
 ! R1    R(1,2)                  1.4449         calculate D2E/DX2 analytically  !
 ! R2    R(1,12)                 1.1039         calculate D2E/DX2 analytically  !
 ! R3    R(1,13)                 1.0963         calculate D2E/DX2 analytically  !
 ! R4    R(1,14)                 1.1039         calculate D2E/DX2 analytically  !
 ! R5    R(2,3)                  1.4453         calculate D2E/DX2 analytically  !
 ! R6    R(2,4)                  1.3677         calculate D2E/DX2 analytically  !
 ! R7    R(3,15)                 1.1038         calculate D2E/DX2 analytically  !
 ! R8    R(3,16)                 1.1039         calculate D2E/DX2 analytically  !
 ! R9    R(3,17)                 1.0963         calculate D2E/DX2 analytically  !
 ! R10   R(4,5)                  1.4172         calculate D2E/DX2 analytically  !
 ! R11   R(4,11)                 1.4099         calculate D2E/DX2 analytically  !
 ! R12   R(5,6)                  1.3839         calculate D2E/DX2 analytically  !
 ! R13   R(5,18)                 1.0887         calculate D2E/DX2 analytically  !
 ! R14   R(6,7)                  1.3341         calculate D2E/DX2 analytically  !
 ! R15   R(6,19)                 1.0951         calculate D2E/DX2 analytically  !
 ! R16   R(7,8)                  1.331          calculate D2E/DX2 analytically  !
 ! R17   R(8,9)                  1.5199         calculate D2E/DX2 analytically  !
 ! R18   R(8,11)                 1.3916         calculate D2E/DX2 analytically  !
 ! R19   R(9,10)                 1.3856         calculate D2E/DX2 analytically  !
 ! R20   R(9,20)                 1.1083         calculate D2E/DX2 analytically  !
 ! R21   R(9,21)                 1.1086         calculate D2E/DX2 analytically  !
 ! R22   R(10,22)                0.974          calculate D2E/DX2 analytically  !
 ! R23   R(11,23)                1.09           calculate D2E/DX2 analytically  !
 ! A1    A(2,1,12)             111.9295         calculate D2E/DX2 analytically  !
 ! A2    A(2,1,13)             109.4511         calculate D2E/DX2 analytically  !
 ! A3    A(2,1,14)             111.9266         calculate D2E/DX2 analytically  !
 ! A4    A(12,1,13)            107.7396         calculate D2E/DX2 analytically  !
 ! A5    A(12,1,14)            107.8799         calculate D2E/DX2 analytically  !
 ! A6    A(13,1,14)            107.7381         calculate D2E/DX2 analytically  !
 ! A7    A(1,2,3)              120.1481         calculate D2E/DX2 analytically  !
 ! A8    A(1,2,4)              119.8206         calculate D2E/DX2 analytically  !
 ! A9    A(3,2,4)              120.0313         calculate D2E/DX2 analytically  !
 ! A10   A(2,3,15)             111.9834         calculate D2E/DX2 analytically  !
 ! A11   A(2,3,16)             111.9916         calculate D2E/DX2 analytically  !
 ! A12   A(2,3,17)             109.3781         calculate D2E/DX2 analytically  !
 ! A13   A(15,3,16)            107.9389         calculate D2E/DX2 analytically  !
 ! A14   A(15,3,17)            107.6797         calculate D2E/DX2 analytically  !
 ! A15   A(16,3,17)            107.6858         calculate D2E/DX2 analytically  !
 ! A16   A(2,4,5)              121.814          calculate D2E/DX2 analytically  !
 ! A17   A(2,4,11)             122.0467         calculate D2E/DX2 analytically  !
 ! A18   A(5,4,11)             116.1393         calculate D2E/DX2 analytically  !
 ! A19   A(4,5,6)              119.1936         calculate D2E/DX2 analytically  !
 ! A20   A(4,5,18)             121.7604         calculate D2E/DX2 analytically  !
 ! A21   A(6,5,18)             119.0459         calculate D2E/DX2 analytically  !
 ! A22   A(5,6,7)              124.1079         calculate D2E/DX2 analytically  !
 ! A23   A(5,6,19)             119.4752         calculate D2E/DX2 analytically  !
 ! A24   A(7,6,19)             116.4169         calculate D2E/DX2 analytically  !
 ! A25   A(6,7,8)              117.3955         calculate D2E/DX2 analytically  !
 ! A26   A(7,8,9)              114.711          calculate D2E/DX2 analytically  !
 ! A27   A(7,8,11)             123.543          calculate D2E/DX2 analytically  !
 ! A28   A(9,8,11)             121.746          calculate D2E/DX2 analytically  !
 ! A29   A(8,9,10)             111.7276         calculate D2E/DX2 analytically  !
 ! A30   A(8,9,20)             108.2235         calculate D2E/DX2 analytically  !
 ! A31   A(8,9,21)             108.1231         calculate D2E/DX2 analytically  !
 ! A32   A(10,9,20)            111.1375         calculate D2E/DX2 analytically  !
 ! A33   A(10,9,21)            111.2041         calculate D2E/DX2 analytically  !
 ! A34   A(20,9,21)            106.1996         calculate D2E/DX2 analytically  !
 ! A35   A(9,10,22)            104.5664         calculate D2E/DX2 analytically  !
 ! A36   A(4,11,8)             119.6206         calculate D2E/DX2 analytically  !
 ! A37   A(4,11,23)            121.6285         calculate D2E/DX2 analytically  !
 ! A38   A(8,11,23)            118.7509         calculate D2E/DX2 analytically  !
 ! D1    D(12,1,2,3)          -119.3166         calculate D2E/DX2 analytically  !
 ! D2    D(12,1,2,4)            60.6031         calculate D2E/DX2 analytically  !
 ! D3    D(13,1,2,3)             0.058          calculate D2E/DX2 analytically  !
 ! D4    D(13,1,2,4)           179.9777         calculate D2E/DX2 analytically  !
 ! D5    D(14,1,2,3)           119.4289         calculate D2E/DX2 analytically  !
 ! D6    D(14,1,2,4)           -60.6513         calculate D2E/DX2 analytically  !
 ! D7    D(1,2,3,15)          -119.3861         calculate D2E/DX2 analytically  !
 ! D8    D(1,2,3,16)           119.1978         calculate D2E/DX2 analytically  !
 ! D9    D(1,2,3,17)            -0.1006         calculate D2E/DX2 analytically  !
 ! D10   D(4,2,3,15)            60.6943         calculate D2E/DX2 analytically  !
 ! D11   D(4,2,3,16)           -60.7218         calculate D2E/DX2 analytically  !
 ! D12   D(4,2,3,17)           179.9799         calculate D2E/DX2 analytically  !
 ! D13   D(1,2,4,5)           -179.9474         calculate D2E/DX2 analytically  !
[...]
 Alpha virt. eigenvalues --    1.32049   1.33412   1.33808   1.35416   1.35898
 Alpha virt. eigenvalues --    1.37763   1.38999   1.42120   1.42904   1.46041
 Alpha virt. eigenvalues --    1.50625   1.51226   1.51296   1.51717   1.53108
 Alpha virt. eigenvalues --    1.53802   1.56521   1.57443   1.59137   1.59235
 Alpha virt. eigenvalues --    1.59798   1.60755   1.61986   1.63873   1.64302
 Alpha virt. eigenvalues --    1.65513   1.66084   1.66458   1.66798   1.68202
 Alpha virt. eigenvalues --    1.69498   1.70955   1.71940   1.72525   1.76516
 Alpha virt. eigenvalues --    1.77801   1.80888   1.80956   1.82523   1.84166
 Alpha virt. eigenvalues --    1.84715   1.86249   1.88565   1.88976   1.91716
 Alpha virt. eigenvalues --    1.92032   1.95369   1.96046   2.00280   2.01725
 Alpha virt. eigenvalues --    2.03298   2.03647   2.04720   2.05378   2.08337
 Alpha virt. eigenvalues --    2.08726   2.10794   2.11322   2.13807   2.14775
 Alpha virt. eigenvalues --    2.15156   2.16736   2.18129   2.21192   2.22824
 Alpha virt. eigenvalues --    2.25520   2.26860   2.32941   2.34686   2.35282
 Alpha virt. eigenvalues --    2.35539   2.37025   2.39432   2.40804   2.40874
 Alpha virt. eigenvalues --    2.42315   2.44315   2.46757   2.48324   2.50069
 Alpha virt. eigenvalues --    2.50130   2.52805   2.53660   2.54972   2.56297
 Alpha virt. eigenvalues --    2.57084   2.57730   2.58406   2.58735   2.63675
 Alpha virt. eigenvalues --    2.64292   2.64714   2.66453   2.68424   2.69715
 Alpha virt. eigenvalues --    2.71294   2.72864   2.74669   2.76710   2.77015
 Alpha virt. eigenvalues --    2.79565   2.81511   2.82004   2.83481   2.84776
 Alpha virt. eigenvalues --    2.86361   2.87315   2.87854   2.91061   2.91302
 Alpha virt. eigenvalues --    2.93505   2.94679   2.96525   2.96705   2.98246
 Alpha virt. eigenvalues --    3.00613   3.02761   3.04186   3.04755   3.08089
 Alpha virt. eigenvalues --    3.10150   3.11178   3.11969   3.13752   3.14699
 Alpha virt. eigenvalues --    3.15640   3.17468   3.18080   3.18132   3.20815
 Alpha virt. eigenvalues --    3.21880   3.22955   3.24051   3.25844   3.26235
 Alpha virt. eigenvalues --    3.28584   3.30775   3.32004   3.32160   3.33826
 Alpha virt. eigenvalues --    3.34109   3.37274   3.37644   3.37748   3.38300
 Alpha virt. eigenvalues --    3.40205   3.41713   3.43483   3.43939   3.44187
 Alpha virt. eigenvalues --    3.46716   3.47427   3.47990   3.49480   3.50134
 Alpha virt. eigenvalues --    3.50225   3.52721   3.54235   3.55445   3.57307
 Alpha virt. eigenvalues --    3.60872   3.61305   3.61319   3.63592   3.64478
 Alpha virt. eigenvalues --    3.65028   3.69429   3.70890   3.73347   3.76034
 Alpha virt. eigenvalues --    3.79004   3.83489   3.86049   3.87498   3.90468
 Alpha virt. eigenvalues --    3.93972   3.94102   3.97696   4.02026   4.03074
 Alpha virt. eigenvalues --    4.03637   4.08111   4.11647   4.14161   4.15497
 Alpha virt. eigenvalues --    4.18728   4.20077   4.20603   4.23527   4.24932
 Alpha virt. eigenvalues --    4.25691   4.28504   4.29847   4.30810   4.34572
 Alpha virt. eigenvalues --    4.35050   4.38715   4.41006   4.41739   4.49137
 Alpha virt. eigenvalues --    4.49505   4.52022   4.54087   4.56699   4.62142
 Alpha virt. eigenvalues --    4.67572   4.69965   4.74858   4.79910   4.88867
 Alpha virt. eigenvalues --    4.92000   4.95734   4.96650   4.99340   5.04263
 Alpha virt. eigenvalues --    5.06281   5.08827   5.09949   5.13080   5.14410
 Alpha virt. eigenvalues --    5.20764   5.25977   5.27823   5.29012   5.35639
 Alpha virt. eigenvalues --    5.38878   5.40669   5.44114   5.45532   5.50002
 Alpha virt. eigenvalues --    5.52976   5.55087   5.57160   5.58828   5.74098
 Alpha virt. eigenvalues --    5.82867   5.84817   5.87297   5.90280   5.91503
 Alpha virt. eigenvalues --    5.97465   5.99576   6.06918   6.14197   6.32067
 Alpha virt. eigenvalues --    6.44797   6.57799   6.87145   6.93465   7.10796
 Alpha virt. eigenvalues --    7.30955  22.46611  22.55440  22.56176  22.66371
 Alpha virt. eigenvalues --   22.85552  22.93449  23.16460  23.33347  32.67270
 Alpha virt. eigenvalues --   32.97397  44.04522
          Condensed to atoms (all electrons):
               1          2          3          4          5          6
     1  C    4.905934   0.314328  -0.054408  -0.089317   0.014592  -0.000657
     2  N    0.314328   6.404892   0.312825   0.474189  -0.082827   0.000077
     3  C   -0.054408   0.312825   4.905131  -0.085704  -0.010400  -0.002535
     4  C   -0.089317   0.474189  -0.085704   4.913024   0.397535   0.002270
     5  C    0.014592  -0.082827  -0.010400   0.397535   5.163332   0.525105
     6  C   -0.000657   0.000077  -0.002535   0.002270   0.525105   4.699839
     7  N    0.000267  -0.000336  -0.000032  -0.034066  -0.062145   0.558481
     8  C   -0.004203  -0.001083  -0.001013   0.034677  -0.045734  -0.093581
     9  C   -0.000028  -0.000096   0.000005   0.006098   0.001437   0.002715
    10  O    0.000002   0.000002  -0.000000  -0.002277   0.000312  -0.002173
    11  C   -0.008935  -0.081118   0.014010   0.267312  -0.029125  -0.048778
    12  H    0.415749  -0.048151   0.003384  -0.010132  -0.000183   0.000004
    13  H    0.396243  -0.024677  -0.016233   0.010124  -0.000029   0.000022
    14  H    0.415692  -0.048081   0.003405  -0.010245  -0.000197   0.000002
    15  H    0.003437  -0.048226   0.416047  -0.009429   0.004282   0.000173
    16  H    0.003407  -0.048312   0.416087  -0.009306   0.004261   0.000166
    17  H   -0.015760  -0.024815   0.396417   0.010248   0.000267   0.000072
    18  H   -0.000078  -0.004881   0.003971  -0.072344   0.423943  -0.016854
    19  H    0.000025  -0.000139  -0.000131   0.002198  -0.072163   0.431912
    20  H    0.000021   0.000018  -0.000001  -0.001529   0.000298  -0.000457
    21  H    0.000016   0.000022  -0.000001  -0.001941   0.000334  -0.000497
    22  H   -0.000002   0.000007   0.000000  -0.000386   0.000577  -0.000206
    23  H    0.004475  -0.006038  -0.000269  -0.052731   0.008959  -0.002092
               7          8          9         10         11         12
     1  C    0.000267  -0.004203  -0.000028   0.000002  -0.008935   0.415749
     2  N   -0.000336  -0.001083  -0.000096   0.000002  -0.081118  -0.048151
     3  C   -0.000032  -0.001013   0.000005  -0.000000   0.014010   0.003384
     4  C   -0.034066   0.034677   0.006098  -0.002277   0.267312  -0.010132
     5  C   -0.062145  -0.045734   0.001437   0.000312  -0.029125  -0.000183
     6  C    0.558481  -0.093581   0.002715  -0.002173  -0.048778   0.000004
     7  N    6.659411   0.402257  -0.025147  -0.042347  -0.095316  -0.000055
     8  C    0.402257   4.934479   0.336150  -0.055125   0.408869   0.000185
     9  C   -0.025147   0.336150   4.580143   0.352583  -0.034890  -0.000035
    10  O   -0.042347  -0.055125   0.352583   8.011341   0.011669  -0.000000
    11  C   -0.095316   0.408869  -0.034890   0.011669   5.474534   0.005607
    12  H   -0.000055   0.000185  -0.000035  -0.000000   0.005607   0.567819
    13  H    0.000005   0.000132   0.000001   0.000000   0.000150  -0.018328
    14  H   -0.000054   0.000217  -0.000033  -0.000000   0.005644  -0.052228
    15  H   -0.000045  -0.000071  -0.000001  -0.000000   0.000028  -0.001272
    16  H   -0.000046  -0.000068  -0.000001  -0.000000   0.000028   0.002000
    17  H    0.000000   0.000065   0.000000   0.000000  -0.000112   0.000479
    18  H    0.006894  -0.002344   0.000056   0.000010   0.009346  -0.000007
    19  H   -0.027852   0.006755  -0.000433   0.000177   0.003209   0.000000
    20  H   -0.001306  -0.055258   0.410697  -0.049499   0.010080  -0.000027
    21  H   -0.001894  -0.052441   0.406993  -0.049649   0.011091   0.000017
    22  H    0.051270  -0.028079  -0.041388   0.306348   0.005252   0.000000
    23  H    0.005095  -0.024332   0.002483   0.000215   0.413421  -0.002512
              13         14         15         16         17         18
     1  C    0.396243   0.415692   0.003437   0.003407  -0.015760  -0.000078
     2  N   -0.024677  -0.048081  -0.048226  -0.048312  -0.024815  -0.004881
     3  C   -0.016233   0.003405   0.416047   0.416087   0.396417   0.003971
     4  C    0.010124  -0.010245  -0.009429  -0.009306   0.010248  -0.072344
     5  C   -0.000029  -0.000197   0.004282   0.004261   0.000267   0.423943
     6  C    0.000022   0.000002   0.000173   0.000166   0.000072  -0.016854
     7  N    0.000005  -0.000054  -0.000045  -0.000046   0.000000   0.006894
     8  C    0.000132   0.000217  -0.000071  -0.000068   0.000065  -0.002344
     9  C    0.000001  -0.000033  -0.000001  -0.000001   0.000000   0.000056
    10  O    0.000000  -0.000000  -0.000000  -0.000000   0.000000   0.000010
    11  C    0.000150   0.005644   0.000028   0.000028  -0.000112   0.009346
    12  H   -0.018328  -0.052228  -0.001272   0.002000   0.000479  -0.000007
    13  H    0.537522  -0.018334   0.000475   0.000474   0.004990  -0.000003
    14  H   -0.018334   0.567860   0.001988  -0.001272   0.000488  -0.000007
    15  H    0.000475   0.001988   0.567906  -0.052428  -0.018456  -0.002650
    16  H    0.000474  -0.001272  -0.052428   0.567901  -0.018505  -0.002637
    17  H    0.004990   0.000488  -0.018456  -0.018505   0.539121   0.000577
    18  H   -0.000003  -0.000007  -0.002650  -0.002637   0.000577   0.526391
    19  H   -0.000000   0.000000  -0.000002  -0.000002  -0.000001  -0.001933
    20  H    0.000000   0.000016  -0.000000   0.000000  -0.000000   0.000000
    21  H    0.000000  -0.000028   0.000000  -0.000000  -0.000000   0.000000
    22  H   -0.000000   0.000000   0.000000   0.000000   0.000000  -0.000031
    23  H    0.000653  -0.002506   0.000000  -0.000000  -0.000009   0.000076
              19         20         21         22         23
     1  C    0.000025   0.000021   0.000016  -0.000002   0.004475
     2  N   -0.000139   0.000018   0.000022   0.000007  -0.006038
     3  C   -0.000131  -0.000001  -0.000001   0.000000  -0.000269
     4  C    0.002198  -0.001529  -0.001941  -0.000386  -0.052731
     5  C   -0.072163   0.000298   0.000334   0.000577   0.008959
     6  C    0.431912  -0.000457  -0.000497  -0.000206  -0.002092
     7  N   -0.027852  -0.001306  -0.001894   0.051270   0.005095
     8  C    0.006755  -0.055258  -0.052441  -0.028079  -0.024332
     9  C   -0.000433   0.410697   0.406993  -0.041388   0.002483
    10  O    0.000177  -0.049499  -0.049649   0.306348   0.000215
    11  C    0.003209   0.010080   0.011091   0.005252   0.413421
    12  H    0.000000  -0.000027   0.000017   0.000000  -0.002512
    13  H   -0.000000   0.000000   0.000000  -0.000000   0.000653
    14  H    0.000000   0.000016  -0.000028   0.000000  -0.002506
    15  H   -0.000002  -0.000000   0.000000   0.000000   0.000000
    16  H   -0.000002   0.000000  -0.000000   0.000000  -0.000000
    17  H   -0.000001  -0.000000  -0.000000   0.000000  -0.000009
    18  H   -0.001933   0.000000   0.000000  -0.000031   0.000076
    19  H    0.536647   0.000016   0.000017  -0.000346   0.000085
    20  H    0.000016   0.671498  -0.076561   0.004886   0.000207
    21  H    0.000017  -0.076561   0.673229   0.004653   0.000214
    22  H   -0.000346   0.004886   0.004653   0.368572  -0.000125
    23  H    0.000085   0.000207   0.000214  -0.000125   0.518115
 Mulliken charges:
               1
     1  C   -0.300800
     2  N   -0.087580
     3  C   -0.300555
     4  C    0.261731
     5  C   -0.242430
     6  C   -0.053006
     7  N   -0.393039
     8  C    0.239545
     9  C    0.002690
    10  O   -0.481589
    11  C   -0.341976
    12  H    0.137688
    13  H    0.126813
    14  H    0.137671
    15  H    0.138243
    16  H    0.138254
    17  H    0.124936
    18  H    0.132502
    19  H    0.121962
    20  H    0.086901
    21  H    0.086425
    22  H    0.328996
    23  H    0.136617
 Sum of Mulliken charges =  -0.00000
 Mulliken charges with hydrogens summed into heavy atoms:
               1
     1  C    0.101371
     2  N   -0.087580
     3  C    0.100879
     4  C    0.261731
     5  C   -0.109928
     6  C    0.068956
     7  N   -0.393039
     8  C    0.239545
     9  C    0.176016
    10  O   -0.152593
    11  C   -0.205360
 Electronic spatial extent (au):  <R**2>=           2146.1384
 Charge=              0.0000 electrons
 Dipole moment (field-independent basis, Debye):
    X=              6.3795    Y=             -0.6134    Z=              0.0154  Tot=              6.4090
 Quadrupole moment (field-independent basis, Debye-Ang):
   XX=            -72.8764   YY=            -59.2369   ZZ=            -68.7858
   XY=             -1.8439   XZ=             -0.0852   YZ=             -0.0156
 Traceless Quadrupole moment (field-independent basis, Debye-Ang):
   XX=             -5.9100   YY=              7.7294   ZZ=             -1.8194
   XY=             -1.8439   XZ=             -0.0852   YZ=             -0.0156
 Octapole moment (field-independent basis, Debye-Ang**2):
  XXX=            103.4317  YYY=              1.7362  ZZZ=             -0.0133  XYY=              0.8847
  XXY=              5.9240  XXZ=              0.2599  XZZ=             -3.1204  YZZ=             -3.2789
  YYZ=             -0.0428  XYZ=              0.0679
 Hexadecapole moment (field-independent basis, Debye-Ang**3):
 XXXX=          -2272.5274 YYYY=           -597.7811 ZZZZ=            -93.8746 XXXY=            -72.7718
 XXXZ=             -1.1177 YYYX=             -4.8291 YYYZ=              0.0927 ZZZX=              0.0001
 ZZZY=             -0.0312 XXYY=           -426.3468 XXZZ=           -370.5097 YYZZ=           -125.3551
 XXYZ=             -0.2365 YYXZ=              0.1015 ZZXY=              3.7916
 N-N= 6.073060341680D+02 E-N=-2.371448129620D+03  KE= 4.941929419722D+02
 Breneman (CHELPG) radii used.
 Read replacement radii for each type of atom:
 Atom Element Radius
    1     6    1.50
    2     7    1.70
    3     6    1.50
    4     6    1.50
    5     6    1.50
    6     6    1.50
    7     7    1.70
    8     6    1.50
    9     6    1.50
   10     8    1.70
   11     6    1.50
   12     1    1.45
   13     1    1.45
   14     1    1.45
   15     1    1.45
   16     1    1.45
   17     1    1.45
   18     1    1.45
   19     1    1.45
   20     1    1.45
   21     1    1.45
   22     1    1.45
   23     1    1.45
 Generate Potential Derived Charges using the Breneman model, NDens= 1.
 Grid spacing= 0.300 Box extension= 2.800
 NStep X,Y,Z=   46     38     26   Total possible points=       45448
 Number of Points to Fit=   14194

 **********************************************************************

            Electrostatic Properties Using The SCF Density.

 **********************************************************************

       Atomic Center    1 is at   2.518380 -1.756789 -0.001292
       Atomic Center    2 is at   2.260379 -0.335080 -0.000232
       Atomic Center    3 is at   3.360459  0.602281 -0.001862
       Atomic Center    4 is at   0.971449  0.122240  0.000658
       Atomic Center    5 is at   0.670049  1.507020  0.000608
       Atomic Center    6 is at  -0.653981  1.909660  0.001218
       Atomic Center    7 is at  -1.691091  1.070499  0.002098
       Atomic Center    8 is at  -1.423861 -0.233430  0.002178
       Atomic Center    9 is at  -2.648900 -1.133081  0.005248
       Atomic Center   10 is at  -3.824201 -0.399331 -0.009172
       Atomic Center   11 is at  -0.133201 -0.753870  0.001368
       Atomic Center   12 is at   2.097000 -2.251610 -0.893632
       Atomic Center   13 is at   3.600650 -1.931409 -0.002302
       Atomic Center   14 is at   2.098540 -2.252600  0.891198
       Atomic Center   15 is at   3.350859  1.252211  0.890308
       Atomic Center   16 is at   3.349619  1.250801 -0.895072
       Atomic Center   17 is at   4.308069  0.051021 -0.002012
       Atomic Center   18 is at   1.452669  2.263830 -0.000142
       Atomic Center   19 is at  -0.892142  2.978580  0.000978
       Atomic Center   20 is at  -2.587000 -1.805911 -0.873262
       Atomic Center   21 is at  -2.594880 -1.786181  0.899428
       Atomic Center   22 is at  -3.532831  0.530039 -0.005072
       Atomic Center   23 is at  -0.004330 -1.836240  0.001128
   14194 points will be used for fitting atomic charges
 Fitting point charges to electrostatic potential
 Charges from ESP fit, RMS=   0.00314 RRMS=   0.17050:
 ESP charges:
               1
     1  C   -0.037283
     2  N   -0.232768
     3  C   -0.049629
     4  C    0.506376
     5  C   -0.461446
     6  C    0.282060
     7  N   -0.519238
     8  C    0.365547
     9  C    0.301249
    10  O   -0.584795
    11  C   -0.508703
    12  H    0.043715
    13  H    0.073763
    14  H    0.043537
    15  H    0.040613
    16  H    0.040598
    17  H    0.082708
    18  H    0.153629
    19  H    0.047642
    20  H   -0.014201
    21  H   -0.015479
    22  H    0.304659
    23  H    0.137447
 Sum of ESP charges =   0.00000
 ESP charges with hydrogens summed into heavy atoms:
               1
     1  C    0.123731
     2  N   -0.232768
     3  C    0.114289
     4  C    0.506376
     5  C   -0.307817
     6  C    0.329702
     7  N   -0.519238
     8  C    0.365547
     9  C    0.271569
    10  O   -0.280136
    11  C   -0.371256
 Charge=   0.00000 Dipole=     6.4021    -0.6138     0.0138 Tot=     6.4314
 -----------------------------------------------------------------

              Electrostatic Properties (Atomic Units)

 -----------------------------------------------------------------
    Center     Electric         -------- Electric Field --------
               Potential          X             Y             Z
 -----------------------------------------------------------------
    1 Atom    -14.720533
    2 Atom    -18.342006
    3 Atom    -14.720143
    4 Atom    -14.706569
    5 Atom    -14.768039
    6 Atom    -14.736569
    7 Atom    -18.407403
    8 Atom    -14.732711
    9 Atom    -14.729610
   10 Atom    -22.388802
   11 Atom    -14.768804
   12 Atom     -1.098181
   13 Atom     -1.087309
   14 Atom     -1.098175
   15 Atom     -1.097944
   16 Atom     -1.097961
   17 Atom     -1.087080
   18 Atom     -1.094215
   19 Atom     -1.106874
   20 Atom     -1.129309
   21 Atom     -1.129445
   22 Atom     -1.035345
   23 Atom     -1.093818
 -----------------------------------------------------------------
 Unable to Open any file for archive entry.
 1\1\GINC-NOTCH224\SP\RwB97XD\def2TZVP\C8H12N2O1\U6053008\12-Jul-2024\0
 \\#N Guess=Read Geom=Check Integral(Ultrafine) Density Pop=(ChelpG,Rea
 dRadii) NMR wB97XD def2TZVP\\12300592_1\\0,1\C,0,-2.51838,-1.75679,0.0
 0129\N,0,-2.26038,-0.33508,0.00023\C,0,-3.36046,0.60228,0.00186\C,0,-0
 .97145,0.12224,-0.00066\C,0,-0.67005,1.50702,-0.00061\C,0,0.65398,1.90
 966,-0.00122\N,0,1.69109,1.0705,-0.0021\C,0,1.42386,-0.23343,-0.00218\
 C,0,2.6489,-1.13308,-0.00525\O,0,3.8242,-0.39933,0.00917\C,0,0.1332,-0
 .75387,-0.00137\H,0,-2.097,-2.25161,0.89363\H,0,-3.60065,-1.93141,0.00
 23\H,0,-2.09854,-2.2526,-0.8912\H,0,-3.35086,1.25221,-0.89031\H,0,-3.3
 4962,1.2508,0.89507\H,0,-4.30807,0.05102,0.00201\H,0,-1.45267,2.26383,
 0.00014\H,0,0.89214,2.97858,-0.00098\H,0,2.587,-1.80591,0.87326\H,0,2.
 59488,-1.78618,-0.89943\H,0,3.53283,0.53004,0.00507\H,0,0.00433,-1.836
 24,-0.00113\\Version=ES64L-G16RevC.01\State=1-A\HF=-496.8144736\RMSD=3
 .066e-09\Dipole=-2.5098951,-0.2413252,-0.0060686\Quadrupole=-4.3939621
 ,5.7466508,-1.3526886,1.370887,-0.0633362,0.0115758\PG=C01 [X(C8H12N2O
 1)]\\@
 The archive entry for this job was punched.


 MICHAEL FARADAY, ASKED BY A POLITICIAN WHAT GOOD
 HIS ELECTRICAL DISCOVERIES WERE, REPLIED 
 "AT PRESENT I DO NOT KNOW, BUT ONE DAY YOU WILL BE
 ABLE TO TAX THEM."
 Job cpu time:       0 days  0 hours 39 minutes 11.9 seconds.
 Elapsed time:       0 days  0 hours  2 minutes 35.9 seconds.
 File lengths (MBytes):  RWF=    113 Int=      0 D2E=      0 Chk=     17 Scr=      2
 Normal termination of Gaussian 16 at Fri Jul 12 13:19:21 2024.
