 Entering Gaussian System, Link 0=g16
 Input=12300592_2.com
 Output=12300592_2.log
 Initial command:
 /uufs/chpc.utah.edu/sys/installdir/gaussian16/C01/AVX/g16/l1.exe "/scratch/general/vast/u6053008/1287099-notchpeak.peaks/Gau-2514624.inp" -scrdir="/scratch/general/vast/u6053008/1287099-notchpeak.peaks/"
 Entering Link 1 = /uufs/chpc.utah.edu/sys/installdir/gaussian16/C01/AVX/g16/l1.exe PID=   2514627.
  
 Copyright (c) 1988-2019, Gaussian, Inc.  All Rights Reserved.
  
 This is part of the Gaussian(R) 16 program.  It is based on
 the Gaussian(R) 09 system (copyright 2009, Gaussian, Inc.),
 the Gaussian(R) 03 system (copyright 2003, Gaussian, Inc.),
 the Gaussian(R) 98 system (copyright 1998, Gaussian, Inc.),
 the Gaussian(R) 94 system (copyright 1995, Gaussian, Inc.),
 the Gaussian 92(TM) system (copyright 1992, Gaussian, Inc.),
 the Gaussian 90(TM) system (copyright 1990, Gaussian, Inc.),
 the Gaussian 88(TM) system (copyright 1988, Gaussian, Inc.),
 the Gaussian 86(TM) system (copyright 1986, Carnegie Mellon
 University), and the Gaussian 82(TM) system (copyright 1983,
 Carnegie Mellon University). Gaussian is a federally registered
 trademark of Gaussian, Inc.
  
 This software contains proprietary and confidential information,
 including trade secrets, belonging to Gaussian, Inc.
  
 This software is provided under written license and may be
 used, copied, transmitted, or stored only in accord with that
 written license.
  
 The following legend is applicable only to US Government
 contracts under FAR:
  
                    RESTRICTED RIGHTS LEGEND
  
 Use, reproduction and disclosure by the US Government is
 subject to restrictions as set forth in subparagraphs (a)
 and (c) of the Commercial Computer Software - Restricted
 Rights clause in FAR 52.227-19.
  
 Gaussian, Inc.
 340 Quinnipiac St., Bldg. 40, Wallingford CT 06492
  
  
 ---------------------------------------------------------------
 Warning -- This program may not be used in any manner that
 competes with the business of Gaussian, Inc. or will provide
 assistance to any competitor of Gaussian, Inc.  The licensee
 of this program is prohibited from giving any competitor of
 Gaussian, Inc. access to this program.  By using this program,
 the user acknowledges that Gaussian, Inc. is engaged in the
 business of creating and licensing software in the field of
 computational chemistry and represents and warrants to the
 licensee that it is not a competitor of Gaussian, Inc. and that
 it will not use this program in any manner prohibited above.
 ---------------------------------------------------------------
  

 Cite this work as:
 Gaussian 16, Revision C.01,
 M. J. Frisch, G. W. Trucks, H. B. Schlegel, G. E. Scuseria, 
 M. A. Robb, J. R. Cheeseman, G. Scalmani, V. Barone, 
 G. A. Petersson, H. Nakatsuji, X. Li, M. Caricato, A. V. Marenich, 
 J. Bloino, B. G. Janesko, R. Gomperts, B. Mennucci, H. P. Hratchian, 
 J. V. Ortiz, A. F. Izmaylov, J. L. Sonnenberg, D. Williams-Young, 
 F. Ding, F. Lipparini, F. Egidi, J. Goings, B. Peng, A. Petrone, 
 T. Henderson, D. Ranasinghe, V. G. Zakrzewski, J. Gao, N. Rega, 
 G. Zheng, W. Liang, M. Hada, M. Ehara, K. Toyota, R. Fukuda, 
 J. Hasegawa, M. Ishida, T. Nakajima, Y. Honda, O. Kitao, H. Nakai, 
 T. Vreven, K. Throssell, J. A. Montgomery, Jr., J. E. Peralta, 
 F. Ogliaro, M. J. Bearpark, J. J. Heyd, E. N. Brothers, K. N. Kudin, 
 V. N. Staroverov, T. A. Keith, R. Kobayashi, J. Normand, 
 K. Raghavachari, A. P. Rendell, J. C. Burant, S. S. Iyengar, 
 J. Tomasi, M. Cossi, J. M. Millam, M. Klene, C. Adamo, R. Cammi, 
 J. W. Ochterski, R. L. Martin, K. Morokuma, O. Farkas, 
 J. B. Foresman, and D. J. Fox, Gaussian, Inc., Wallingford CT, 2019.
 
 ******************************************
 Gaussian 16:  ES64L-G16RevC.01  3-Jul-2019
                12-Jul-2024 
 ******************************************
 %NProcShared=16
 Will use up to   16 processors via shared memory.
 %Mem=32GB
 %chk=12300592_2.chk
 ------------------------------------------------------
 #N OPT FREQ=NORAMAN Integral(Ultrafine) wB97XD def2SVP
 ------------------------------------------------------
 1/18=20,19=15,26=4,38=1/1,3;
 2/9=110,12=2,17=6,18=5,40=1/2;
 3/5=43,7=101,11=2,25=1,30=1,71=1,74=-58,75=-5/1,2,3;
 4//1;
 5/5=2,38=5/2;
 6/7=2,8=2,9=2,10=2,28=1/1;
 7//1,2,3,16;
 1/18=20,19=15,26=4/3(2);
 2/9=110/2;
 99//99;
 2/9=110/2;
 3/5=43,7=101,11=2,25=1,30=1,71=1,74=-58,75=-5/1,2,3;
 4/5=5,16=3,69=1/1;
 5/5=2,38=5/2;
 7//1,2,3,16;
 1/18=20,19=15,26=4/3(-5);
 2/9=110/2;
 6/7=2,8=2,9=2,10=2,19=2,28=1/1;
 99/9=1/99;
 ----------
 12300592_2
 ----------
 Symbolic Z-matrix:
 Charge =  0 Multiplicity = 1
 C                    -2.01589  -1.97244   0.07487 
 N                    -2.04948  -0.52995   0.00451 
 C                    -3.31306   0.16704  -0.04956 
 C                    -0.87813   0.17899   0.00603 
 C                    -0.85333   1.59015  -0.04975 
 C                     0.37246   2.24364  -0.04076 
 N                     1.55609   1.63805   0.01108 
 C                     1.54048   0.30378   0.06633 
 C                     2.89705  -0.36669   0.15662 
 O                     2.88915  -1.73524  -0.1467 
 C                     0.37892  -0.46066   0.06754 
 H                    -3.04085  -2.36194   0.06674 
 H                    -1.48096  -2.41516  -0.7834 
 H                    -1.52603  -2.33043   0.99703 
 H                    -3.41171   0.77296  -0.96729 
 H                    -3.45256   0.83913   0.81546 
 H                    -4.13249  -0.5615   -0.04168 
 H                    -1.7673    2.18015  -0.10005 
 H                     0.38926   3.33896  -0.08376 
 H                     3.60015   0.20902  -0.47255 
 H                     3.26073  -0.27498   1.19264 
 H                     2.65367  -1.83071  -1.07448 
 H                     0.47766  -1.54311   0.12789 
 

 GradGradGradGradGradGradGradGradGradGradGradGradGradGradGradGradGradGrad
 Berny optimization.
 Initialization pass.
                           ----------------------------
                           !    Initial Parameters    !
                           ! (Angstroms and Degrees)  !
 --------------------------                            --------------------------
 ! Name  Definition              Value          Derivative Info.                !
 --------------------------------------------------------------------------------
 ! R1    R(1,2)                  1.4446         estimate D2E/DX2                !
 ! R2    R(1,12)                 1.0965         estimate D2E/DX2                !
 ! R3    R(1,13)                 1.104          estimate D2E/DX2                !
 ! R4    R(1,14)                 1.1039         estimate D2E/DX2                !
 ! R5    R(2,3)                  1.4441         estimate D2E/DX2                !
 ! R6    R(2,4)                  1.3692         estimate D2E/DX2                !
 ! R7    R(3,15)                 1.1041         estimate D2E/DX2                !
 ! R8    R(3,16)                 1.1043         estimate D2E/DX2                !
 ! R9    R(3,17)                 1.0965         estimate D2E/DX2                !
 ! R10   R(4,5)                  1.4125         estimate D2E/DX2                !
 ! R11   R(4,11)                 1.4118         estimate D2E/DX2                !
 ! R12   R(5,6)                  1.3891         estimate D2E/DX2                !
 ! R13   R(5,18)                 1.089          estimate D2E/DX2                !
 ! R14   R(6,7)                  1.3306         estimate D2E/DX2                !
 ! R15   R(6,19)                 1.0963         estimate D2E/DX2                !
 ! R16   R(7,8)                  1.3355         estimate D2E/DX2                !
 ! R17   R(8,9)                  1.5159         estimate D2E/DX2                !
 ! R18   R(8,11)                 1.3905         estimate D2E/DX2                !
 ! R19   R(9,10)                 1.4018         estimate D2E/DX2                !
 ! R20   R(9,20)                 1.1053         estimate D2E/DX2                !
 ! R21   R(9,21)                 1.1018         estimate D2E/DX2                !
 ! R22   R(10,22)                0.9619         estimate D2E/DX2                !
 ! R23   R(11,23)                1.0886         estimate D2E/DX2                !
 ! A1    A(2,1,12)             109.427          estimate D2E/DX2                !
 ! A2    A(2,1,13)             111.9525         estimate D2E/DX2                !
 ! A3    A(2,1,14)             112.0146         estimate D2E/DX2                !
 ! A4    A(12,1,13)            107.7411         estimate D2E/DX2                !
 ! A5    A(12,1,14)            107.8069         estimate D2E/DX2                !
 ! A6    A(13,1,14)            107.721          estimate D2E/DX2                !
 ! A7    A(1,2,3)              120.273          estimate D2E/DX2                !
 ! A8    A(1,2,4)              119.8072         estimate D2E/DX2                !
 ! A9    A(3,2,4)              119.9148         estimate D2E/DX2                !
 ! A10   A(2,3,15)             111.9731         estimate D2E/DX2                !
 ! A11   A(2,3,16)             112.022          estimate D2E/DX2                !
 ! A12   A(2,3,17)             109.4481         estimate D2E/DX2                !
 ! A13   A(15,3,16)            107.8068         estimate D2E/DX2                !
 ! A14   A(15,3,17)            107.6875         estimate D2E/DX2                !
 ! A15   A(16,3,17)            107.7191         estimate D2E/DX2                !
 ! A16   A(2,4,5)              122.1594         estimate D2E/DX2                !
 ! A17   A(2,4,11)             121.8165         estimate D2E/DX2                !
 ! A18   A(5,4,11)             116.0239         estimate D2E/DX2                !
 ! A19   A(4,5,6)              119.0274         estimate D2E/DX2                !
 ! A20   A(4,5,18)             121.8942         estimate D2E/DX2                !
 ! A21   A(6,5,18)             119.0784         estimate D2E/DX2                !
 ! A22   A(5,6,7)              124.8276         estimate D2E/DX2                !
 ! A23   A(5,6,19)             118.8999         estimate D2E/DX2                !
 ! A24   A(7,6,19)             116.2718         estimate D2E/DX2                !
 ! A25   A(6,7,8)              116.4829         estimate D2E/DX2                !
 ! A26   A(7,8,9)              115.7144         estimate D2E/DX2                !
 ! A27   A(7,8,11)             123.9892         estimate D2E/DX2                !
 ! A28   A(9,8,11)             120.2871         estimate D2E/DX2                !
 ! A29   A(8,9,10)             114.4484         estimate D2E/DX2                !
 ! A30   A(8,9,20)             107.7572         estimate D2E/DX2                !
 ! A31   A(8,9,21)             108.3348         estimate D2E/DX2                !
 ! A32   A(10,9,20)            112.8883         estimate D2E/DX2                !
 ! A33   A(10,9,21)            106.6534         estimate D2E/DX2                !
 ! A34   A(20,9,21)            106.3749         estimate D2E/DX2                !
 ! A35   A(9,10,22)            107.8767         estimate D2E/DX2                !
 ! A36   A(4,11,8)             119.6477         estimate D2E/DX2                !
 ! A37   A(4,11,23)            122.2552         estimate D2E/DX2                !
 ! A38   A(8,11,23)            118.0935         estimate D2E/DX2                !
 ! D1    D(12,1,2,3)             0.5804         estimate D2E/DX2                !
 ! D2    D(12,1,2,4)           179.7623         estimate D2E/DX2                !
 ! D3    D(13,1,2,3)           119.9555         estimate D2E/DX2                !
 ! D4    D(13,1,2,4)           -60.8626         estimate D2E/DX2                !
 ! D5    D(14,1,2,3)          -118.9163         estimate D2E/DX2                !
 ! D6    D(14,1,2,4)            60.2656         estimate D2E/DX2                !
 ! D7    D(1,2,3,15)          -120.1208         estimate D2E/DX2                !
 ! D8    D(1,2,3,16)           118.6199         estimate D2E/DX2                !
 ! D9    D(1,2,3,17)            -0.7857         estimate D2E/DX2                !
 ! D10   D(4,2,3,15)            60.6982         estimate D2E/DX2                !
 ! D11   D(4,2,3,16)           -60.5611         estimate D2E/DX2                !
 ! D12   D(4,2,3,17)          -179.9667         estimate D2E/DX2                !
 ! D13   D(1,2,4,5)           -179.4594         estimate D2E/DX2                !
 ! D14   D(1,2,4,11)             0.3548         estimate D2E/DX2                !
 ! D15   D(3,2,4,5)             -0.2745         estimate D2E/DX2                !
 ! D16   D(3,2,4,11)           179.5397         estimate D2E/DX2                !
 ! D17   D(2,4,5,6)            179.8179         estimate D2E/DX2                !
 ! D18   D(2,4,5,18)            -0.2114         estimate D2E/DX2                !
 ! D19   D(11,4,5,6)            -0.0065         estimate D2E/DX2                !
 ! D20   D(11,4,5,18)          179.9643         estimate D2E/DX2                !
 ! D21   D(2,4,11,8)           179.9957         estimate D2E/DX2                !
 ! D22   D(2,4,11,23)           -0.7077         estimate D2E/DX2                !
 ! D23   D(5,4,11,8)            -0.1793         estimate D2E/DX2                !
 ! D24   D(5,4,11,23)          179.1173         estimate D2E/DX2                !
 ! D25   D(4,5,6,7)              0.3324         estimate D2E/DX2                !
 ! D26   D(4,5,6,19)          -179.9782         estimate D2E/DX2                !
 ! D27   D(18,5,6,7)          -179.6392         estimate D2E/DX2                !
 ! D28   D(18,5,6,19)            0.0502         estimate D2E/DX2                !
 ! D29   D(5,6,7,8)             -0.4351         estimate D2E/DX2                !
 ! D30   D(19,6,7,8)           179.8681         estimate D2E/DX2                !
 ! D31   D(6,7,8,9)           -178.6649         estimate D2E/DX2                !
 ! D32   D(6,7,8,11)             0.2252         estimate D2E/DX2                !
 ! D33   D(7,8,9,10)          -163.6293         estimate D2E/DX2                !
 ! D34   D(7,8,9,20)           -37.1728         estimate D2E/DX2                !
 ! D35   D(7,8,9,21)            77.5345         estimate D2E/DX2                !
 ! D36   D(11,8,9,10)           17.4365         estimate D2E/DX2                !
 ! D37   D(11,8,9,20)          143.8929         estimate D2E/DX2                !
 ! D38   D(11,8,9,21)         -101.3998         estimate D2E/DX2                !
 ! D39   D(7,8,11,4)             0.0757         estimate D2E/DX2                !
 ! D40   D(7,8,11,23)         -179.2501         estimate D2E/DX2                !
 ! D41   D(9,8,11,4)           178.9176         estimate D2E/DX2                !
 ! D42   D(9,8,11,23)           -0.4082         estimate D2E/DX2                !
 ! D43   D(8,9,10,22)           65.4724         estimate D2E/DX2                !
 ! D44   D(20,9,10,22)         -58.2792         estimate D2E/DX2                !
 ! D45   D(21,9,10,22)        -174.7472         estimate D2E/DX2                !
 --------------------------------------------------------------------------------
 Trust Radius=3.00D-01 FncErr=1.00D-07 GrdErr=1.00D-06 EigMax=2.50D+02 EigMin=1.00D-04
 Number of steps in this run=    116 maximum allowed number of steps=    138.
 GradGradGradGradGradGradGradGradGradGradGradGradGradGradGradGradGradGrad

                          Input orientation:                          
 ---------------------------------------------------------------------
 Center     Atomic      Atomic             Coordinates (Angstroms)
 Number     Number       Type             X           Y           Z
 ---------------------------------------------------------------------
      1          6           0       -2.015890   -1.972440    0.074870
      2          7           0       -2.049480   -0.529950    0.004510
      3          6           0       -3.313060    0.167040   -0.049560
      4          6           0       -0.878130    0.178990    0.006030
      5          6           0       -0.853330    1.590150   -0.049750
      6          6           0        0.372460    2.243640   -0.040760
      7          7           0        1.556090    1.638050    0.011080
      8          6           0        1.540480    0.303780    0.066330
      9          6           0        2.897050   -0.366690    0.156620
     10          8           0        2.889150   -1.735240   -0.146700
     11          6           0        0.378920   -0.460660    0.067540
     12          1           0       -3.040850   -2.361940    0.066740
     13          1           0       -1.480960   -2.415160   -0.783400
     14          1           0       -1.526030   -2.330430    0.997030
     15          1           0       -3.411710    0.772960   -0.967290
     16          1           0       -3.452560    0.839130    0.815460
     17          1           0       -4.132490   -0.561500   -0.041680
     18          1           0       -1.767300    2.180150   -0.100050
     19          1           0        0.389260    3.338960   -0.083760
     20          1           0        3.600150    0.209020   -0.472550
     21          1           0        3.260730   -0.274980    1.192640
     22          1           0        2.653670   -1.830710   -1.074480
     23          1           0        0.477660   -1.543110    0.127890
 ---------------------------------------------------------------------
                    Distance matrix (angstroms):
                    1          2          3          4          5
     1  C    0.000000
     2  N    1.444596   0.000000
     3  C    2.505096   1.444075   0.000000
     4  C    2.434725   1.369182   2.435594   0.000000
     5  C    3.749550   2.434860   2.841745   1.412480   0.000000
     6  C    4.846949   3.682478   4.230296   2.414321   1.389133
     7  N    5.079247   4.207185   5.086862   2.838011   2.410664
     8  C    4.222442   3.686020   4.856849   2.422578   2.720027
     9  C    5.169342   4.951560   6.236413   3.817385   4.235229
    10  O    4.915768   5.085829   6.488106   4.228475   5.007372
    11  C    2.832075   2.430206   3.746790   1.411776   2.395416
    12  H    1.096503   2.083956   2.546245   3.337270   4.518609
    13  H    1.103983   2.120857   3.250057   2.777808   4.120033
    14  H    1.103856   2.121515   3.244408   2.774715   4.113298
    15  H    3.251405   2.120764   1.104128   2.778341   2.838131
    16  H    3.243057   2.121474   1.104276   2.778246   2.840531
    17  H    2.546435   2.083761   1.096494   3.337883   3.922060
    18  H    4.163700   2.726756   2.538609   2.192377   1.089023
    19  H    5.832742   4.574244   4.875389   3.405841   2.145582
    20  H    6.049656   5.717690   6.926266   4.503880   4.681855
    21  H    5.654511   5.447476   6.704712   4.329468   4.684841
    22  H    4.811017   4.997581   6.375212   4.204760   5.005138
    23  H    2.530796   2.725464   4.162410   2.195141   3.408872
                    6          7          8          9         10
     6  C    0.000000
     7  N    1.330566   0.000000
     8  C    2.266891   1.335505   0.000000
     9  C    3.636803   2.416265   1.515904   0.000000
    10  O    4.709187   3.630569   2.453955   1.401783   0.000000
    11  C    2.706475   2.406969   1.390536   2.521457   2.823421
    12  H    5.733551   6.093839   5.300438   6.264803   5.966843
    13  H    5.068639   5.126732   4.152563   4.924108   4.468281
    14  H    5.059979   5.120585   4.148343   4.911843   4.599585
    15  H    4.164289   5.136597   5.080619   6.508643   6.831198
    16  H    4.163717   5.135355   5.077228   6.496585   6.911615
    17  H    5.306919   6.099241   5.739596   7.035034   7.119840
    18  H    2.141523   3.369146   3.806554   5.320567   6.083994
    19  H    1.096292   2.064844   3.249639   4.480919   5.656935
    20  H    3.839805   2.540513   2.131106   1.105281   2.095673
    21  H    4.025770   2.821625   2.136071   1.101822   2.016002
    22  H    4.782554   3.796764   2.663961   1.928262   0.961947
    23  H    3.791963   3.361017   2.131755   2.690397   2.434666
                   11         12         13         14         15
    11  C    0.000000
    12  H    3.912760   0.000000
    13  H    2.829014   1.777309   0.000000
    14  H    2.826451   1.777952   1.783015   0.000000
    15  H    4.118442   3.321800   3.731718   4.128604   0.000000
    16  H    4.114496   3.313146   4.127222   3.713569   1.784445
    17  H    4.513858   2.108321   3.319159   3.316876   1.776812
    18  H    3.407084   4.720204   4.654657   4.648347   2.331603
    19  H    3.802645   6.654965   6.090740   6.080989   4.670370
    20  H    3.334140   7.141677   5.727183   5.906454   7.051878
    21  H    3.099219   6.732976   5.564955   5.213081   7.091187
    22  H    2.890629   5.831993   4.185866   4.691563   6.601471
    23  H    1.088618   3.613051   2.329616   2.321648   4.657338
                   16         17         18         19         20
    16  H    0.000000
    17  H    1.777290   0.000000
    18  H    2.340212   3.621350   0.000000
    19  H    4.670902   5.971732   2.448235   0.000000
    20  H    7.196994   7.782870   5.730064   4.500833   0.000000
    21  H    6.815553   7.501023   5.742804   4.789060   1.767009
    22  H    6.927190   6.980655   6.048263   5.730145   2.327798
    23  H    4.646983   4.716545   4.353673   4.887455   3.630486
                   21         22         23
    21  H    0.000000
    22  H    2.815786   0.000000
    23  H    3.238414   2.502684   0.000000
 Stoichiometry    C8H12N2O
 Framework group  C1[X(C8H12N2O)]
 Deg. of freedom    63
 Full point group                 C1      NOp   1
 Largest Abelian subgroup         C1      NOp   1
 Largest concise Abelian subgroup C1      NOp   1
                         Standard orientation:                         
 ---------------------------------------------------------------------
 Center     Atomic      Atomic             Coordinates (Angstroms)
 Number     Number       Type             X           Y           Z
 ---------------------------------------------------------------------
      1          6           0       -2.015894   -1.972437    0.074870
      2          7           0       -2.049481   -0.529947    0.004510
      3          6           0       -3.313060    0.167045   -0.049560
      4          6           0       -0.878130    0.178991    0.006030
      5          6           0       -0.853328    1.590151   -0.049750
      6          6           0        0.372463    2.243639   -0.040760
      7          7           0        1.556092    1.638047    0.011080
      8          6           0        1.540480    0.303777    0.066330
      9          6           0        2.897049   -0.366695    0.156620
     10          8           0        2.889147   -1.735245   -0.146700
     11          6           0        0.378919   -0.460661    0.067540
     12          1           0       -3.040854   -2.361936    0.066740
     13          1           0       -1.480964   -2.415158   -0.783400
     14          1           0       -1.526034   -2.330428    0.997030
     15          1           0       -3.411709    0.772965   -0.967290
     16          1           0       -3.452559    0.839135    0.815460
     17          1           0       -4.132491   -0.561494   -0.041680
     18          1           0       -1.767297    2.180152   -0.100050
     19          1           0        0.389265    3.338959   -0.083760
     20          1           0        3.600150    0.209014   -0.472550
     21          1           0        3.260729   -0.274985    1.192640
     22          1           0        2.653667   -1.830714   -1.074480
     23          1           0        0.477657   -1.543111    0.127890
 ---------------------------------------------------------------------
 Rotational constants (GHZ):           1.8018283           0.7738354           0.5495725
 Standard basis: def2SVP (5D, 7F)
 There are   225 symmetry adapted cartesian basis functions of A   symmetry.
 There are   214 symmetry adapted basis functions of A   symmetry.
   214 basis functions,   359 primitive gaussians,   225 cartesian basis functions
    41 alpha electrons       41 beta electrons
       nuclear repulsion energy       608.2039522962 Hartrees.
 NAtoms=   23 NActive=   23 NUniq=   23 SFac= 1.00D+00 NAtFMM=   60 NAOKFM=F Big=F
 Integral buffers will be    131072 words long.
 Raffenetti 2 integral format.
 Two-electron integral symmetry is turned on.
 Nuclear repulsion after empirical dispersion term =      608.1905872225 Hartrees.
 One-electron integrals computed using PRISM.
   1 Symmetry operations used in ECPInt.
 ECPInt:  NShTT=    5253 NPrTT=   18707 LenC2=    5109 LenP2D=   13909.
 LDataN:  DoStor=T MaxTD1= 4 Len=   56
 NBasis=   214 RedAO= T EigKep=  5.73D-04  NBF=   214
 NBsUse=   214 1.00D-06 EigRej= -1.00D+00 NBFU=   214
 ExpMin= 1.22D-01 ExpMax= 2.27D+03 ExpMxC= 3.41D+02 IAcc=3 IRadAn=         5 AccDes= 0.00D+00
 Harris functional with IExCor= 4639 and IRadAn=       5 diagonalized for initial guess.
 HarFok:  IExCor= 4639 AccDes= 0.00D+00 IRadAn=         5 IDoV= 1 UseB2=F ITyADJ=14
 ICtDFT=  3500011 ScaDFX=  1.000000  1.000000  1.000000  1.000000
 FoFCou: FMM=F IPFlag=           0 FMFlag=      100000 FMFlg1=           0
         NFxFlg=           0 DoJE=T BraDBF=F KetDBF=T FulRan=T
         wScrn=  0.000000 ICntrl=       500 IOpCl=  0 I1Cent=   200000004 NGrid=           0
         NMat0=    1 NMatS0=      1 NMatT0=    0 NMatD0=    1 NMtDS0=    0 NMtDT0=    0
 Petite list used in FoFCou.
 Requested convergence on RMS density matrix=1.00D-08 within 128 cycles.
 Requested convergence on MAX density matrix=1.00D-06.
 Requested convergence on             energy=1.00D-06.
 No special actions if energy rises.
 Integral accuracy reduced to 1.0D-05 until final iterations.
 Initial convergence to 1.0D-05 achieved.  Increase integral accuracy.
 SCF Done:  E(RwB97XD) =  -496.272896647     A.U. after   15 cycles
            NFock= 15  Conv=0.42D-08     -V/T= 2.0106

 **********************************************************************

            Population analysis using the SCF Density.

 **********************************************************************

 Orbital symmetries:
       Occupied  (A) (A) (A) (A) (A) (A) (A) (A) (A) (A) (A) (A)
                 (A) (A) (A) (A) (A) (A) (A) (A) (A) (A) (A) (A)
                 (A) (A) (A) (A) (A) (A) (A) (A) (A) (A) (A) (A)
                 (A) (A) (A) (A) (A)
       Virtual   (A) (A) (A) (A) (A) (A) (A) (A) (A) (A) (A) (A)
                 (A) (A) (A) (A) (A) (A) (A) (A) (A) (A) (A) (A)
                 (A) (A) (A) (A) (A) (A) (A) (A) (A) (A) (A) (A)
                 (A) (A) (A) (A) (A) (A) (A) (A) (A) (A) (A) (A)
                 (A) (A) (A) (A) (A) (A) (A) (A) (A) (A) (A) (A)
                 (A) (A) (A) (A) (A) (A) (A) (A) (A) (A) (A) (A)
                 (A) (A) (A) (A) (A) (A) (A) (A) (A) (A) (A) (A)
                 (A) (A) (A) (A) (A) (A) (A) (A) (A) (A) (A) (A)
                 (A) (A) (A) (A) (A) (A) (A) (A) (A) (A) (A) (A)
                 (A) (A) (A) (A) (A) (A) (A) (A) (A) (A) (A) (A)
                 (A) (A) (A) (A) (A) (A) (A) (A) (A) (A) (A) (A)
                 (A) (A) (A) (A) (A) (A) (A) (A) (A) (A) (A) (A)
                 (A) (A) (A) (A) (A) (A) (A) (A) (A) (A) (A) (A)
                 (A) (A) (A) (A) (A) (A) (A) (A) (A) (A) (A) (A)
                 (A) (A) (A) (A) (A)
 The electronic state is 1-A.
 Alpha  occ. eigenvalues --  -19.25316 -14.47487 -14.41516 -10.35221 -10.34168
 Alpha  occ. eigenvalues --  -10.34062 -10.33549 -10.32502 -10.32371 -10.29239
 Alpha  occ. eigenvalues --  -10.28978  -1.11351  -1.05885  -1.02113  -0.88231
 Alpha  occ. eigenvalues --   -0.85869  -0.82874  -0.77617  -0.76669  -0.69890
 Alpha  occ. eigenvalues --   -0.66776  -0.62599  -0.60210  -0.58014  -0.56559
 Alpha  occ. eigenvalues --   -0.54335  -0.53350  -0.53059  -0.52052  -0.50845
 Alpha  occ. eigenvalues --   -0.50098  -0.48472  -0.47486  -0.47159  -0.44131
 Alpha  occ. eigenvalues --   -0.41280  -0.39201  -0.36414  -0.32534  -0.32360
 Alpha  occ. eigenvalues --   -0.28523
 Alpha virt. eigenvalues --    0.06548   0.06829   0.12890   0.14596   0.15825
 Alpha virt. eigenvalues --    0.16847   0.18324   0.19437   0.21014   0.21272
 Alpha virt. eigenvalues --    0.21531   0.22426   0.22650   0.23957   0.25156
 Alpha virt. eigenvalues --    0.26321   0.28254   0.30610   0.32841   0.35110
 Alpha virt. eigenvalues --    0.37074   0.37953   0.40224   0.42150   0.44946
 Alpha virt. eigenvalues --    0.47003   0.48485   0.49696   0.51840   0.53203
 Alpha virt. eigenvalues --    0.54522   0.56304   0.57598   0.57696   0.59234
 Alpha virt. eigenvalues --    0.59778   0.61513   0.61866   0.64944   0.67950
 Alpha virt. eigenvalues --    0.69072   0.69992   0.71039   0.71403   0.71601
 Alpha virt. eigenvalues --    0.72396   0.72765   0.73389   0.74518   0.75330
 Alpha virt. eigenvalues --    0.75797   0.77047   0.77682   0.78241   0.78502
 Alpha virt. eigenvalues --    0.78895   0.80039   0.80277   0.82394   0.84884
 Alpha virt. eigenvalues --    0.86999   0.88710   0.90959   0.95205   0.97631
 Alpha virt. eigenvalues --    1.01233   1.02162   1.03811   1.08931   1.10337
 Alpha virt. eigenvalues --    1.14640   1.15779   1.19087   1.19899   1.21718
 Alpha virt. eigenvalues --    1.23169   1.29300   1.29775   1.31161   1.34639
 Alpha virt. eigenvalues --    1.35651   1.36786   1.39960   1.40626   1.43058
 Alpha virt. eigenvalues --    1.45211   1.47004   1.53518   1.55406   1.56965
 Alpha virt. eigenvalues --    1.57841   1.59075   1.60273   1.60692   1.62470
 Alpha virt. eigenvalues --    1.67481   1.71614   1.73172   1.75976   1.80458
 Alpha virt. eigenvalues --    1.81214   1.81804   1.82760   1.84784   1.85086
 Alpha virt. eigenvalues --    1.86607   1.87719   1.89087   1.90052   1.90541
 Alpha virt. eigenvalues --    1.94365   1.94894   1.96524   1.97571   1.98858
 Alpha virt. eigenvalues --    2.00226   2.01126   2.02549   2.03037   2.06096
 Alpha virt. eigenvalues --    2.08445   2.09399   2.15544   2.16131   2.21384
 Alpha virt. eigenvalues --    2.22762   2.25866   2.27677   2.29816   2.30107
 Alpha virt. eigenvalues --    2.31019   2.31997   2.34796   2.36360   2.42607
 Alpha virt. eigenvalues --    2.43660   2.45750   2.47696   2.47841   2.50566
 Alpha virt. eigenvalues --    2.52697   2.52980   2.56038   2.67771   2.68150
 Alpha virt. eigenvalues --    2.69345   2.72838   2.75085   2.75974   2.78924
 Alpha virt. eigenvalues --    2.81650   2.83343   2.90037   2.91365   2.92362
 Alpha virt. eigenvalues --    2.96011   2.96601   2.97947   3.00266   3.01976
 Alpha virt. eigenvalues --    3.05177   3.06239   3.07199   3.10410   3.14544
 Alpha virt. eigenvalues --    3.19013   3.24992   3.30300   3.39895   3.44306
 Alpha virt. eigenvalues --    3.53857   3.73128   3.86235
          Condensed to atoms (all electrons):
               1          2          3          4          5          6
     1  C    4.454395   0.348495  -0.045063  -0.057207   0.007819  -0.000131
     2  N    0.348495   6.638643   0.350927   0.408373  -0.094202   0.005444
     3  C   -0.045063   0.350927   4.457345  -0.056738   0.001819   0.000607
     4  C   -0.057207   0.408373  -0.056738   4.916654   0.379105   0.007718
     5  C    0.007819  -0.094202   0.001819   0.379105   5.125851   0.453896
     6  C   -0.000131   0.005444   0.000607   0.007718   0.453896   4.696874
     7  N    0.000019  -0.000223   0.000016  -0.052782  -0.034574   0.521869
     8  C    0.000589   0.007515  -0.000116   0.000519  -0.076735  -0.049342
     9  C   -0.000098  -0.000043   0.000005   0.009254  -0.000057   0.005931
    10  O   -0.000040   0.000003   0.000000   0.002260  -0.000057  -0.000060
    11  C    0.004816  -0.101431   0.007812   0.327877   0.004174  -0.074221
    12  H    0.396949  -0.021073  -0.011589   0.006999  -0.000146   0.000012
    13  H    0.398159  -0.028631   0.003090  -0.012936  -0.000208  -0.000019
    14  H    0.401201  -0.028548   0.002935  -0.011837  -0.000099  -0.000022
    15  H    0.003043  -0.029614   0.400093  -0.011065   0.005808   0.000715
    16  H    0.003002  -0.030146   0.400347  -0.010955   0.006273   0.000686
    17  H   -0.011501  -0.020196   0.398124   0.006886   0.000428  -0.000046
    18  H   -0.000081  -0.014858   0.010612  -0.063564   0.423205  -0.039039
    19  H    0.000008  -0.000117  -0.000045   0.006942  -0.069034   0.421411
    20  H    0.000001   0.000003  -0.000000   0.000159   0.000183   0.000231
    21  H   -0.000005   0.000009  -0.000000   0.000010  -0.000058  -0.000006
    22  H   -0.000029   0.000005  -0.000000  -0.000332  -0.000067  -0.000011
    23  H    0.011493  -0.013928  -0.000083  -0.052193   0.012366  -0.000399
               7          8          9         10         11         12
     1  C    0.000019   0.000589  -0.000098  -0.000040   0.004816   0.396949
     2  N   -0.000223   0.007515  -0.000043   0.000003  -0.101431  -0.021073
     3  C    0.000016  -0.000116   0.000005   0.000000   0.007812  -0.011589
     4  C   -0.052782   0.000519   0.009254   0.002260   0.327877   0.006999
     5  C   -0.034574  -0.076735  -0.000057  -0.000057   0.004174  -0.000146
     6  C    0.521869  -0.049342   0.005931  -0.000060  -0.074221   0.000012
     7  N    6.370369   0.495150  -0.066194   0.002158  -0.051206   0.000000
     8  C    0.495150   5.223582   0.305863  -0.059890   0.408856  -0.000073
     9  C   -0.066194   0.305863   4.558315   0.337974  -0.115618  -0.000001
    10  O    0.002158  -0.059890   0.337974   7.740804  -0.003833  -0.000001
    11  C   -0.051206   0.408856  -0.115618  -0.003833   5.264890   0.000822
    12  H    0.000000  -0.000073  -0.000001  -0.000001   0.000822   0.622623
    13  H   -0.000007   0.001423  -0.000048  -0.000043   0.007501  -0.021382
    14  H   -0.000014   0.001086   0.000062  -0.000057   0.006405  -0.021008
    15  H   -0.000015  -0.000018  -0.000000   0.000000  -0.000007   0.000287
    16  H   -0.000018  -0.000029   0.000000  -0.000000  -0.000002   0.000264
    17  H    0.000001   0.000016  -0.000000   0.000000  -0.000208   0.004384
    18  H    0.005758   0.000086   0.000069  -0.000000   0.012484  -0.000003
    19  H   -0.039724   0.005717  -0.000237   0.000001   0.001320  -0.000000
    20  H    0.010359  -0.053491   0.385340  -0.023179   0.014094  -0.000000
    21  H    0.005382  -0.002977   0.357695  -0.024833  -0.009532  -0.000000
    22  H    0.000377   0.013028  -0.049712   0.330849  -0.003188   0.000000
    23  H    0.006077  -0.054144  -0.015073   0.031683   0.411029  -0.000027
              13         14         15         16         17         18
     1  C    0.398159   0.401201   0.003043   0.003002  -0.011501  -0.000081
     2  N   -0.028631  -0.028548  -0.029614  -0.030146  -0.020196  -0.014858
     3  C    0.003090   0.002935   0.400093   0.400347   0.398124   0.010612
     4  C   -0.012936  -0.011837  -0.011065  -0.010955   0.006886  -0.063564
     5  C   -0.000208  -0.000099   0.005808   0.006273   0.000428   0.423205
     6  C   -0.000019  -0.000022   0.000715   0.000686  -0.000046  -0.039039
     7  N   -0.000007  -0.000014  -0.000015  -0.000018   0.000001   0.005758
     8  C    0.001423   0.001086  -0.000018  -0.000029   0.000016   0.000086
     9  C   -0.000048   0.000062  -0.000000   0.000000  -0.000000   0.000069
    10  O   -0.000043  -0.000057   0.000000  -0.000000   0.000000  -0.000000
    11  C    0.007501   0.006405  -0.000007  -0.000002  -0.000208   0.012484
    12  H   -0.021382  -0.021008   0.000287   0.000264   0.004384  -0.000003
    13  H    0.649220  -0.040564   0.001116  -0.000779   0.000299  -0.000012
    14  H   -0.040564   0.639430  -0.000759   0.001160   0.000246  -0.000009
    15  H    0.001116  -0.000759   0.645948  -0.041573  -0.020844  -0.001801
    16  H   -0.000779   0.001160  -0.041573   0.645203  -0.021026  -0.001647
    17  H    0.000299   0.000246  -0.020844  -0.021026   0.619903   0.000132
    18  H   -0.000012  -0.000009  -0.001801  -0.001647   0.000132   0.674518
    19  H   -0.000000  -0.000000   0.000003   0.000004  -0.000000  -0.007538
    20  H   -0.000006  -0.000000  -0.000000   0.000000   0.000000  -0.000007
    21  H    0.000004  -0.000003   0.000000   0.000000   0.000000  -0.000004
    22  H    0.000103  -0.000016   0.000000  -0.000000   0.000000  -0.000000
    23  H   -0.001997  -0.002130  -0.000017  -0.000014   0.000002  -0.000069
              19         20         21         22         23
     1  C    0.000008   0.000001  -0.000005  -0.000029   0.011493
     2  N   -0.000117   0.000003   0.000009   0.000005  -0.013928
     3  C   -0.000045  -0.000000  -0.000000  -0.000000  -0.000083
     4  C    0.006942   0.000159   0.000010  -0.000332  -0.052193
     5  C   -0.069034   0.000183  -0.000058  -0.000067   0.012366
     6  C    0.421411   0.000231  -0.000006  -0.000011  -0.000399
     7  N   -0.039724   0.010359   0.005382   0.000377   0.006077
     8  C    0.005717  -0.053491  -0.002977   0.013028  -0.054144
     9  C   -0.000237   0.385340   0.357695  -0.049712  -0.015073
    10  O    0.000001  -0.023179  -0.024833   0.330849   0.031683
    11  C    0.001320   0.014094  -0.009532  -0.003188   0.411029
    12  H   -0.000000  -0.000000  -0.000000   0.000000  -0.000027
    13  H   -0.000000  -0.000006   0.000004   0.000103  -0.001997
    14  H   -0.000000  -0.000000  -0.000003  -0.000016  -0.002130
    15  H    0.000003  -0.000000   0.000000   0.000000  -0.000017
    16  H    0.000004   0.000000   0.000000  -0.000000  -0.000014
    17  H   -0.000000   0.000000   0.000000   0.000000   0.000002
    18  H   -0.007538  -0.000007  -0.000004  -0.000000  -0.000069
    19  H    0.657460  -0.000083   0.000003   0.000000   0.000062
    20  H   -0.000083   0.667380  -0.022614  -0.011017   0.001726
    21  H    0.000003  -0.022614   0.638415   0.009891  -0.000239
    22  H    0.000000  -0.011017   0.009891   0.537242  -0.001208
    23  H    0.000062   0.001726  -0.000239  -0.001208   0.676470
 Mulliken charges:
               1
     1  C    0.084165
     2  N   -0.376406
     3  C    0.079903
     4  C    0.256854
     5  C   -0.145691
     6  C    0.047902
     7  N   -0.172777
     8  C   -0.166615
     9  C    0.286571
    10  O   -0.333739
    11  C   -0.112833
    12  H    0.042962
    13  H    0.045719
    14  H    0.052542
    15  H    0.048698
    16  H    0.049250
    17  H    0.043400
    18  H    0.001767
    19  H    0.023847
    20  H    0.030920
    21  H    0.048861
    22  H    0.174087
    23  H   -0.009387
 Sum of Mulliken charges =  -0.00000
 Mulliken charges with hydrogens summed into heavy atoms:
               1
     1  C    0.225388
     2  N   -0.376406
     3  C    0.221251
     4  C    0.256854
     5  C   -0.143924
     6  C    0.071749
     7  N   -0.172777
     8  C   -0.166615
     9  C    0.366353
    10  O   -0.159653
    11  C   -0.122220
 Electronic spatial extent (au):  <R**2>=           2037.8071
 Charge=             -0.0000 electrons
 Dipole moment (field-independent basis, Debye):
    X=             -4.0078    Y=             -1.3637    Z=             -1.0050  Tot=              4.3511
 Quadrupole moment (field-independent basis, Debye-Ang):
   XX=            -61.4558   YY=            -65.9361   ZZ=            -65.6286
   XY=              0.6386   XZ=             -2.5413   YZ=              2.1816
 Traceless Quadrupole moment (field-independent basis, Debye-Ang):
   XX=              2.8843   YY=             -1.5959   ZZ=             -1.2884
   XY=              0.6386   XZ=             -2.5413   YZ=              2.1816
 Octapole moment (field-independent basis, Debye-Ang**2):
  XXX=            -32.8952  YYY=             -6.3092  ZZZ=             -2.7692  XYY=            -22.3707
  XXY=             -4.1540  XXZ=             -6.7435  XZZ=             10.9391  YZZ=             -9.4155
  YYZ=             -6.0826  XYZ=              6.8808
 Hexadecapole moment (field-independent basis, Debye-Ang**3):
 XXXX=          -1691.1495 YYYY=           -766.2217 ZZZZ=            -90.5924 XXXY=             24.9098
 XXXZ=            -16.9778 YYYX=             -5.5276 YYYZ=             10.7461 ZZZX=             -7.2722
 ZZZY=              6.8879 XXYY=           -461.2672 XXZZ=           -291.9152 YYZZ=           -146.1146
 XXYZ=             15.6844 YYXZ=            -15.6905 ZZXY=            -17.8385
 N-N= 6.081905872225D+02 E-N=-2.369459636886D+03  KE= 4.910767057439D+02
   1 Symmetry operations used in ECPInt.
 ECPInt:  NShTT=    5253 NPrTT=   18707 LenC2=    5109 LenP2D=   13909.
 LDataN:  DoStor=T MaxTD1= 5 Len=  102
 Calling FoFJK, ICntrl=      2127 FMM=F ISym2X=0 I1Cent= 0 IOpClX= 0 NMat=1 NMatS=1 NMatT=0.
 ***** Axes restored to original set *****
 -------------------------------------------------------------------
 Center     Atomic                   Forces (Hartrees/Bohr)
 Number     Number              X              Y              Z
 -------------------------------------------------------------------
      1        6          -0.000002490   -0.000020411   -0.000002459
      2        7           0.000026296    0.000009589   -0.000007951
      3        6          -0.000009874    0.000018145    0.000000963
      4        6          -0.000034635    0.000026771    0.000003247
      5        6          -0.000030475   -0.000032584    0.000001249
      6        6           0.000051860   -0.000013411   -0.000011407
      7        7          -0.000025848    0.000048407    0.000001982
      8        6          -0.000014741   -0.000066914    0.000006242
      9        6          -0.000003115    0.000032973   -0.000000930
     10        8          -0.000003566   -0.000016957   -0.000004818
     11        6           0.000050095    0.000007004   -0.000000869
     12        1           0.000002881    0.000003944   -0.000001495
     13        1          -0.000003302   -0.000000598    0.000004360
     14        1          -0.000001466   -0.000002938    0.000002414
     15        1           0.000003272   -0.000002157    0.000001595
     16        1           0.000001719    0.000000793    0.000000699
     17        1           0.000001759    0.000002717    0.000000587
     18        1          -0.000002200    0.000000185    0.000000338
     19        1          -0.000002628    0.000004664    0.000002449
     20        1           0.000000487   -0.000003655   -0.000001390
     21        1          -0.000001798   -0.000003157   -0.000002099
     22        1           0.000001441    0.000004130    0.000006123
     23        1          -0.000003671    0.000003460    0.000001170
 -------------------------------------------------------------------
 Cartesian Forces:  Max     0.000066914 RMS     0.000017284

 GradGradGradGradGradGradGradGradGradGradGradGradGradGradGradGradGradGrad
 Berny optimization.
 FormGI is forming the generalized inverse of G from B-inverse, IUseBI=4.
 Internal  Forces:  Max     0.000036344 RMS     0.000009881
 Search for a local minimum.
 Step number   1 out of a maximum of  116
 All quantities printed in internal units (Hartrees-Bohrs-Radians)
 Mixed Optimization -- En-DIIS/RFO-DIIS
 Second derivative matrix not updated -- first step.
 ITU=  0
     Eigenvalues ---    0.00556   0.01102   0.01109   0.01353   0.01540
     Eigenvalues ---    0.01668   0.01955   0.02024   0.02058   0.02090
     Eigenvalues ---    0.02099   0.02225   0.02350   0.02478   0.05721
     Eigenvalues ---    0.07244   0.07247   0.07458   0.07554   0.07558
     Eigenvalues ---    0.11979   0.14302   0.15999   0.16000   0.16000
     Eigenvalues ---    0.16000   0.16000   0.16000   0.16000   0.16000
     Eigenvalues ---    0.16000   0.16000   0.22082   0.22317   0.23478
     Eigenvalues ---    0.24560   0.24997   0.24998   0.24998   0.25000
     Eigenvalues ---    0.30765   0.33105   0.33214   0.33230   0.33245
     Eigenvalues ---    0.33259   0.33481   0.34072   0.34073   0.34095
     Eigenvalues ---    0.34926   0.34973   0.38962   0.39032   0.41752
     Eigenvalues ---    0.41958   0.45159   0.45326   0.47348   0.51134
     Eigenvalues ---    0.55057   0.56295   0.58048
 RFO step:  Lambda=-3.40359574D-08 EMin= 5.55570135D-03
 Linear search not attempted -- first point.
 Iteration  1 RMS(Cart)=  0.00020975 RMS(Int)=  0.00000001
 Iteration  2 RMS(Cart)=  0.00000002 RMS(Int)=  0.00000000
 Variable       Old X    -DE/DX   Delta X   Delta X   Delta X     New X
                                 (Linear)    (Quad)   (Total)
    R1        2.72989   0.00002   0.00000   0.00005   0.00005   2.72994
    R2        2.07209  -0.00000   0.00000  -0.00001  -0.00001   2.07208
    R3        2.08623  -0.00000   0.00000  -0.00001  -0.00001   2.08621
    R4        2.08599   0.00000   0.00000   0.00001   0.00001   2.08599
    R5        2.72891   0.00001   0.00000   0.00003   0.00003   2.72894
    R6        2.58738  -0.00002   0.00000  -0.00004  -0.00004   2.58734
    R7        2.08650  -0.00000   0.00000  -0.00001  -0.00001   2.08649
    R8        2.08678   0.00000   0.00000   0.00000   0.00000   2.08678
    R9        2.07207  -0.00000   0.00000  -0.00001  -0.00001   2.07206
   R10        2.66920  -0.00003   0.00000  -0.00006  -0.00006   2.66914
   R11        2.66787   0.00003   0.00000   0.00006   0.00006   2.66793
   R12        2.62508   0.00002   0.00000   0.00004   0.00004   2.62512
   R13        2.05796   0.00000   0.00000   0.00001   0.00001   2.05796
   R14        2.51441  -0.00003   0.00000  -0.00005  -0.00005   2.51435
   R15        2.07169   0.00000   0.00000   0.00001   0.00001   2.07171
   R16        2.52374   0.00003   0.00000   0.00006   0.00006   2.52380
   R17        2.86464  -0.00001   0.00000  -0.00004  -0.00004   2.86460
   R18        2.62773  -0.00003   0.00000  -0.00005  -0.00005   2.62768
   R19        2.64899   0.00001   0.00000   0.00002   0.00002   2.64901
   R20        2.08868  -0.00000   0.00000  -0.00000  -0.00000   2.08868
   R21        2.08214  -0.00000   0.00000  -0.00001  -0.00001   2.08213
   R22        1.81782  -0.00001   0.00000  -0.00001  -0.00001   1.81780
   R23        2.05719  -0.00000   0.00000  -0.00001  -0.00001   2.05718
    A1        1.90986  -0.00001   0.00000  -0.00004  -0.00004   1.90982
    A2        1.95394   0.00000   0.00000   0.00003   0.00003   1.95397
    A3        1.95502   0.00000   0.00000   0.00003   0.00003   1.95506
    A4        1.88044  -0.00000   0.00000  -0.00002  -0.00002   1.88042
    A5        1.88159  -0.00000   0.00000  -0.00001  -0.00001   1.88158
    A6        1.88009  -0.00000   0.00000   0.00000   0.00000   1.88009
    A7        2.09916   0.00001   0.00000   0.00003   0.00003   2.09919
    A8        2.09103   0.00003   0.00000   0.00012   0.00012   2.09115
    A9        2.09291  -0.00004   0.00000  -0.00015  -0.00015   2.09276
   A10        1.95430  -0.00000   0.00000  -0.00003  -0.00003   1.95427
   A11        1.95515  -0.00000   0.00000  -0.00001  -0.00001   1.95514
   A12        1.91023   0.00000   0.00000   0.00002   0.00002   1.91025
   A13        1.88158   0.00000   0.00000   0.00001   0.00001   1.88159
   A14        1.87950   0.00000   0.00000   0.00001   0.00001   1.87951
   A15        1.88005   0.00000   0.00000   0.00001   0.00001   1.88006
   A16        2.13208  -0.00003   0.00000  -0.00011  -0.00011   2.13197
   A17        2.12610   0.00002   0.00000   0.00010   0.00010   2.12620
   A18        2.02500   0.00000   0.00000   0.00002   0.00002   2.02501
   A19        2.07742  -0.00000   0.00000  -0.00001  -0.00001   2.07741
   A20        2.12746  -0.00000   0.00000  -0.00000  -0.00000   2.12745
   A21        2.07831   0.00000   0.00000   0.00001   0.00001   2.07832
   A22        2.17865   0.00000   0.00000   0.00001   0.00001   2.17866
   A23        2.07520  -0.00000   0.00000  -0.00002  -0.00002   2.07517
   A24        2.02933   0.00000   0.00000   0.00002   0.00002   2.02934
   A25        2.03301   0.00000   0.00000   0.00001   0.00001   2.03302
   A26        2.01960  -0.00001   0.00000  -0.00004  -0.00004   2.01956
   A27        2.16402  -0.00000   0.00000  -0.00001  -0.00001   2.16401
   A28        2.09941   0.00001   0.00000   0.00005   0.00005   2.09945
   A29        1.99750  -0.00001   0.00000  -0.00003  -0.00003   1.99747
   A30        1.88072   0.00000   0.00000   0.00003   0.00003   1.88075
   A31        1.89080   0.00000   0.00000   0.00001   0.00001   1.89080
   A32        1.97027  -0.00000   0.00000  -0.00001  -0.00001   1.97026
   A33        1.86145  -0.00000   0.00000  -0.00002  -0.00002   1.86143
   A34        1.85659   0.00000   0.00000   0.00002   0.00002   1.85662
   A35        1.88280  -0.00001   0.00000  -0.00005  -0.00005   1.88276
   A36        2.08825  -0.00000   0.00000  -0.00001  -0.00001   2.08824
   A37        2.13376  -0.00000   0.00000  -0.00002  -0.00002   2.13374
   A38        2.06112   0.00000   0.00000   0.00002   0.00002   2.06114
    D1        0.01013   0.00000   0.00000   0.00013   0.00013   0.01026
    D2        3.13744   0.00000   0.00000   0.00007   0.00007   3.13752
    D3        2.09362  -0.00000   0.00000   0.00010   0.00010   2.09372
    D4       -1.06225  -0.00000   0.00000   0.00004   0.00004  -1.06221
    D5       -2.07548   0.00000   0.00000   0.00014   0.00014  -2.07534
    D6        1.05183   0.00000   0.00000   0.00009   0.00009   1.05192
    D7       -2.09650  -0.00000   0.00000  -0.00002  -0.00002  -2.09652
    D8        2.07031   0.00000   0.00000   0.00000   0.00000   2.07031
    D9       -0.01371  -0.00000   0.00000  -0.00001  -0.00001  -0.01372
   D10        1.05938  -0.00000   0.00000   0.00004   0.00004   1.05942
   D11       -1.05699   0.00000   0.00000   0.00006   0.00006  -1.05693
   D12       -3.14101   0.00000   0.00000   0.00004   0.00004  -3.14097
   D13       -3.13216  -0.00000   0.00000  -0.00008  -0.00008  -3.13224
   D14        0.00619  -0.00000   0.00000  -0.00001  -0.00001   0.00618
   D15       -0.00479  -0.00000   0.00000  -0.00013  -0.00013  -0.00493
   D16        3.13356  -0.00000   0.00000  -0.00007  -0.00007   3.13349
   D17        3.13841   0.00000   0.00000   0.00010   0.00010   3.13851
   D18       -0.00369   0.00000   0.00000   0.00008   0.00008  -0.00361
   D19       -0.00011   0.00000   0.00000   0.00004   0.00004  -0.00008
   D20        3.14097   0.00000   0.00000   0.00002   0.00002   3.14098
   D21        3.14152  -0.00000   0.00000  -0.00003  -0.00003   3.14148
   D22       -0.01235  -0.00000   0.00000  -0.00006  -0.00006  -0.01241
   D23       -0.00313   0.00000   0.00000   0.00003   0.00003  -0.00310
   D24        3.12619   0.00000   0.00000   0.00001   0.00001   3.12619
   D25        0.00580  -0.00000   0.00000  -0.00011  -0.00011   0.00570
   D26       -3.14121   0.00000   0.00000   0.00008   0.00008  -3.14113
   D27       -3.13530  -0.00000   0.00000  -0.00009  -0.00009  -3.13538
   D28        0.00088   0.00000   0.00000   0.00010   0.00010   0.00098
   D29       -0.00759   0.00000   0.00000   0.00010   0.00010  -0.00749
   D30        3.13929  -0.00000   0.00000  -0.00008  -0.00008   3.13921
   D31       -3.11829  -0.00000   0.00000  -0.00011  -0.00011  -3.11840
   D32        0.00393  -0.00000   0.00000  -0.00003  -0.00003   0.00390
   D33       -2.85587  -0.00000   0.00000  -0.00002  -0.00002  -2.85588
   D34       -0.64879  -0.00000   0.00000  -0.00002  -0.00002  -0.64881
   D35        1.35323   0.00000   0.00000   0.00002   0.00002   1.35326
   D36        0.30432  -0.00000   0.00000  -0.00009  -0.00009   0.30423
   D37        2.51141  -0.00000   0.00000  -0.00010  -0.00010   2.51131
   D38       -1.76976   0.00000   0.00000  -0.00005  -0.00005  -1.76981
   D39        0.00132  -0.00000   0.00000  -0.00004  -0.00004   0.00129
   D40       -3.12850   0.00000   0.00000  -0.00001  -0.00001  -3.12852
   D41        3.12270   0.00000   0.00000   0.00005   0.00005   3.12275
   D42       -0.00712   0.00000   0.00000   0.00007   0.00007  -0.00706
   D43        1.14271   0.00000   0.00000   0.00003   0.00003   1.14274
   D44       -1.01716   0.00000   0.00000   0.00002   0.00002  -1.01715
   D45       -3.04991  -0.00000   0.00000   0.00000   0.00000  -3.04991
         Item               Value     Threshold  Converged?
 Maximum Force            0.000036     0.000450     YES
 RMS     Force            0.000010     0.000300     YES
 Maximum Displacement     0.000671     0.001800     YES
 RMS     Displacement     0.000210     0.001200     YES
 Predicted change in Energy=-1.701799D-08
 Optimization completed.
    -- Stationary point found.
                           ----------------------------
                           !   Optimized Parameters   !
                           ! (Angstroms and Degrees)  !
 --------------------------                            --------------------------
 ! Name  Definition              Value          Derivative Info.                !
 --------------------------------------------------------------------------------
 ! R1    R(1,2)                  1.4446         -DE/DX =    0.0                 !
 ! R2    R(1,12)                 1.0965         -DE/DX =    0.0                 !
 ! R3    R(1,13)                 1.104          -DE/DX =    0.0                 !
 ! R4    R(1,14)                 1.1039         -DE/DX =    0.0                 !
 ! R5    R(2,3)                  1.4441         -DE/DX =    0.0                 !
 ! R6    R(2,4)                  1.3692         -DE/DX =    0.0                 !
 ! R7    R(3,15)                 1.1041         -DE/DX =    0.0                 !
 ! R8    R(3,16)                 1.1043         -DE/DX =    0.0                 !
 ! R9    R(3,17)                 1.0965         -DE/DX =    0.0                 !
 ! R10   R(4,5)                  1.4125         -DE/DX =    0.0                 !
 ! R11   R(4,11)                 1.4118         -DE/DX =    0.0                 !
 ! R12   R(5,6)                  1.3891         -DE/DX =    0.0                 !
 ! R13   R(5,18)                 1.089          -DE/DX =    0.0                 !
 ! R14   R(6,7)                  1.3306         -DE/DX =    0.0                 !
 ! R15   R(6,19)                 1.0963         -DE/DX =    0.0                 !
 ! R16   R(7,8)                  1.3355         -DE/DX =    0.0                 !
 ! R17   R(8,9)                  1.5159         -DE/DX =    0.0                 !
 ! R18   R(8,11)                 1.3905         -DE/DX =    0.0                 !
 ! R19   R(9,10)                 1.4018         -DE/DX =    0.0                 !
 ! R20   R(9,20)                 1.1053         -DE/DX =    0.0                 !
 ! R21   R(9,21)                 1.1018         -DE/DX =    0.0                 !
 ! R22   R(10,22)                0.9619         -DE/DX =    0.0                 !
 ! R23   R(11,23)                1.0886         -DE/DX =    0.0                 !
 ! A1    A(2,1,12)             109.427          -DE/DX =    0.0                 !
 ! A2    A(2,1,13)             111.9525         -DE/DX =    0.0                 !
 ! A3    A(2,1,14)             112.0146         -DE/DX =    0.0                 !
 ! A4    A(12,1,13)            107.7411         -DE/DX =    0.0                 !
 ! A5    A(12,1,14)            107.8069         -DE/DX =    0.0                 !
 ! A6    A(13,1,14)            107.721          -DE/DX =    0.0                 !
 ! A7    A(1,2,3)              120.273          -DE/DX =    0.0                 !
 ! A8    A(1,2,4)              119.8072         -DE/DX =    0.0                 !
 ! A9    A(3,2,4)              119.9148         -DE/DX =    0.0                 !
 ! A10   A(2,3,15)             111.9731         -DE/DX =    0.0                 !
 ! A11   A(2,3,16)             112.022          -DE/DX =    0.0                 !
 ! A12   A(2,3,17)             109.4481         -DE/DX =    0.0                 !
 ! A13   A(15,3,16)            107.8068         -DE/DX =    0.0                 !
 ! A14   A(15,3,17)            107.6875         -DE/DX =    0.0                 !
 ! A15   A(16,3,17)            107.7191         -DE/DX =    0.0                 !
 ! A16   A(2,4,5)              122.1594         -DE/DX =    0.0                 !
 ! A17   A(2,4,11)             121.8165         -DE/DX =    0.0                 !
 ! A18   A(5,4,11)             116.0239         -DE/DX =    0.0                 !
 ! A19   A(4,5,6)              119.0274         -DE/DX =    0.0                 !
 ! A20   A(4,5,18)             121.8942         -DE/DX =    0.0                 !
 ! A21   A(6,5,18)             119.0784         -DE/DX =    0.0                 !
 ! A22   A(5,6,7)              124.8276         -DE/DX =    0.0                 !
 ! A23   A(5,6,19)             118.8999         -DE/DX =    0.0                 !
 ! A24   A(7,6,19)             116.2718         -DE/DX =    0.0                 !
 ! A25   A(6,7,8)              116.4829         -DE/DX =    0.0                 !
 ! A26   A(7,8,9)              115.7144         -DE/DX =    0.0                 !
 ! A27   A(7,8,11)             123.9892         -DE/DX =    0.0                 !
 ! A28   A(9,8,11)             120.2871         -DE/DX =    0.0                 !
 ! A29   A(8,9,10)             114.4484         -DE/DX =    0.0                 !
 ! A30   A(8,9,20)             107.7572         -DE/DX =    0.0                 !
 ! A31   A(8,9,21)             108.3348         -DE/DX =    0.0                 !
 ! A32   A(10,9,20)            112.8883         -DE/DX =    0.0                 !
 ! A33   A(10,9,21)            106.6534         -DE/DX =    0.0                 !
 ! A34   A(20,9,21)            106.3749         -DE/DX =    0.0                 !
 ! A35   A(9,10,22)            107.8767         -DE/DX =    0.0                 !
 ! A36   A(4,11,8)             119.6477         -DE/DX =    0.0                 !
 ! A37   A(4,11,23)            122.2552         -DE/DX =    0.0                 !
 ! A38   A(8,11,23)            118.0935         -DE/DX =    0.0                 !
 ! D1    D(12,1,2,3)             0.5804         -DE/DX =    0.0                 !
 ! D2    D(12,1,2,4)           179.7623         -DE/DX =    0.0                 !
 ! D3    D(13,1,2,3)           119.9555         -DE/DX =    0.0                 !
 ! D4    D(13,1,2,4)           -60.8626         -DE/DX =    0.0                 !
 ! D5    D(14,1,2,3)          -118.9163         -DE/DX =    0.0                 !
 ! D6    D(14,1,2,4)            60.2656         -DE/DX =    0.0                 !
 ! D7    D(1,2,3,15)          -120.1208         -DE/DX =    0.0                 !
 ! D8    D(1,2,3,16)           118.6199         -DE/DX =    0.0                 !
 ! D9    D(1,2,3,17)            -0.7857         -DE/DX =    0.0                 !
 ! D10   D(4,2,3,15)            60.6982         -DE/DX =    0.0                 !
 ! D11   D(4,2,3,16)           -60.5611         -DE/DX =    0.0                 !
 ! D12   D(4,2,3,17)          -179.9667         -DE/DX =    0.0                 !
 ! D13   D(1,2,4,5)           -179.4594         -DE/DX =    0.0                 !
 ! D14   D(1,2,4,11)             0.3548         -DE/DX =    0.0                 !
 ! D15   D(3,2,4,5)             -0.2745         -DE/DX =    0.0                 !
 ! D16   D(3,2,4,11)           179.5397         -DE/DX =    0.0                 !
 ! D17   D(2,4,5,6)            179.8179         -DE/DX =    0.0                 !
 ! D18   D(2,4,5,18)            -0.2114         -DE/DX =    0.0                 !
 ! D19   D(11,4,5,6)            -0.0065         -DE/DX =    0.0                 !
 ! D20   D(11,4,5,18)          179.9643         -DE/DX =    0.0                 !
 ! D21   D(2,4,11,8)           179.9957         -DE/DX =    0.0                 !
 ! D22   D(2,4,11,23)           -0.7077         -DE/DX =    0.0                 !
 ! D23   D(5,4,11,8)            -0.1793         -DE/DX =    0.0                 !
 ! D24   D(5,4,11,23)          179.1173         -DE/DX =    0.0                 !
 ! D25   D(4,5,6,7)              0.3324         -DE/DX =    0.0                 !
 ! D26   D(4,5,6,19)          -179.9782         -DE/DX =    0.0                 !
 ! D27   D(18,5,6,7)          -179.6392         -DE/DX =    0.0                 !
 ! D28   D(18,5,6,19)            0.0502         -DE/DX =    0.0                 !
 ! D29   D(5,6,7,8)             -0.4351         -DE/DX =    0.0                 !
 ! D30   D(19,6,7,8)           179.8681         -DE/DX =    0.0                 !
 ! D31   D(6,7,8,9)           -178.6649         -DE/DX =    0.0                 !
 ! D32   D(6,7,8,11)             0.2252         -DE/DX =    0.0                 !
 ! D33   D(7,8,9,10)          -163.6293         -DE/DX =    0.0                 !
 ! D34   D(7,8,9,20)           -37.1728         -DE/DX =    0.0                 !
 ! D35   D(7,8,9,21)            77.5345         -DE/DX =    0.0                 !
 ! D36   D(11,8,9,10)           17.4365         -DE/DX =    0.0                 !
 ! D37   D(11,8,9,20)          143.8929         -DE/DX =    0.0                 !
 ! D38   D(11,8,9,21)         -101.3998         -DE/DX =    0.0                 !
 ! D39   D(7,8,11,4)             0.0757         -DE/DX =    0.0                 !
 ! D40   D(7,8,11,23)         -179.2501         -DE/DX =    0.0                 !
 ! D41   D(9,8,11,4)           178.9176         -DE/DX =    0.0                 !
 ! D42   D(9,8,11,23)           -0.4082         -DE/DX =    0.0                 !
 ! D43   D(8,9,10,22)           65.4724         -DE/DX =    0.0                 !
 ! D44   D(20,9,10,22)         -58.2792         -DE/DX =    0.0                 !
 ! D45   D(21,9,10,22)        -174.7472         -DE/DX =    0.0                 !
 --------------------------------------------------------------------------------
 GradGradGradGradGradGradGradGradGradGradGradGradGradGradGradGradGradGrad

                          Input orientation:                          
 ---------------------------------------------------------------------
 Center     Atomic      Atomic             Coordinates (Angstroms)
 Number     Number       Type             X           Y           Z
 ---------------------------------------------------------------------
      1          6           0       -2.015890   -1.972440    0.074870
      2          7           0       -2.049480   -0.529950    0.004510
      3          6           0       -3.313060    0.167040   -0.049560
      4          6           0       -0.878130    0.178990    0.006030
      5          6           0       -0.853330    1.590150   -0.049750
      6          6           0        0.372460    2.243640   -0.040760
      7          7           0        1.556090    1.638050    0.011080
      8          6           0        1.540480    0.303780    0.066330
      9          6           0        2.897050   -0.366690    0.156620
     10          8           0        2.889150   -1.735240   -0.146700
     11          6           0        0.378920   -0.460660    0.067540
     12          1           0       -3.040850   -2.361940    0.066740
     13          1           0       -1.480960   -2.415160   -0.783400
     14          1           0       -1.526030   -2.330430    0.997030
     15          1           0       -3.411710    0.772960   -0.967290
     16          1           0       -3.452560    0.839130    0.815460
     17          1           0       -4.132490   -0.561500   -0.041680
     18          1           0       -1.767300    2.180150   -0.100050
     19          1           0        0.389260    3.338960   -0.083760
     20          1           0        3.600150    0.209020   -0.472550
     21          1           0        3.260730   -0.274980    1.192640
     22          1           0        2.653670   -1.830710   -1.074480
     23          1           0        0.477660   -1.543110    0.127890
 ---------------------------------------------------------------------
                    Distance matrix (angstroms):
                    1          2          3          4          5
     1  C    0.000000
     2  N    1.444596   0.000000
     3  C    2.505096   1.444075   0.000000
     4  C    2.434725   1.369182   2.435594   0.000000
     5  C    3.749550   2.434860   2.841745   1.412480   0.000000
     6  C    4.846949   3.682478   4.230296   2.414321   1.389133
     7  N    5.079247   4.207185   5.086862   2.838011   2.410664
     8  C    4.222442   3.686020   4.856849   2.422578   2.720027
     9  C    5.169342   4.951560   6.236413   3.817385   4.235229
    10  O    4.915768   5.085829   6.488106   4.228475   5.007372
    11  C    2.832075   2.430206   3.746790   1.411776   2.395416
    12  H    1.096503   2.083956   2.546245   3.337270   4.518609
    13  H    1.103983   2.120857   3.250057   2.777808   4.120033
    14  H    1.103856   2.121515   3.244408   2.774715   4.113298
    15  H    3.251405   2.120764   1.104128   2.778341   2.838131
    16  H    3.243057   2.121474   1.104276   2.778246   2.840531
    17  H    2.546435   2.083761   1.096494   3.337883   3.922060
    18  H    4.163700   2.726756   2.538609   2.192377   1.089023
    19  H    5.832742   4.574244   4.875389   3.405841   2.145582
    20  H    6.049656   5.717690   6.926266   4.503880   4.681855
    21  H    5.654511   5.447476   6.704712   4.329468   4.684841
    22  H    4.811017   4.997581   6.375212   4.204760   5.005138
    23  H    2.530796   2.725464   4.162410   2.195141   3.408872
                    6          7          8          9         10
     6  C    0.000000
     7  N    1.330566   0.000000
     8  C    2.266891   1.335505   0.000000
     9  C    3.636803   2.416265   1.515904   0.000000
    10  O    4.709187   3.630569   2.453955   1.401783   0.000000
    11  C    2.706475   2.406969   1.390536   2.521457   2.823421
    12  H    5.733551   6.093839   5.300438   6.264803   5.966843
    13  H    5.068639   5.126732   4.152563   4.924108   4.468281
    14  H    5.059979   5.120585   4.148343   4.911843   4.599585
    15  H    4.164289   5.136597   5.080619   6.508643   6.831198
    16  H    4.163717   5.135355   5.077228   6.496585   6.911615
    17  H    5.306919   6.099241   5.739596   7.035034   7.119840
    18  H    2.141523   3.369146   3.806554   5.320567   6.083994
    19  H    1.096292   2.064844   3.249639   4.480919   5.656935
    20  H    3.839805   2.540513   2.131106   1.105281   2.095673
    21  H    4.025770   2.821625   2.136071   1.101822   2.016002
    22  H    4.782554   3.796764   2.663961   1.928262   0.961947
    23  H    3.791963   3.361017   2.131755   2.690397   2.434666
                   11         12         13         14         15
    11  C    0.000000
    12  H    3.912760   0.000000
    13  H    2.829014   1.777309   0.000000
    14  H    2.826451   1.777952   1.783015   0.000000
    15  H    4.118442   3.321800   3.731718   4.128604   0.000000
    16  H    4.114496   3.313146   4.127222   3.713569   1.784445
    17  H    4.513858   2.108321   3.319159   3.316876   1.776812
    18  H    3.407084   4.720204   4.654657   4.648347   2.331603
    19  H    3.802645   6.654965   6.090740   6.080989   4.670370
    20  H    3.334140   7.141677   5.727183   5.906454   7.051878
    21  H    3.099219   6.732976   5.564955   5.213081   7.091187
    22  H    2.890629   5.831993   4.185866   4.691563   6.601471
    23  H    1.088618   3.613051   2.329616   2.321648   4.657338
                   16         17         18         19         20
    16  H    0.000000
    17  H    1.777290   0.000000
    18  H    2.340212   3.621350   0.000000
    19  H    4.670902   5.971732   2.448235   0.000000
    20  H    7.196994   7.782870   5.730064   4.500833   0.000000
    21  H    6.815553   7.501023   5.742804   4.789060   1.767009
    22  H    6.927190   6.980655   6.048263   5.730145   2.327798
    23  H    4.646983   4.716545   4.353673   4.887455   3.630486
                   21         22         23
    21  H    0.000000
    22  H    2.815786   0.000000
    23  H    3.238414   2.502684   0.000000
 Stoichiometry    C8H12N2O
 Framework group  C1[X(C8H12N2O)]
 Deg. of freedom    63
 Full point group                 C1      NOp   1
 Largest Abelian subgroup         C1      NOp   1
 Largest concise Abelian subgroup C1      NOp   1
                         Standard orientation:                         
 ---------------------------------------------------------------------
 Center     Atomic      Atomic             Coordinates (Angstroms)
 Number     Number       Type             X           Y           Z
 ---------------------------------------------------------------------
      1          6           0       -2.015894   -1.972437    0.074870
      2          7           0       -2.049481   -0.529947    0.004510
      3          6           0       -3.313060    0.167045   -0.049560
      4          6           0       -0.878130    0.178991    0.006030
      5          6           0       -0.853328    1.590151   -0.049750
      6          6           0        0.372463    2.243639   -0.040760
      7          7           0        1.556092    1.638047    0.011080
      8          6           0        1.540480    0.303777    0.066330
      9          6           0        2.897049   -0.366695    0.156620
     10          8           0        2.889147   -1.735245   -0.146700
     11          6           0        0.378919   -0.460661    0.067540
     12          1           0       -3.040854   -2.361936    0.066740
     13          1           0       -1.480964   -2.415158   -0.783400
     14          1           0       -1.526034   -2.330428    0.997030
     15          1           0       -3.411709    0.772965   -0.967290
     16          1           0       -3.452559    0.839135    0.815460
     17          1           0       -4.132491   -0.561494   -0.041680
     18          1           0       -1.767297    2.180152   -0.100050
     19          1           0        0.389265    3.338959   -0.083760
     20          1           0        3.600150    0.209014   -0.472550
     21          1           0        3.260729   -0.274985    1.192640
     22          1           0        2.653667   -1.830714   -1.074480
     23          1           0        0.477657   -1.543111    0.127890
 ---------------------------------------------------------------------
 Rotational constants (GHZ):           1.8018283           0.7738354           0.5495725
 Unable to Open any file for archive entry.
 1\1\GINC-NOTCH289\FOpt\RwB97XD\def2SVP\C8H12N2O1\U6053008\12-Jul-2024\
 0\\#N OPT FREQ=NORAMAN Integral(Ultrafine) wB97XD def2SVP\\12300592_2\
 \0,1\C,-2.01589,-1.97244,0.07487\N,-2.04948,-0.52995,0.00451\C,-3.3130
 6,0.16704,-0.04956\C,-0.87813,0.17899,0.00603\C,-0.85333,1.59015,-0.04
 975\C,0.37246,2.24364,-0.04076\N,1.55609,1.63805,0.01108\C,1.54048,0.3
 0378,0.06633\C,2.89705,-0.36669,0.15662\O,2.88915,-1.73524,-0.1467\C,0
 .37892,-0.46066,0.06754\H,-3.04085,-2.36194,0.06674\H,-1.48096,-2.4151
 6,-0.7834\H,-1.52603,-2.33043,0.99703\H,-3.41171,0.77296,-0.96729\H,-3
 .45256,0.83913,0.81546\H,-4.13249,-0.5615,-0.04168\H,-1.7673,2.18015,-
 0.10005\H,0.38926,3.33896,-0.08376\H,3.60015,0.20902,-0.47255\H,3.2607
 3,-0.27498,1.19264\H,2.65367,-1.83071,-1.07448\H,0.47766,-1.54311,0.12
 789\\Version=ES64L-G16RevC.01\State=1-A\HF=-496.2728966\RMSD=4.151e-09
 \RMSF=1.728e-05\Dipole=-1.5767831,-0.5365341,-0.3954108\Quadrupole=2.1
 44422,-1.1865196,-0.9579024,0.4747736,-1.8894035,1.6219601\PG=C01 [X(C
 8H12N2O1)]\\@
 The archive entry for this job was punched.


 THE GREAT THING ABOUT BEING IMPERFECT IS THE JOY IT BRINGS OTHERS.
   -- SIGN OUTSIDE LAKE AGASSIZ JR. HIGH SCHOOL, FARGO, N.D.
 Job cpu time:       0 days  0 hours  7 minutes 26.7 seconds.
 Elapsed time:       0 days  0 hours  0 minutes 28.5 seconds.
 File lengths (MBytes):  RWF=     40 Int=      0 D2E=      0 Chk=      5 Scr=      2
 Normal termination of Gaussian 16 at Fri Jul 12 13:08:14 2024.
 Link1:  Proceeding to internal job step number  2.
 --------------------------------------------------------------------
 #N Geom=AllCheck Guess=TCheck SCRF=Check GenChk RwB97XD/def2SVP Freq
 --------------------------------------------------------------------
 1/10=4,29=7,30=1,38=1,40=1/1,3;
 2/12=2,40=1/2;
 3/5=43,7=101,11=2,14=-4,25=1,30=1,70=2,71=2,74=-58,75=-5,116=1,140=1/1,2,3;
 4/5=101/1;
 5/5=2,38=6,98=1/2;
 8/6=4,10=90,11=11/1;
 11/6=1,8=1,9=11,15=111,16=1/1,2,10;
 10/6=1/2;
 6/7=2,8=2,9=2,10=2,28=1/1;
 7/8=1,10=1,25=1/1,2,3,16;
 1/10=4,30=1/3;
 99//99;
 Structure from the checkpoint file:  "12300592_2.chk"
 ----------
 12300592_2
 ----------
 Charge =  0 Multiplicity = 1
 Redundant internal coordinates found in file.  (old form).
 C,0,-2.01589,-1.97244,0.07487
 N,0,-2.04948,-0.52995,0.00451
 C,0,-3.31306,0.16704,-0.04956
 C,0,-0.87813,0.17899,0.00603
 C,0,-0.85333,1.59015,-0.04975
 C,0,0.37246,2.24364,-0.04076
 N,0,1.55609,1.63805,0.01108
 C,0,1.54048,0.30378,0.06633
 C,0,2.89705,-0.36669,0.15662
 O,0,2.88915,-1.73524,-0.1467
 C,0,0.37892,-0.46066,0.06754
 H,0,-3.04085,-2.36194,0.06674
 H,0,-1.48096,-2.41516,-0.7834
 H,0,-1.52603,-2.33043,0.99703
 H,0,-3.41171,0.77296,-0.96729
 H,0,-3.45256,0.83913,0.81546
 H,0,-4.13249,-0.5615,-0.04168
 H,0,-1.7673,2.18015,-0.10005
 H,0,0.38926,3.33896,-0.08376
 H,0,3.60015,0.20902,-0.47255
 H,0,3.26073,-0.27498,1.19264
 H,0,2.65367,-1.83071,-1.07448
 H,0,0.47766,-1.54311,0.12789
 Recover connectivity data from disk.

 GradGradGradGradGradGradGradGradGradGradGradGradGradGradGradGradGradGrad
 Berny optimization.
 Initialization pass.
                           ----------------------------
                           !    Initial Parameters    !
                           ! (Angstroms and Degrees)  !
 --------------------------                            --------------------------
 ! Name  Definition              Value          Derivative Info.                !
 --------------------------------------------------------------------------------
 ! R1    R(1,2)                  1.4446         calculate D2E/DX2 analytically  !
 ! R2    R(1,12)                 1.0965         calculate D2E/DX2 analytically  !
 ! R3    R(1,13)                 1.104          calculate D2E/DX2 analytically  !
 ! R4    R(1,14)                 1.1039         calculate D2E/DX2 analytically  !
 ! R5    R(2,3)                  1.4441         calculate D2E/DX2 analytically  !
 ! R6    R(2,4)                  1.3692         calculate D2E/DX2 analytically  !
 ! R7    R(3,15)                 1.1041         calculate D2E/DX2 analytically  !
 ! R8    R(3,16)                 1.1043         calculate D2E/DX2 analytically  !
 ! R9    R(3,17)                 1.0965         calculate D2E/DX2 analytically  !
 ! R10   R(4,5)                  1.4125         calculate D2E/DX2 analytically  !
 ! R11   R(4,11)                 1.4118         calculate D2E/DX2 analytically  !
 ! R12   R(5,6)                  1.3891         calculate D2E/DX2 analytically  !
 ! R13   R(5,18)                 1.089          calculate D2E/DX2 analytically  !
 ! R14   R(6,7)                  1.3306         calculate D2E/DX2 analytically  !
 ! R15   R(6,19)                 1.0963         calculate D2E/DX2 analytically  !
 ! R16   R(7,8)                  1.3355         calculate D2E/DX2 analytically  !
 ! R17   R(8,9)                  1.5159         calculate D2E/DX2 analytically  !
 ! R18   R(8,11)                 1.3905         calculate D2E/DX2 analytically  !
 ! R19   R(9,10)                 1.4018         calculate D2E/DX2 analytically  !
 ! R20   R(9,20)                 1.1053         calculate D2E/DX2 analytically  !
 ! R21   R(9,21)                 1.1018         calculate D2E/DX2 analytically  !
 ! R22   R(10,22)                0.9619         calculate D2E/DX2 analytically  !
 ! R23   R(11,23)                1.0886         calculate D2E/DX2 analytically  !
 ! A1    A(2,1,12)             109.427          calculate D2E/DX2 analytically  !
 ! A2    A(2,1,13)             111.9525         calculate D2E/DX2 analytically  !
 ! A3    A(2,1,14)             112.0146         calculate D2E/DX2 analytically  !
 ! A4    A(12,1,13)            107.7411         calculate D2E/DX2 analytically  !
 ! A5    A(12,1,14)            107.8069         calculate D2E/DX2 analytically  !
 ! A6    A(13,1,14)            107.721          calculate D2E/DX2 analytically  !
 ! A7    A(1,2,3)              120.273          calculate D2E/DX2 analytically  !
 ! A8    A(1,2,4)              119.8072         calculate D2E/DX2 analytically  !
 ! A9    A(3,2,4)              119.9148         calculate D2E/DX2 analytically  !
 ! A10   A(2,3,15)             111.9731         calculate D2E/DX2 analytically  !
 ! A11   A(2,3,16)             112.022          calculate D2E/DX2 analytically  !
 ! A12   A(2,3,17)             109.4481         calculate D2E/DX2 analytically  !
 ! A13   A(15,3,16)            107.8068         calculate D2E/DX2 analytically  !
 ! A14   A(15,3,17)            107.6875         calculate D2E/DX2 analytically  !
 ! A15   A(16,3,17)            107.7191         calculate D2E/DX2 analytically  !
 ! A16   A(2,4,5)              122.1594         calculate D2E/DX2 analytically  !
 ! A17   A(2,4,11)             121.8165         calculate D2E/DX2 analytically  !
 ! A18   A(5,4,11)             116.0239         calculate D2E/DX2 analytically  !
 ! A19   A(4,5,6)              119.0274         calculate D2E/DX2 analytically  !
 ! A20   A(4,5,18)             121.8942         calculate D2E/DX2 analytically  !
 ! A21   A(6,5,18)             119.0784         calculate D2E/DX2 analytically  !
 ! A22   A(5,6,7)              124.8276         calculate D2E/DX2 analytically  !
 ! A23   A(5,6,19)             118.8999         calculate D2E/DX2 analytically  !
 ! A24   A(7,6,19)             116.2718         calculate D2E/DX2 analytically  !
 ! A25   A(6,7,8)              116.4829         calculate D2E/DX2 analytically  !
 ! A26   A(7,8,9)              115.7144         calculate D2E/DX2 analytically  !
 ! A27   A(7,8,11)             123.9892         calculate D2E/DX2 analytically  !
 ! A28   A(9,8,11)             120.2871         calculate D2E/DX2 analytically  !
 ! A29   A(8,9,10)             114.4484         calculate D2E/DX2 analytically  !
 ! A30   A(8,9,20)             107.7572         calculate D2E/DX2 analytically  !
 ! A31   A(8,9,21)             108.3348         calculate D2E/DX2 analytically  !
 ! A32   A(10,9,20)            112.8883         calculate D2E/DX2 analytically  !
 ! A33   A(10,9,21)            106.6534         calculate D2E/DX2 analytically  !
 ! A34   A(20,9,21)            106.3749         calculate D2E/DX2 analytically  !
 ! A35   A(9,10,22)            107.8767         calculate D2E/DX2 analytically  !
 ! A36   A(4,11,8)             119.6477         calculate D2E/DX2 analytically  !
 ! A37   A(4,11,23)            122.2552         calculate D2E/DX2 analytically  !
 ! A38   A(8,11,23)            118.0935         calculate D2E/DX2 analytically  !
 ! D1    D(12,1,2,3)             0.5804         calculate D2E/DX2 analytically  !
 ! D2    D(12,1,2,4)           179.7623         calculate D2E/DX2 analytically  !
 ! D3    D(13,1,2,3)           119.9555         calculate D2E/DX2 analytically  !
 ! D4    D(13,1,2,4)           -60.8626         calculate D2E/DX2 analytically  !
 ! D5    D(14,1,2,3)          -118.9163         calculate D2E/DX2 analytically  !
 ! D6    D(14,1,2,4)            60.2656         calculate D2E/DX2 analytically  !
 ! D7    D(1,2,3,15)          -120.1208         calculate D2E/DX2 analytically  !
 ! D8    D(1,2,3,16)           118.6199         calculate D2E/DX2 analytically  !
 ! D9    D(1,2,3,17)            -0.7857         calculate D2E/DX2 analytically  !
 ! D10   D(4,2,3,15)            60.6982         calculate D2E/DX2 analytically  !
 ! D11   D(4,2,3,16)           -60.5611         calculate D2E/DX2 analytically  !
 ! D12   D(4,2,3,17)          -179.9667         calculate D2E/DX2 analytically  !
 ! D13   D(1,2,4,5)           -179.4594         calculate D2E/DX2 analytically  !
[...]
 Alpha virt. eigenvalues --    1.22791   1.23987   1.24853   1.27380   1.29910
 Alpha virt. eigenvalues --    1.31274   1.34725   1.35002   1.35816   1.37385
 Alpha virt. eigenvalues --    1.37680   1.40663   1.42103   1.46638   1.48780
 Alpha virt. eigenvalues --    1.50776   1.50925   1.52235   1.52980   1.53527
 Alpha virt. eigenvalues --    1.54884   1.57051   1.57581   1.57697   1.59413
 Alpha virt. eigenvalues --    1.59825   1.60430   1.61381   1.62871   1.64768
 Alpha virt. eigenvalues --    1.65288   1.66242   1.67123   1.67655   1.67981
 Alpha virt. eigenvalues --    1.69551   1.70163   1.70373   1.71953   1.74629
 Alpha virt. eigenvalues --    1.76570   1.80537   1.80711   1.81335   1.84682
 Alpha virt. eigenvalues --    1.86114   1.87033   1.89275   1.90698   1.93293
 Alpha virt. eigenvalues --    1.94851   1.96901   1.98391   1.99589   2.01522
 Alpha virt. eigenvalues --    2.03779   2.03986   2.04356   2.05597   2.06860
 Alpha virt. eigenvalues --    2.08961   2.10145   2.10464   2.13915   2.14536
 Alpha virt. eigenvalues --    2.15341   2.16807   2.17137   2.21890   2.22558
 Alpha virt. eigenvalues --    2.24581   2.25454   2.31117   2.33604   2.33869
 Alpha virt. eigenvalues --    2.36224   2.36560   2.38416   2.39190   2.39984
 Alpha virt. eigenvalues --    2.41676   2.42355   2.44841   2.45253   2.49277
 Alpha virt. eigenvalues --    2.50111   2.53017   2.53640   2.55402   2.56715
 Alpha virt. eigenvalues --    2.57172   2.58404   2.58851   2.60941   2.63128
 Alpha virt. eigenvalues --    2.64540   2.65260   2.67127   2.68963   2.70357
 Alpha virt. eigenvalues --    2.73094   2.73449   2.74838   2.76784   2.78834
 Alpha virt. eigenvalues --    2.79399   2.79718   2.81123   2.83488   2.84514
 Alpha virt. eigenvalues --    2.86062   2.87067   2.88403   2.90488   2.92201
 Alpha virt. eigenvalues --    2.92739   2.95253   2.97470   2.98921   2.99771
 Alpha virt. eigenvalues --    3.01914   3.02851   3.04000   3.05667   3.08372
 Alpha virt. eigenvalues --    3.10700   3.12040   3.13020   3.14636   3.15817
 Alpha virt. eigenvalues --    3.17311   3.18445   3.18902   3.20001   3.20195
 Alpha virt. eigenvalues --    3.21043   3.22765   3.22955   3.26158   3.27962
 Alpha virt. eigenvalues --    3.28266   3.30292   3.31558   3.32541   3.33593
 Alpha virt. eigenvalues --    3.34005   3.37414   3.37712   3.38584   3.38945
 Alpha virt. eigenvalues --    3.39906   3.42037   3.42607   3.44054   3.44961
 Alpha virt. eigenvalues --    3.46778   3.48395   3.49123   3.50217   3.50841
 Alpha virt. eigenvalues --    3.51806   3.54437   3.55573   3.56417   3.56830
 Alpha virt. eigenvalues --    3.59314   3.61554   3.63176   3.64872   3.65092
 Alpha virt. eigenvalues --    3.68504   3.69820   3.71639   3.72686   3.77783
 Alpha virt. eigenvalues --    3.78852   3.81616   3.85236   3.86873   3.89377
 Alpha virt. eigenvalues --    3.94052   3.95123   3.97095   4.01952   4.02984
 Alpha virt. eigenvalues --    4.04348   4.06456   4.10544   4.11594   4.15093
 Alpha virt. eigenvalues --    4.15799   4.19684   4.21341   4.21939   4.23012
 Alpha virt. eigenvalues --    4.26204   4.28606   4.29870   4.33624   4.36231
 Alpha virt. eigenvalues --    4.37788   4.39845   4.42261   4.44128   4.45994
 Alpha virt. eigenvalues --    4.50241   4.52795   4.54306   4.57954   4.64196
 Alpha virt. eigenvalues --    4.68800   4.72681   4.76602   4.79303   4.81819
 Alpha virt. eigenvalues --    4.89195   4.96527   4.96946   5.01157   5.03462
 Alpha virt. eigenvalues --    5.05556   5.08176   5.10766   5.13738   5.14632
 Alpha virt. eigenvalues --    5.20216   5.26716   5.27844   5.29904   5.35764
 Alpha virt. eigenvalues --    5.38162   5.41383   5.43689   5.44570   5.46902
 Alpha virt. eigenvalues --    5.48647   5.53695   5.57469   5.59120   5.69622
 Alpha virt. eigenvalues --    5.80422   5.84126   5.84638   5.88167   5.95695
 Alpha virt. eigenvalues --    5.99769   6.03786   6.07254   6.09969   6.33175
 Alpha virt. eigenvalues --    6.38849   6.56931   6.79219   6.90347   7.07958
 Alpha virt. eigenvalues --    7.25272  22.47441  22.55931  22.56937  22.64132
 Alpha virt. eigenvalues --   22.84108  22.92086  23.16944  23.33190  32.64668
 Alpha virt. eigenvalues --   32.97793  43.91670
          Condensed to atoms (all electrons):
               1          2          3          4          5          6
     1  C    4.902336   0.315006  -0.054866  -0.087511   0.013223  -0.000642
     2  N    0.315006   6.408264   0.314998   0.490307  -0.087849   0.000522
     3  C   -0.054866   0.314998   4.903772  -0.085084  -0.011687  -0.002620
     4  C   -0.087511   0.490307  -0.085084   4.984540   0.328212  -0.000654
     5  C    0.013223  -0.087849  -0.011687   0.328212   5.246746   0.501184
     6  C   -0.000642   0.000522  -0.002620  -0.000654   0.501184   4.687975
     7  N   -0.000084  -0.000669  -0.000133  -0.059977  -0.066448   0.566525
     8  C   -0.002669  -0.000453  -0.001341  -0.002435  -0.074592  -0.094246
     9  C    0.000135  -0.000445  -0.000002  -0.001371   0.005252  -0.005113
    10  O   -0.000582   0.000166   0.000004   0.006005  -0.001120   0.000996
    11  C   -0.005652  -0.097719   0.014165   0.313465   0.025484  -0.036046
    12  H    0.396330  -0.025112  -0.016521   0.010127  -0.000200   0.000026
    13  H    0.413262  -0.047962   0.003638  -0.010169  -0.000470   0.000057
    14  H    0.417703  -0.048269   0.003272  -0.009444   0.000296  -0.000052
    15  H    0.003471  -0.048673   0.415521  -0.009119   0.004376   0.000284
    16  H    0.003523  -0.048977   0.416051  -0.009888   0.005352   0.000031
    17  H   -0.015846  -0.025255   0.396468   0.010493   0.000223   0.000072
    18  H   -0.000286  -0.005687   0.003097  -0.084803   0.425759  -0.015104
    19  H    0.000009  -0.000156  -0.000136   0.004472  -0.082460   0.438204
    20  H   -0.000015   0.000016  -0.000000   0.000188   0.000647  -0.000339
    21  H   -0.000024   0.000031   0.000000   0.001522  -0.001193   0.002009
    22  H   -0.000053   0.000020   0.000001  -0.000442  -0.000586   0.000330
    23  H    0.001010  -0.004332  -0.000163  -0.062692   0.012701  -0.002320
               7          8          9         10         11         12
     1  C   -0.000084  -0.002669   0.000135  -0.000582  -0.005652   0.396330
     2  N   -0.000669  -0.000453  -0.000445   0.000166  -0.097719  -0.025112
     3  C   -0.000133  -0.001341  -0.000002   0.000004   0.014165  -0.016521
     4  C   -0.059977  -0.002435  -0.001371   0.006005   0.313465   0.010127
     5  C   -0.066448  -0.074592   0.005252  -0.001120   0.025484  -0.000200
     6  C    0.566525  -0.094246  -0.005113   0.000996  -0.036046   0.000026
     7  N    6.504139   0.508765  -0.044201   0.004317  -0.095915   0.000001
     8  C    0.508765   5.091871   0.299244  -0.088886   0.375095   0.000223
     9  C   -0.044201   0.299244   4.785910   0.272525  -0.082249   0.000001
    10  O    0.004317  -0.088886   0.272525   8.008477   0.018770  -0.000005
    11  C   -0.095915   0.375095  -0.082249   0.018770   5.502745   0.000396
    12  H    0.000001   0.000223   0.000001  -0.000005   0.000396   0.542557
    13  H   -0.000031   0.000422  -0.000279   0.000143   0.005254  -0.019234
    14  H   -0.000038  -0.000257   0.000173   0.000040   0.003968  -0.019259
    15  H   -0.000041  -0.000035  -0.000003  -0.000000  -0.000303   0.000537
    16  H   -0.000039  -0.000054   0.000004  -0.000000   0.000174   0.000453
    17  H    0.000000   0.000068  -0.000000   0.000000  -0.000179   0.004952
    18  H    0.008586  -0.002680   0.000123  -0.000005   0.012294  -0.000019
    19  H   -0.026834   0.004099  -0.000518   0.000014   0.000639  -0.000000
    20  H    0.003241  -0.105632   0.454600  -0.040151   0.025558  -0.000000
    21  H    0.006407  -0.001887   0.363827  -0.032232  -0.024230  -0.000000
    22  H    0.000930   0.022605  -0.046352   0.293948  -0.010885  -0.000000
    23  H    0.006382  -0.031761  -0.012204   0.029749   0.418543   0.000473
              13         14         15         16         17         18
     1  C    0.413262   0.417703   0.003471   0.003523  -0.015846  -0.000286
     2  N   -0.047962  -0.048269  -0.048673  -0.048977  -0.025255  -0.005687
     3  C    0.003638   0.003272   0.415521   0.416051   0.396468   0.003097
     4  C   -0.010169  -0.009444  -0.009119  -0.009888   0.010493  -0.084803
     5  C   -0.000470   0.000296   0.004376   0.005352   0.000223   0.425759
     6  C    0.000057  -0.000052   0.000284   0.000031   0.000072  -0.015104
     7  N   -0.000031  -0.000038  -0.000041  -0.000039   0.000000   0.008586
     8  C    0.000422  -0.000257  -0.000035  -0.000054   0.000068  -0.002680
     9  C   -0.000279   0.000173  -0.000003   0.000004  -0.000000   0.000123
    10  O    0.000143   0.000040  -0.000000  -0.000000   0.000000  -0.000005
    11  C    0.005254   0.003968  -0.000303   0.000174  -0.000179   0.012294
    12  H   -0.019234  -0.019259   0.000537   0.000453   0.004952  -0.000019
    13  H    0.576364  -0.051603   0.002026  -0.001330   0.000518  -0.000006
    14  H   -0.051603   0.563559  -0.001282   0.002047   0.000468   0.000009
    15  H    0.002026  -0.001282   0.572819  -0.053659  -0.018807  -0.002772
    16  H   -0.001330   0.002047  -0.053659   0.571203  -0.018893  -0.002492
    17  H    0.000518   0.000468  -0.018807  -0.018893   0.541872   0.000560
    18  H   -0.000006   0.000009  -0.002772  -0.002492   0.000560   0.536913
    19  H    0.000001   0.000000   0.000001  -0.000005  -0.000001  -0.001725
    20  H   -0.000006   0.000006  -0.000000   0.000000   0.000000  -0.000014
    21  H    0.000012  -0.000005  -0.000000   0.000000   0.000000  -0.000015
    22  H    0.000125  -0.000015   0.000000  -0.000000   0.000000  -0.000003
    23  H   -0.002700  -0.001475  -0.000021   0.000007  -0.000002   0.000265
              19         20         21         22         23
     1  C    0.000009  -0.000015  -0.000024  -0.000053   0.001010
     2  N   -0.000156   0.000016   0.000031   0.000020  -0.004332
     3  C   -0.000136  -0.000000   0.000000   0.000001  -0.000163
     4  C    0.004472   0.000188   0.001522  -0.000442  -0.062692
     5  C   -0.082460   0.000647  -0.001193  -0.000586   0.012701
     6  C    0.438204  -0.000339   0.002009   0.000330  -0.002320
     7  N   -0.026834   0.003241   0.006407   0.000930   0.006382
     8  C    0.004099  -0.105632  -0.001887   0.022605  -0.031761
     9  C   -0.000518   0.454600   0.363827  -0.046352  -0.012204
    10  O    0.000014  -0.040151  -0.032232   0.293948   0.029749
    11  C    0.000639   0.025558  -0.024230  -0.010885   0.418543
    12  H   -0.000000  -0.000000  -0.000000  -0.000000   0.000473
    13  H    0.000001  -0.000006   0.000012   0.000125  -0.002700
    14  H    0.000000   0.000006  -0.000005  -0.000015  -0.001475
    15  H    0.000001  -0.000000  -0.000000   0.000000  -0.000021
    16  H   -0.000005   0.000000   0.000000  -0.000000   0.000007
    17  H   -0.000001   0.000000   0.000000   0.000000  -0.000002
    18  H   -0.001725  -0.000014  -0.000015  -0.000003   0.000265
    19  H    0.548445  -0.000106   0.000045   0.000003   0.000119
    20  H   -0.000106   0.586068  -0.032636  -0.011234   0.001987
    21  H    0.000045  -0.032636   0.600260   0.011002  -0.001897
    22  H    0.000003  -0.011234   0.011002   0.429349  -0.005098
    23  H    0.000119   0.001987  -0.001897  -0.005098   0.503751
 Mulliken charges:
               1
     1  C   -0.297778
     2  N   -0.087772
     3  C   -0.298433
     4  C    0.274259
     5  C   -0.242852
     6  C   -0.041077
     7  N   -0.314883
     8  C    0.104536
     9  C    0.010944
    10  O   -0.472173
    11  C   -0.363374
    12  H    0.124272
    13  H    0.131965
    14  H    0.140155
    15  H    0.135681
    16  H    0.136491
    17  H    0.123288
    18  H    0.128002
    19  H    0.115890
    20  H    0.117823
    21  H    0.109003
    22  H    0.316354
    23  H    0.149679
 Sum of Mulliken charges =   0.00000
 Mulliken charges with hydrogens summed into heavy atoms:
               1
     1  C    0.098614
     2  N   -0.087772
     3  C    0.097027
     4  C    0.274259
     5  C   -0.114850
     6  C    0.074813
     7  N   -0.314883
     8  C    0.104536
     9  C    0.237769
    10  O   -0.155819
    11  C   -0.213694
 Electronic spatial extent (au):  <R**2>=           2039.2997
 Charge=              0.0000 electrons
 Dipole moment (field-independent basis, Debye):
    X=             -4.0924    Y=             -1.3554    Z=             -0.9769  Tot=              4.4203
 Quadrupole moment (field-independent basis, Debye-Ang):
   XX=            -62.4222   YY=            -66.4677   ZZ=            -66.1381
   XY=              0.5575   XZ=             -2.4903   YZ=              2.1295
 Traceless Quadrupole moment (field-independent basis, Debye-Ang):
   XX=              2.5871   YY=             -1.4584   ZZ=             -1.1288
   XY=              0.5575   XZ=             -2.4903   YZ=              2.1295
 Octapole moment (field-independent basis, Debye-Ang**2):
  XXX=            -35.0704  YYY=             -4.4094  ZZZ=             -2.6362  XYY=            -23.5557
  XXY=             -4.0580  XXZ=             -6.5519  XZZ=             10.9011  YZZ=             -9.7193
  YYZ=             -6.2463  XYZ=              6.6991
 Hexadecapole moment (field-independent basis, Debye-Ang**3):
 XXXX=          -1724.2121 YYYY=           -777.3185 ZZZZ=            -95.4340 XXXY=             29.4327
 XXXZ=            -16.3946 YYYX=             -4.8504 YYYZ=             10.8285 ZZZX=             -7.1198
 ZZZY=              6.9909 XXYY=           -471.3397 XXZZ=           -296.4513 YYZZ=           -150.0660
 XXYZ=             14.7817 YYXZ=            -15.8963 ZZXY=            -18.4514
 N-N= 6.081905872225D+02 E-N=-2.373487314471D+03  KE= 4.941925684846D+02
 Breneman (CHELPG) radii used.
 Read replacement radii for each type of atom:
 Atom Element Radius
    1     6    1.50
    2     7    1.70
    3     6    1.50
    4     6    1.50
    5     6    1.50
    6     6    1.50
    7     7    1.70
    8     6    1.50
    9     6    1.50
   10     8    1.70
   11     6    1.50
   12     1    1.45
   13     1    1.45
   14     1    1.45
   15     1    1.45
   16     1    1.45
   17     1    1.45
   18     1    1.45
   19     1    1.45
   20     1    1.45
   21     1    1.45
   22     1    1.45
   23     1    1.45
 Generate Potential Derived Charges using the Breneman model, NDens= 1.
 Grid spacing= 0.300 Box extension= 2.800
 NStep X,Y,Z=   46     39     28   Total possible points=       50232
 Number of Points to Fit=   14355

 **********************************************************************

            Electrostatic Properties Using The SCF Density.

 **********************************************************************

       Atomic Center    1 is at  -2.015894 -1.972437  0.074870
       Atomic Center    2 is at  -2.049481 -0.529947  0.004510
       Atomic Center    3 is at  -3.313060  0.167045 -0.049560
       Atomic Center    4 is at  -0.878130  0.178991  0.006030
       Atomic Center    5 is at  -0.853328  1.590151 -0.049750
       Atomic Center    6 is at   0.372463  2.243639 -0.040760
       Atomic Center    7 is at   1.556092  1.638047  0.011080
       Atomic Center    8 is at   1.540480  0.303777  0.066330
       Atomic Center    9 is at   2.897049 -0.366695  0.156620
       Atomic Center   10 is at   2.889147 -1.735245 -0.146700
       Atomic Center   11 is at   0.378919 -0.460661  0.067540
       Atomic Center   12 is at  -3.040854 -2.361936  0.066740
       Atomic Center   13 is at  -1.480964 -2.415158 -0.783400
       Atomic Center   14 is at  -1.526034 -2.330428  0.997030
       Atomic Center   15 is at  -3.411709  0.772965 -0.967290
       Atomic Center   16 is at  -3.452559  0.839135  0.815460
       Atomic Center   17 is at  -4.132491 -0.561494 -0.041680
       Atomic Center   18 is at  -1.767297  2.180152 -0.100050
       Atomic Center   19 is at   0.389265  3.338959 -0.083760
       Atomic Center   20 is at   3.600150  0.209014 -0.472550
       Atomic Center   21 is at   3.260729 -0.274985  1.192640
       Atomic Center   22 is at   2.653667 -1.830714 -1.074480
       Atomic Center   23 is at   0.477657 -1.543111  0.127890
   14355 points will be used for fitting atomic charges
 Fitting point charges to electrostatic potential
 Charges from ESP fit, RMS=   0.00320 RRMS=   0.19697:
 ESP charges:
               1
     1  C   -0.073036
     2  N   -0.199108
     3  C   -0.050097
     4  C    0.501359
     5  C   -0.552646
     6  C    0.457596
     7  N   -0.741584
     8  C    0.540606
     9  C    0.106099
    10  O   -0.577787
    11  C   -0.544704
    12  H    0.083266
    13  H    0.040068
    14  H    0.051499
    15  H    0.040474
    16  H    0.044391
    17  H    0.073763
    18  H    0.158007
    19  H    0.017121
    20  H    0.022975
    21  H    0.073586
    22  H    0.367011
    23  H    0.161142
 Sum of ESP charges =   0.00000
 ESP charges with hydrogens summed into heavy atoms:
               1
     1  C    0.101796
     2  N   -0.199108
     3  C    0.108531
     4  C    0.501359
     5  C   -0.394639
     6  C    0.474717
     7  N   -0.741584
     8  C    0.540606
     9  C    0.202659
    10  O   -0.210777
    11  C   -0.383561
 Charge=   0.00000 Dipole=    -4.0962    -1.3341    -0.9336 Tot=     4.4080
 -----------------------------------------------------------------

              Electrostatic Properties (Atomic Units)

 -----------------------------------------------------------------
    Center     Electric         -------- Electric Field --------
               Potential          X             Y             Z
 -----------------------------------------------------------------
    1 Atom    -14.726434
    2 Atom    -18.348857
    3 Atom    -14.725429
    4 Atom    -14.715176
    5 Atom    -14.776569
    6 Atom    -14.746793
    7 Atom    -18.422203
    8 Atom    -14.742918
    9 Atom    -14.726657
   10 Atom    -22.358549
   11 Atom    -14.778994
   12 Atom     -1.093071
   13 Atom     -1.104212
   14 Atom     -1.104732
   15 Atom     -1.103254
   16 Atom     -1.103421
   17 Atom     -1.092199
   18 Atom     -1.101955
   19 Atom     -1.117381
   20 Atom     -1.126726
   21 Atom     -1.120776
   22 Atom     -1.006396
   23 Atom     -1.105671
 -----------------------------------------------------------------
 Unable to Open any file for archive entry.
 1\1\GINC-NOTCH289\SP\RwB97XD\def2TZVP\C8H12N2O1\U6053008\12-Jul-2024\0
 \\#N Guess=Read Geom=Check Integral(Ultrafine) Density Pop=(ChelpG,Rea
 dRadii) NMR wB97XD def2TZVP\\12300592_2\\0,1\C,0,-2.01589,-1.97244,0.0
 7487\N,0,-2.04948,-0.52995,0.00451\C,0,-3.31306,0.16704,-0.04956\C,0,-
 0.87813,0.17899,0.00603\C,0,-0.85333,1.59015,-0.04975\C,0,0.37246,2.24
 364,-0.04076\N,0,1.55609,1.63805,0.01108\C,0,1.54048,0.30378,0.06633\C
 ,0,2.89705,-0.36669,0.15662\O,0,2.88915,-1.73524,-0.1467\C,0,0.37892,-
 0.46066,0.06754\H,0,-3.04085,-2.36194,0.06674\H,0,-1.48096,-2.41516,-0
 .7834\H,0,-1.52603,-2.33043,0.99703\H,0,-3.41171,0.77296,-0.96729\H,0,
 -3.45256,0.83913,0.81546\H,0,-4.13249,-0.5615,-0.04168\H,0,-1.7673,2.1
 8015,-0.10005\H,0,0.38926,3.33896,-0.08376\H,0,3.60015,0.20902,-0.4725
 5\H,0,3.26073,-0.27498,1.19264\H,0,2.65367,-1.83071,-1.07448\H,0,0.477
 66,-1.54311,0.12789\\Version=ES64L-G16RevC.01\State=1-A\HF=-496.810786
 5\RMSD=1.099e-09\Dipole=-1.61009,-0.5332428,-0.3843337\Quadrupole=1.92
 34488,-1.0842483,-0.8392005,0.4145068,-1.8514841,1.5832037\PG=C01 [X(C
 8H12N2O1)]\\@
 The archive entry for this job was punched.


 "MATHEMATICS IS THE ART OF GIVING THE SAME NAME
 TO DIFFERENT THINGS."
                    - H. POINCARE
 Job cpu time:       0 days  0 hours 36 minutes  3.9 seconds.
 Elapsed time:       0 days  0 hours  2 minutes 23.2 seconds.
 File lengths (MBytes):  RWF=    113 Int=      0 D2E=      0 Chk=     17 Scr=      2
 Normal termination of Gaussian 16 at Fri Jul 12 13:18:34 2024.
