 Entering Gaussian System, Link 0=g16
 Input=12300592_4.com
 Output=12300592_4.log
 Initial command:
 /uufs/chpc.utah.edu/sys/installdir/gaussian16/C01/AVX/g16/l1.exe "/scratch/general/vast/u6053008/1287101-notchpeak.peaks/Gau-3235597.inp" -scrdir="/scratch/general/vast/u6053008/1287101-notchpeak.peaks/"
 Entering Link 1 = /uufs/chpc.utah.edu/sys/installdir/gaussian16/C01/AVX/g16/l1.exe PID=   3235598.
  
 Copyright (c) 1988-2019, Gaussian, Inc.  All Rights Reserved.
  
 This is part of the Gaussian(R) 16 program.  It is based on
 the Gaussian(R) 09 system (copyright 2009, Gaussian, Inc.),
 the Gaussian(R) 03 system (copyright 2003, Gaussian, Inc.),
 the Gaussian(R) 98 system (copyright 1998, Gaussian, Inc.),
 the Gaussian(R) 94 system (copyright 1995, Gaussian, Inc.),
 the Gaussian 92(TM) system (copyright 1992, Gaussian, Inc.),
 the Gaussian 90(TM) system (copyright 1990, Gaussian, Inc.),
 the Gaussian 88(TM) system (copyright 1988, Gaussian, Inc.),
 the Gaussian 86(TM) system (copyright 1986, Carnegie Mellon
 University), and the Gaussian 82(TM) system (copyright 1983,
 Carnegie Mellon University). Gaussian is a federally registered
 trademark of Gaussian, Inc.
  
 This software contains proprietary and confidential information,
 including trade secrets, belonging to Gaussian, Inc.
  
 This software is provided under written license and may be
 used, copied, transmitted, or stored only in accord with that
 written license.
  
 The following legend is applicable only to US Government
 contracts under FAR:
  
                    RESTRICTED RIGHTS LEGEND
  
 Use, reproduction and disclosure by the US Government is
 subject to restrictions as set forth in subparagraphs (a)
 and (c) of the Commercial Computer Software - Restricted
 Rights clause in FAR 52.227-19.
  
 Gaussian, Inc.
 340 Quinnipiac St., Bldg. 40, Wallingford CT 06492
  
  
 ---------------------------------------------------------------
 Warning -- This program may not be used in any manner that
 competes with the business of Gaussian, Inc. or will provide
 assistance to any competitor of Gaussian, Inc.  The licensee
 of this program is prohibited from giving any competitor of
 Gaussian, Inc. access to this program.  By using this program,
 the user acknowledges that Gaussian, Inc. is engaged in the
 business of creating and licensing software in the field of
 computational chemistry and represents and warrants to the
 licensee that it is not a competitor of Gaussian, Inc. and that
 it will not use this program in any manner prohibited above.
 ---------------------------------------------------------------
  

 Cite this work as:
 Gaussian 16, Revision C.01,
 M. J. Frisch, G. W. Trucks, H. B. Schlegel, G. E. Scuseria, 
 M. A. Robb, J. R. Cheeseman, G. Scalmani, V. Barone, 
 G. A. Petersson, H. Nakatsuji, X. Li, M. Caricato, A. V. Marenich, 
 J. Bloino, B. G. Janesko, R. Gomperts, B. Mennucci, H. P. Hratchian, 
 J. V. Ortiz, A. F. Izmaylov, J. L. Sonnenberg, D. Williams-Young, 
 F. Ding, F. Lipparini, F. Egidi, J. Goings, B. Peng, A. Petrone, 
 T. Henderson, D. Ranasinghe, V. G. Zakrzewski, J. Gao, N. Rega, 
 G. Zheng, W. Liang, M. Hada, M. Ehara, K. Toyota, R. Fukuda, 
 J. Hasegawa, M. Ishida, T. Nakajima, Y. Honda, O. Kitao, H. Nakai, 
 T. Vreven, K. Throssell, J. A. Montgomery, Jr., J. E. Peralta, 
 F. Ogliaro, M. J. Bearpark, J. J. Heyd, E. N. Brothers, K. N. Kudin, 
 V. N. Staroverov, T. A. Keith, R. Kobayashi, J. Normand, 
 K. Raghavachari, A. P. Rendell, J. C. Burant, S. S. Iyengar, 
 J. Tomasi, M. Cossi, J. M. Millam, M. Klene, C. Adamo, R. Cammi, 
 J. W. Ochterski, R. L. Martin, K. Morokuma, O. Farkas, 
 J. B. Foresman, and D. J. Fox, Gaussian, Inc., Wallingford CT, 2019.
 
 ******************************************
 Gaussian 16:  ES64L-G16RevC.01  3-Jul-2019
                12-Jul-2024 
 ******************************************
 %NProcShared=16
 Will use up to   16 processors via shared memory.
 %Mem=32GB
 %chk=12300592_4.chk
 ------------------------------------------------------
 #N OPT FREQ=NORAMAN Integral(Ultrafine) wB97XD def2SVP
 ------------------------------------------------------
 1/18=20,19=15,26=4,38=1/1,3;
 2/9=110,12=2,17=6,18=5,40=1/2;
 3/5=43,7=101,11=2,25=1,30=1,71=1,74=-58,75=-5/1,2,3;
 4//1;
 5/5=2,38=5/2;
 6/7=2,8=2,9=2,10=2,28=1/1;
 7//1,2,3,16;
 1/18=20,19=15,26=4/3(2);
 2/9=110/2;
 99//99;
 2/9=110/2;
 3/5=43,7=101,11=2,25=1,30=1,71=1,74=-58,75=-5/1,2,3;
 4/5=5,16=3,69=1/1;
 5/5=2,38=5/2;
 7//1,2,3,16;
 1/18=20,19=15,26=4/3(-5);
 2/9=110/2;
 6/7=2,8=2,9=2,10=2,19=2,28=1/1;
 99/9=1/99;
 ----------
 12300592_4
 ----------
 Symbolic Z-matrix:
 Charge =  0 Multiplicity = 1
 C                     3.31301   0.16727   0.04769 
 N                     2.04943  -0.53009  -0.00216 
 C                     2.01613  -1.97249  -0.07494 
 C                     0.8781    0.17885  -0.0048 
 C                     0.85337   1.59002   0.05032 
 C                    -0.3724    2.24358   0.04076 
 N                    -1.55602   1.63805  -0.01128 
 C                    -1.54047   0.30374  -0.06631 
 C                    -2.89704  -0.36658  -0.15722 
 O                    -2.88938  -1.73512   0.14636 
 C                    -0.37898  -0.46074  -0.06701 
 H                     3.41226   0.77681   0.96289 
 H                     4.13251  -0.56121   0.04229 
 H                     3.45178   0.83596  -0.82014 
 H                     1.47713  -2.4161    0.78021 
 H                     3.04103  -2.362    -0.06195 
 H                     1.53077  -2.32955  -0.99992 
 H                     1.76734   2.18001   0.10057 
 H                    -0.38916   3.33892   0.08343 
 H                    -3.60041   0.20924   0.47153 
 H                    -3.26018  -0.27509  -1.19344 
 H                    -2.65457  -1.83038   1.07434 
 H                    -0.47771  -1.54318  -0.12758 
 

 GradGradGradGradGradGradGradGradGradGradGradGradGradGradGradGradGradGrad
 Berny optimization.
 Initialization pass.
                           ----------------------------
                           !    Initial Parameters    !
                           ! (Angstroms and Degrees)  !
 --------------------------                            --------------------------
 ! Name  Definition              Value          Derivative Info.                !
 --------------------------------------------------------------------------------
 ! R1    R(1,2)                  1.4441         estimate D2E/DX2                !
 ! R2    R(1,12)                 1.1041         estimate D2E/DX2                !
 ! R3    R(1,13)                 1.0965         estimate D2E/DX2                !
 ! R4    R(1,14)                 1.1043         estimate D2E/DX2                !
 ! R5    R(2,3)                  1.4446         estimate D2E/DX2                !
 ! R6    R(2,4)                  1.3692         estimate D2E/DX2                !
 ! R7    R(3,15)                 1.1039         estimate D2E/DX2                !
 ! R8    R(3,16)                 1.0965         estimate D2E/DX2                !
 ! R9    R(3,17)                 1.1039         estimate D2E/DX2                !
 ! R10   R(4,5)                  1.4125         estimate D2E/DX2                !
 ! R11   R(4,11)                 1.4118         estimate D2E/DX2                !
 ! R12   R(5,6)                  1.3892         estimate D2E/DX2                !
 ! R13   R(5,18)                 1.089          estimate D2E/DX2                !
 ! R14   R(6,7)                  1.3305         estimate D2E/DX2                !
 ! R15   R(6,19)                 1.0963         estimate D2E/DX2                !
 ! R16   R(7,8)                  1.3355         estimate D2E/DX2                !
 ! R17   R(8,9)                  1.5159         estimate D2E/DX2                !
 ! R18   R(8,11)                 1.3905         estimate D2E/DX2                !
 ! R19   R(9,10)                 1.4018         estimate D2E/DX2                !
 ! R20   R(9,20)                 1.1053         estimate D2E/DX2                !
 ! R21   R(9,21)                 1.1018         estimate D2E/DX2                !
 ! R22   R(10,22)                0.962          estimate D2E/DX2                !
 ! R23   R(11,23)                1.0886         estimate D2E/DX2                !
 ! A1    A(2,1,12)             111.9547         estimate D2E/DX2                !
 ! A2    A(2,1,13)             109.4485         estimate D2E/DX2                !
 ! A3    A(2,1,14)             112.0386         estimate D2E/DX2                !
 ! A4    A(12,1,13)            107.6791         estimate D2E/DX2                !
 ! A5    A(12,1,14)            107.8074         estimate D2E/DX2                !
 ! A6    A(13,1,14)            107.7284         estimate D2E/DX2                !
 ! A7    A(1,2,3)              120.2696         estimate D2E/DX2                !
 ! A8    A(1,2,4)              119.9066         estimate D2E/DX2                !
 ! A9    A(3,2,4)              119.8134         estimate D2E/DX2                !
 ! A10   A(2,3,15)             111.9296         estimate D2E/DX2                !
 ! A11   A(2,3,16)             109.4232         estimate D2E/DX2                !
 ! A12   A(2,3,17)             112.0427         estimate D2E/DX2                !
 ! A13   A(15,3,16)            107.7255         estimate D2E/DX2                !
 ! A14   A(15,3,17)            107.7242         estimate D2E/DX2                !
 ! A15   A(16,3,17)            107.8175         estimate D2E/DX2                !
 ! A16   A(2,4,5)              122.1555         estimate D2E/DX2                !
 ! A17   A(2,4,11)             121.8204         estimate D2E/DX2                !
 ! A18   A(5,4,11)             116.0238         estimate D2E/DX2                !
 ! A19   A(4,5,6)              119.0272         estimate D2E/DX2                !
 ! A20   A(4,5,18)             121.8957         estimate D2E/DX2                !
 ! A21   A(6,5,18)             119.0771         estimate D2E/DX2                !
 ! A22   A(5,6,7)              124.8276         estimate D2E/DX2                !
 ! A23   A(5,6,19)             118.9001         estimate D2E/DX2                !
 ! A24   A(7,6,19)             116.2716         estimate D2E/DX2                !
 ! A25   A(6,7,8)              116.4834         estimate D2E/DX2                !
 ! A26   A(7,8,9)              115.7119         estimate D2E/DX2                !
 ! A27   A(7,8,11)             123.9888         estimate D2E/DX2                !
 ! A28   A(9,8,11)             120.2899         estimate D2E/DX2                !
 ! A29   A(8,9,10)             114.4452         estimate D2E/DX2                !
 ! A30   A(8,9,20)             107.7587         estimate D2E/DX2                !
 ! A31   A(8,9,21)             108.3385         estimate D2E/DX2                !
 ! A32   A(10,9,20)            112.8854         estimate D2E/DX2                !
 ! A33   A(10,9,21)            106.6505         estimate D2E/DX2                !
 ! A34   A(20,9,21)            106.3796         estimate D2E/DX2                !
 ! A35   A(9,10,22)            107.8738         estimate D2E/DX2                !
 ! A36   A(4,11,8)             119.6478         estimate D2E/DX2                !
 ! A37   A(4,11,23)            122.2533         estimate D2E/DX2                !
 ! A38   A(8,11,23)            118.0953         estimate D2E/DX2                !
 ! D1    D(12,1,2,3)          -120.5047         estimate D2E/DX2                !
 ! D2    D(12,1,2,4)            60.6742         estimate D2E/DX2                !
 ! D3    D(13,1,2,3)            -1.1915         estimate D2E/DX2                !
 ! D4    D(13,1,2,4)           179.9875         estimate D2E/DX2                !
 ! D5    D(14,1,2,3)           118.2365         estimate D2E/DX2                !
 ! D6    D(14,1,2,4)           -60.5846         estimate D2E/DX2                !
 ! D7    D(1,2,3,15)           120.4727         estimate D2E/DX2                !
 ! D8    D(1,2,3,16)             1.1339         estimate D2E/DX2                !
 ! D9    D(1,2,3,17)          -118.3913         estimate D2E/DX2                !
 ! D10   D(4,2,3,15)           -60.7052         estimate D2E/DX2                !
 ! D11   D(4,2,3,16)           179.9561         estimate D2E/DX2                !
 ! D12   D(4,2,3,17)            60.4308         estimate D2E/DX2                !
 ! D13   D(1,2,4,5)             -0.4928         estimate D2E/DX2                !
 ! D14   D(1,2,4,11)           179.3147         estimate D2E/DX2                !
 ! D15   D(3,2,4,5)           -179.3193         estimate D2E/DX2                !
 ! D16   D(3,2,4,11)             0.4882         estimate D2E/DX2                !
 ! D17   D(2,4,5,6)            179.8442         estimate D2E/DX2                !
 ! D18   D(2,4,5,18)            -0.1866         estimate D2E/DX2                !
 ! D19   D(11,4,5,6)             0.0262         estimate D2E/DX2                !
 ! D20   D(11,4,5,18)          179.9954         estimate D2E/DX2                !
 ! D21   D(2,4,11,8)           179.9664         estimate D2E/DX2                !
 ! D22   D(2,4,11,23)           -0.7409         estimate D2E/DX2                !
 ! D23   D(5,4,11,8)            -0.215          estimate D2E/DX2                !
 ! D24   D(5,4,11,23)          179.0778         estimate D2E/DX2                !
 ! D25   D(4,5,6,7)              0.3206         estimate D2E/DX2                !
 ! D26   D(4,5,6,19)          -179.989          estimate D2E/DX2                !
 ! D27   D(18,5,6,7)          -179.6495         estimate D2E/DX2                !
 ! D28   D(18,5,6,19)            0.0409         estimate D2E/DX2                !
 ! D29   D(5,6,7,8)             -0.4428         estimate D2E/DX2                !
 ! D30   D(19,6,7,8)           179.8595         estimate D2E/DX2                !
 ! D31   D(6,7,8,9)           -178.6485         estimate D2E/DX2                !
 ! D32   D(6,7,8,11)             0.2298         estimate D2E/DX2                !
 ! D33   D(7,8,9,10)          -163.6285         estimate D2E/DX2                !
 ! D34   D(7,8,9,20)           -37.177          estimate D2E/DX2                !
 ! D35   D(7,8,9,21)            77.5383         estimate D2E/DX2                !
 ! D36   D(11,8,9,10)           17.4487         estimate D2E/DX2                !
 ! D37   D(11,8,9,20)          143.9001         estimate D2E/DX2                !
 ! D38   D(11,8,9,21)         -101.3845         estimate D2E/DX2                !
 ! D39   D(7,8,11,4)             0.0937         estimate D2E/DX2                !
 ! D40   D(7,8,11,23)         -179.2283         estimate D2E/DX2                !
 ! D41   D(9,8,11,4)           178.9232         estimate D2E/DX2                !
 ! D42   D(9,8,11,23)           -0.3988         estimate D2E/DX2                !
 ! D43   D(8,9,10,22)           65.4839         estimate D2E/DX2                !
 ! D44   D(20,9,10,22)         -58.2647         estimate D2E/DX2                !
 ! D45   D(21,9,10,22)        -174.735          estimate D2E/DX2                !
 --------------------------------------------------------------------------------
 Trust Radius=3.00D-01 FncErr=1.00D-07 GrdErr=1.00D-06 EigMax=2.50D+02 EigMin=1.00D-04
 Number of steps in this run=    116 maximum allowed number of steps=    138.
 GradGradGradGradGradGradGradGradGradGradGradGradGradGradGradGradGradGrad

                          Input orientation:                          
 ---------------------------------------------------------------------
 Center     Atomic      Atomic             Coordinates (Angstroms)
 Number     Number       Type             X           Y           Z
 ---------------------------------------------------------------------
      1          6           0        3.313010    0.167270    0.047690
      2          7           0        2.049430   -0.530090   -0.002160
      3          6           0        2.016130   -1.972490   -0.074940
      4          6           0        0.878100    0.178850   -0.004800
      5          6           0        0.853370    1.590020    0.050320
      6          6           0       -0.372400    2.243580    0.040760
      7          7           0       -1.556020    1.638050   -0.011280
      8          6           0       -1.540470    0.303740   -0.066310
      9          6           0       -2.897040   -0.366580   -0.157220
     10          8           0       -2.889380   -1.735120    0.146360
     11          6           0       -0.378980   -0.460740   -0.067010
     12          1           0        3.412260    0.776810    0.962890
     13          1           0        4.132510   -0.561210    0.042290
     14          1           0        3.451780    0.835960   -0.820140
     15          1           0        1.477130   -2.416100    0.780210
     16          1           0        3.041030   -2.362000   -0.061950
     17          1           0        1.530770   -2.329550   -0.999920
     18          1           0        1.767340    2.180010    0.100570
     19          1           0       -0.389160    3.338920    0.083430
     20          1           0       -3.600410    0.209240    0.471530
     21          1           0       -3.260180   -0.275090   -1.193440
     22          1           0       -2.654570   -1.830380    1.074340
     23          1           0       -0.477710   -1.543180   -0.127580
 ---------------------------------------------------------------------
                    Distance matrix (angstroms):
                    1          2          3          4          5
     1  C    0.000000
     2  N    1.444102   0.000000
     3  C    2.505097   1.444619   0.000000
     4  C    2.435503   1.369166   2.434809   0.000000
     5  C    2.841488   2.434785   3.749557   1.412463   0.000000
     6  C    4.230054   3.682438   4.847031   2.414319   1.389152
     7  N    5.086661   4.207159   5.079400   2.838000   2.410656
     8  C    4.856736   3.686024   4.222641   2.422573   2.720035
     9  C    6.236321   4.951600   5.169619   3.817382   4.235201
    10  O    6.488333   5.085863   4.916233   4.228479   5.007390
    11  C    3.746778   2.430265   2.832314   1.411806   2.395427
    12  H    1.104075   2.120522   3.253447   2.777759   2.835844
    13  H    1.096491   2.083787   2.546472   3.337827   3.921813
    14  H    1.104324   2.121737   3.240957   2.778561   2.842190
    15  H    3.252821   2.120534   1.103899   2.776480   4.119565
    16  H    2.546213   2.083924   1.096498   3.337282   4.518509
    17  H    3.241601   2.121931   1.103927   2.776385   4.113989
    18  H    2.538309   2.726678   4.163647   2.192371   1.089015
    19  H    4.875111   4.574198   5.832802   3.405844   2.145607
    20  H    6.926527   5.717664   6.050132   4.503872   4.681894
    21  H    6.703948   5.447580   5.654348   4.329467   4.684748
    22  H    6.376255   4.997722   4.812118   4.204914   5.005337
    23  H    4.162441   2.725531   2.531070   2.195150   3.408866
                    6          7          8          9         10
     6  C    0.000000
     7  N    1.330538   0.000000
     8  C    2.266899   1.335535   0.000000
     9  C    3.636748   2.416231   1.515875   0.000000
    10  O    4.709182   3.630561   2.453923   1.401828   0.000000
    11  C    2.706475   2.406958   1.390500   2.521434   2.823416
    12  H    4.162378   5.135616   5.080608   6.509167   6.832802
    13  H    5.306700   6.099097   5.739567   7.035073   7.120101
    14  H    4.164960   5.135724   5.076818   6.495620   6.910491
    15  H    5.067560   5.124704   4.149703   4.920637   4.464517
    16  H    5.733535   6.093918   5.300597   6.265098   5.967088
    17  H    5.061481   5.123234   4.151910   4.916187   4.604892
    18  H    2.141519   3.369118   3.806553   5.320528   6.084027
    19  H    1.096299   2.064822   3.249655   4.480860   5.656938
    20  H    3.839811   2.540499   2.131092   1.105271   2.095671
    21  H    4.025695   2.821661   2.136087   1.101813   2.015997
    22  H    4.782650   3.796760   2.663976   1.928274   0.961955
    23  H    3.791963   3.361027   2.131743   2.690432   2.434756
                   11         12         13         14         15
    11  C    0.000000
    12  H    4.118947   0.000000
    13  H    4.513932   1.776672   0.000000
    14  H    4.113801   1.784449   1.777432   0.000000
    15  H    2.826015   3.738017   3.322076   4.127500   0.000000
    16  H    3.912964   3.322685   2.108326   3.312177   1.777060
    17  H    2.830180   4.128208   3.313952   3.707163   1.783040
    18  H    3.407100   2.327730   3.621010   2.343398   4.655143
    19  H    3.802651   4.667832   5.971449   4.672694   6.090057
    20  H    3.334143   7.052738   7.783052   7.196845   5.724431
    21  H    3.099133   7.090678   7.500717   6.813530   5.560695
    22  H    2.890831   6.604263   6.981431   6.927188   4.183363
    23  H    1.088620   4.658685   4.716699   4.645518   2.325397
                   16         17         18         19         20
    16  H    0.000000
    17  H    1.778124   0.000000
    18  H    4.720016   4.647922   0.000000
    19  H    6.654910   6.082050   2.448236   0.000000
    20  H    7.141751   5.910975   5.730121   4.500849   0.000000
    21  H    6.733551   5.216460   5.742642   4.788969   1.767048
    22  H    5.832121   4.697744   6.048532   5.730240   2.327669
    23  H    3.613351   2.326660   4.353670   4.887460   3.630587
                   21         22         23
    21  H    0.000000
    22  H    2.815762   0.000000
    23  H    3.238248   2.503161   0.000000
 Stoichiometry    C8H12N2O
 Framework group  C1[X(C8H12N2O)]
 Deg. of freedom    63
 Full point group                 C1      NOp   1
 Largest Abelian subgroup         C1      NOp   1
 Largest concise Abelian subgroup C1      NOp   1
                         Standard orientation:                         
 ---------------------------------------------------------------------
 Center     Atomic      Atomic             Coordinates (Angstroms)
 Number     Number       Type             X           Y           Z
 ---------------------------------------------------------------------
      1          6           0       -3.313011    0.167269   -0.047690
      2          7           0       -2.049431   -0.530091    0.002160
      3          6           0       -2.016131   -1.972491    0.074940
      4          6           0       -0.878101    0.178849    0.004800
      5          6           0       -0.853371    1.590019   -0.050320
      6          6           0        0.372399    2.243579   -0.040760
      7          7           0        1.556019    1.638049    0.011280
      8          6           0        1.540469    0.303739    0.066310
      9          6           0        2.897039   -0.366581    0.157220
     10          8           0        2.889379   -1.735121   -0.146360
     11          6           0        0.378979   -0.460741    0.067010
     12          1           0       -3.412261    0.776809   -0.962890
     13          1           0       -4.132511   -0.561211   -0.042290
     14          1           0       -3.451781    0.835959    0.820140
     15          1           0       -1.477131   -2.416101   -0.780210
     16          1           0       -3.041031   -2.362001    0.061950
     17          1           0       -1.530771   -2.329551    0.999920
     18          1           0       -1.767341    2.180009   -0.100570
     19          1           0        0.389160    3.338919   -0.083430
     20          1           0        3.600409    0.209239   -0.471530
     21          1           0        3.260179   -0.275091    1.193440
     22          1           0        2.654569   -1.830381   -1.074340
     23          1           0        0.477709   -1.543181    0.127580
 ---------------------------------------------------------------------
 Rotational constants (GHZ):           1.8019116           0.7738044           0.5495623
 Standard basis: def2SVP (5D, 7F)
 There are   225 symmetry adapted cartesian basis functions of A   symmetry.
 There are   214 symmetry adapted basis functions of A   symmetry.
   214 basis functions,   359 primitive gaussians,   225 cartesian basis functions
    41 alpha electrons       41 beta electrons
       nuclear repulsion energy       608.2022990210 Hartrees.
 NAtoms=   23 NActive=   23 NUniq=   23 SFac= 1.00D+00 NAtFMM=   60 NAOKFM=F Big=F
 Integral buffers will be    131072 words long.
 Raffenetti 2 integral format.
 Two-electron integral symmetry is turned on.
 Nuclear repulsion after empirical dispersion term =      608.1889340195 Hartrees.
 One-electron integrals computed using PRISM.
   1 Symmetry operations used in ECPInt.
 ECPInt:  NShTT=    5253 NPrTT=   18707 LenC2=    5109 LenP2D=   13909.
 LDataN:  DoStor=T MaxTD1= 4 Len=   56
 NBasis=   214 RedAO= T EigKep=  5.73D-04  NBF=   214
 NBsUse=   214 1.00D-06 EigRej= -1.00D+00 NBFU=   214
 ExpMin= 1.22D-01 ExpMax= 2.27D+03 ExpMxC= 3.41D+02 IAcc=3 IRadAn=         5 AccDes= 0.00D+00
 Harris functional with IExCor= 4639 and IRadAn=       5 diagonalized for initial guess.
 HarFok:  IExCor= 4639 AccDes= 0.00D+00 IRadAn=         5 IDoV= 1 UseB2=F ITyADJ=14
 ICtDFT=  3500011 ScaDFX=  1.000000  1.000000  1.000000  1.000000
 FoFCou: FMM=F IPFlag=           0 FMFlag=      100000 FMFlg1=           0
         NFxFlg=           0 DoJE=T BraDBF=F KetDBF=T FulRan=T
         wScrn=  0.000000 ICntrl=       500 IOpCl=  0 I1Cent=   200000004 NGrid=           0
         NMat0=    1 NMatS0=      1 NMatT0=    0 NMatD0=    1 NMtDS0=    0 NMtDT0=    0
 Petite list used in FoFCou.
 Requested convergence on RMS density matrix=1.00D-08 within 128 cycles.
 Requested convergence on MAX density matrix=1.00D-06.
 Requested convergence on             energy=1.00D-06.
 No special actions if energy rises.
 Integral accuracy reduced to 1.0D-05 until final iterations.
 Initial convergence to 1.0D-05 achieved.  Increase integral accuracy.
 SCF Done:  E(RwB97XD) =  -496.272896623     A.U. after   15 cycles
            NFock= 15  Conv=0.42D-08     -V/T= 2.0106

 **********************************************************************

            Population analysis using the SCF Density.

 **********************************************************************

 Orbital symmetries:
       Occupied  (A) (A) (A) (A) (A) (A) (A) (A) (A) (A) (A) (A)
                 (A) (A) (A) (A) (A) (A) (A) (A) (A) (A) (A) (A)
                 (A) (A) (A) (A) (A) (A) (A) (A) (A) (A) (A) (A)
                 (A) (A) (A) (A) (A)
       Virtual   (A) (A) (A) (A) (A) (A) (A) (A) (A) (A) (A) (A)
                 (A) (A) (A) (A) (A) (A) (A) (A) (A) (A) (A) (A)
                 (A) (A) (A) (A) (A) (A) (A) (A) (A) (A) (A) (A)
                 (A) (A) (A) (A) (A) (A) (A) (A) (A) (A) (A) (A)
                 (A) (A) (A) (A) (A) (A) (A) (A) (A) (A) (A) (A)
                 (A) (A) (A) (A) (A) (A) (A) (A) (A) (A) (A) (A)
                 (A) (A) (A) (A) (A) (A) (A) (A) (A) (A) (A) (A)
                 (A) (A) (A) (A) (A) (A) (A) (A) (A) (A) (A) (A)
                 (A) (A) (A) (A) (A) (A) (A) (A) (A) (A) (A) (A)
                 (A) (A) (A) (A) (A) (A) (A) (A) (A) (A) (A) (A)
                 (A) (A) (A) (A) (A) (A) (A) (A) (A) (A) (A) (A)
                 (A) (A) (A) (A) (A) (A) (A) (A) (A) (A) (A) (A)
                 (A) (A) (A) (A) (A) (A) (A) (A) (A) (A) (A) (A)
                 (A) (A) (A) (A) (A) (A) (A) (A) (A) (A) (A) (A)
                 (A) (A) (A) (A) (A)
 The electronic state is 1-A.
 Alpha  occ. eigenvalues --  -19.25315 -14.47487 -14.41515 -10.35221 -10.34168
 Alpha  occ. eigenvalues --  -10.34062 -10.33549 -10.32502 -10.32371 -10.29239
 Alpha  occ. eigenvalues --  -10.28978  -1.11349  -1.05884  -1.02113  -0.88231
 Alpha  occ. eigenvalues --   -0.85869  -0.82874  -0.77617  -0.76669  -0.69890
 Alpha  occ. eigenvalues --   -0.66775  -0.62599  -0.60210  -0.58013  -0.56559
 Alpha  occ. eigenvalues --   -0.54335  -0.53349  -0.53058  -0.52051  -0.50845
 Alpha  occ. eigenvalues --   -0.50098  -0.48472  -0.47486  -0.47158  -0.44130
 Alpha  occ. eigenvalues --   -0.41280  -0.39201  -0.36414  -0.32534  -0.32360
 Alpha  occ. eigenvalues --   -0.28523
 Alpha virt. eigenvalues --    0.06548   0.06829   0.12891   0.14595   0.15825
 Alpha virt. eigenvalues --    0.16848   0.18325   0.19436   0.21005   0.21272
 Alpha virt. eigenvalues --    0.21548   0.22423   0.22647   0.23960   0.25158
 Alpha virt. eigenvalues --    0.26314   0.28253   0.30609   0.32841   0.35110
 Alpha virt. eigenvalues --    0.37074   0.37954   0.40223   0.42150   0.44946
 Alpha virt. eigenvalues --    0.47004   0.48486   0.49695   0.51841   0.53204
 Alpha virt. eigenvalues --    0.54520   0.56304   0.57587   0.57695   0.59254
 Alpha virt. eigenvalues --    0.59763   0.61529   0.61853   0.64943   0.67954
 Alpha virt. eigenvalues --    0.69073   0.69989   0.71033   0.71405   0.71607
 Alpha virt. eigenvalues --    0.72398   0.72782   0.73386   0.74513   0.75334
 Alpha virt. eigenvalues --    0.75787   0.77045   0.77690   0.78233   0.78510
 Alpha virt. eigenvalues --    0.78892   0.80042   0.80270   0.82392   0.84885
 Alpha virt. eigenvalues --    0.87001   0.88707   0.90954   0.95199   0.97649
 Alpha virt. eigenvalues --    1.01237   1.02161   1.03795   1.08931   1.10338
 Alpha virt. eigenvalues --    1.14638   1.15801   1.19108   1.19842   1.21729
 Alpha virt. eigenvalues --    1.23169   1.29313   1.29774   1.31152   1.34639
 Alpha virt. eigenvalues --    1.35658   1.36780   1.39955   1.40615   1.43074
 Alpha virt. eigenvalues --    1.45212   1.46999   1.53520   1.55401   1.56986
 Alpha virt. eigenvalues --    1.57825   1.59068   1.60274   1.60705   1.62470
 Alpha virt. eigenvalues --    1.67484   1.71610   1.73173   1.75977   1.80458
 Alpha virt. eigenvalues --    1.81218   1.81802   1.82759   1.84776   1.85094
 Alpha virt. eigenvalues --    1.86609   1.87718   1.89086   1.90063   1.90536
 Alpha virt. eigenvalues --    1.94368   1.94893   1.96522   1.97573   1.98859
 Alpha virt. eigenvalues --    2.00230   2.01115   2.02550   2.03038   2.06095
 Alpha virt. eigenvalues --    2.08448   2.09397   2.15544   2.16134   2.21389
 Alpha virt. eigenvalues --    2.22763   2.25864   2.27672   2.29790   2.30128
 Alpha virt. eigenvalues --    2.31029   2.31999   2.34800   2.36349   2.42600
 Alpha virt. eigenvalues --    2.43656   2.45752   2.47690   2.47856   2.50567
 Alpha virt. eigenvalues --    2.52697   2.52982   2.56036   2.67770   2.68156
 Alpha virt. eigenvalues --    2.69342   2.72841   2.75086   2.75972   2.78924
 Alpha virt. eigenvalues --    2.81639   2.83341   2.90053   2.91368   2.92358
 Alpha virt. eigenvalues --    2.96017   2.96602   2.97952   3.00265   3.01976
 Alpha virt. eigenvalues --    3.05167   3.06250   3.07197   3.10413   3.14543
 Alpha virt. eigenvalues --    3.19011   3.24990   3.30298   3.39895   3.44302
 Alpha virt. eigenvalues --    3.53856   3.73129   3.86235
          Condensed to atoms (all electrons):
               1          2          3          4          5          6
     1  C    4.457353   0.350932  -0.045064  -0.056748   0.001818   0.000608
     2  N    0.350932   6.638636   0.348486   0.408361  -0.094220   0.005444
     3  C   -0.045064   0.348486   4.454408  -0.057202   0.007819  -0.000131
     4  C   -0.056748   0.408361  -0.057202   4.916691   0.379093   0.007717
     5  C    0.001818  -0.094220   0.007819   0.379093   5.125929   0.453864
     6  C    0.000608   0.005444  -0.000131   0.007717   0.453864   4.696888
     7  N    0.000016  -0.000223   0.000019  -0.052779  -0.034580   0.521898
     8  C   -0.000116   0.007517   0.000588   0.000517  -0.076748  -0.049341
     9  C    0.000005  -0.000043  -0.000097   0.009250  -0.000056   0.005931
    10  O    0.000000   0.000003  -0.000040   0.002259  -0.000057  -0.000060
    11  C    0.007812  -0.101406   0.004809   0.327898   0.004194  -0.074222
    12  H    0.400071  -0.029458   0.003071  -0.011164   0.005819   0.000727
    13  H    0.398121  -0.020201  -0.011500   0.006887   0.000429  -0.000046
    14  H    0.400369  -0.030291   0.002974  -0.010863   0.006265   0.000676
    15  H    0.003130  -0.028433   0.398100  -0.013067  -0.000214  -0.000019
    16  H   -0.011589  -0.021072   0.396948   0.006997  -0.000146   0.000012
    17  H    0.002895  -0.028745   0.401273  -0.011693  -0.000093  -0.000022
    18  H    0.010612  -0.014860  -0.000081  -0.063570   0.423211  -0.039035
    19  H   -0.000045  -0.000117   0.000008   0.006942  -0.069037   0.421409
    20  H   -0.000000   0.000003   0.000001   0.000159   0.000184   0.000230
    21  H   -0.000000   0.000009  -0.000005   0.000011  -0.000058  -0.000005
    22  H   -0.000000   0.000005  -0.000029  -0.000332  -0.000067  -0.000011
    23  H   -0.000083  -0.013925   0.011485  -0.052200   0.012367  -0.000399
               7          8          9         10         11         12
     1  C    0.000016  -0.000116   0.000005   0.000000   0.007812   0.400071
     2  N   -0.000223   0.007517  -0.000043   0.000003  -0.101406  -0.029458
     3  C    0.000019   0.000588  -0.000097  -0.000040   0.004809   0.003071
     4  C   -0.052779   0.000517   0.009250   0.002259   0.327898  -0.011164
     5  C   -0.034580  -0.076748  -0.000056  -0.000057   0.004194   0.005819
     6  C    0.521898  -0.049341   0.005931  -0.000060  -0.074222   0.000727
     7  N    6.370394   0.495122  -0.066197   0.002159  -0.051214  -0.000015
     8  C    0.495122   5.223682   0.305845  -0.059892   0.408795  -0.000017
     9  C   -0.066197   0.305845   4.558322   0.337938  -0.115593  -0.000000
    10  O    0.002159  -0.059892   0.337938   7.740887  -0.003822   0.000000
    11  C   -0.051214   0.408795  -0.115593  -0.003822   5.264800  -0.000015
    12  H   -0.000015  -0.000017  -0.000000   0.000000  -0.000015   0.645717
    13  H    0.000001   0.000016  -0.000000   0.000000  -0.000208  -0.020766
    14  H   -0.000018  -0.000030   0.000000  -0.000000   0.000006  -0.041569
    15  H   -0.000007   0.001446  -0.000049  -0.000045   0.007546   0.001088
    16  H    0.000000  -0.000073  -0.000001  -0.000001   0.000821   0.000307
    17  H   -0.000014   0.001061   0.000061  -0.000056   0.006353  -0.000759
    18  H    0.005759   0.000086   0.000069  -0.000000   0.012482  -0.001826
    19  H   -0.039725   0.005718  -0.000237   0.000001   0.001320   0.000003
    20  H    0.010358  -0.053491   0.385338  -0.023176   0.014104  -0.000000
    21  H    0.005381  -0.002971   0.357710  -0.024833  -0.009544   0.000000
    22  H    0.000377   0.013040  -0.049715   0.330849  -0.003194   0.000000
    23  H    0.006075  -0.054157  -0.015065   0.031666   0.411080  -0.000018
              13         14         15         16         17         18
     1  C    0.398121   0.400369   0.003130  -0.011589   0.002895   0.010612
     2  N   -0.020201  -0.030291  -0.028433  -0.021072  -0.028745  -0.014860
     3  C   -0.011500   0.002974   0.398100   0.396948   0.401273  -0.000081
     4  C    0.006887  -0.010863  -0.013067   0.006997  -0.011693  -0.063570
     5  C    0.000429   0.006265  -0.000214  -0.000146  -0.000093   0.423211
     6  C   -0.000046   0.000676  -0.000019   0.000012  -0.000022  -0.039035
     7  N    0.000001  -0.000018  -0.000007   0.000000  -0.000014   0.005759
     8  C    0.000016  -0.000030   0.001446  -0.000073   0.001061   0.000086
     9  C   -0.000000   0.000000  -0.000049  -0.000001   0.000061   0.000069
    10  O    0.000000  -0.000000  -0.000045  -0.000001  -0.000056  -0.000000
    11  C   -0.000208   0.000006   0.007546   0.000821   0.006353   0.012482
    12  H   -0.020766  -0.041569   0.001088   0.000307  -0.000759  -0.001826
    13  H    0.619915  -0.021108   0.000312   0.004386   0.000232   0.000132
    14  H   -0.021108   0.645420  -0.000779   0.000243   0.001189  -0.001628
    15  H    0.000312  -0.000779   0.648853  -0.021241  -0.040556  -0.000012
    16  H    0.004386   0.000243  -0.021241   0.622635  -0.021146  -0.000003
    17  H    0.000232   0.001189  -0.040556  -0.021146   0.639731  -0.000009
    18  H    0.000132  -0.001628  -0.000012  -0.000003  -0.000009   0.674527
    19  H   -0.000000   0.000004  -0.000000  -0.000000  -0.000000  -0.007538
    20  H    0.000000   0.000000  -0.000006  -0.000000  -0.000000  -0.000007
    21  H    0.000000   0.000000   0.000004  -0.000000  -0.000003  -0.000004
    22  H    0.000000  -0.000000   0.000103   0.000000  -0.000016  -0.000000
    23  H    0.000002  -0.000014  -0.002031  -0.000027  -0.002083  -0.000069
              19         20         21         22         23
     1  C   -0.000045  -0.000000  -0.000000  -0.000000  -0.000083
     2  N   -0.000117   0.000003   0.000009   0.000005  -0.013925
     3  C    0.000008   0.000001  -0.000005  -0.000029   0.011485
     4  C    0.006942   0.000159   0.000011  -0.000332  -0.052200
     5  C   -0.069037   0.000184  -0.000058  -0.000067   0.012367
     6  C    0.421409   0.000230  -0.000005  -0.000011  -0.000399
     7  N   -0.039725   0.010358   0.005381   0.000377   0.006075
     8  C    0.005718  -0.053491  -0.002971   0.013040  -0.054157
     9  C   -0.000237   0.385338   0.357710  -0.049715  -0.015065
    10  O    0.000001  -0.023176  -0.024833   0.330849   0.031666
    11  C    0.001320   0.014104  -0.009544  -0.003194   0.411080
    12  H    0.000003  -0.000000   0.000000   0.000000  -0.000018
    13  H   -0.000000   0.000000   0.000000   0.000000   0.000002
    14  H    0.000004   0.000000   0.000000  -0.000000  -0.000014
    15  H   -0.000000  -0.000006   0.000004   0.000103  -0.002031
    16  H   -0.000000  -0.000000  -0.000000   0.000000  -0.000027
    17  H   -0.000000  -0.000000  -0.000003  -0.000016  -0.002083
    18  H   -0.007538  -0.000007  -0.000004  -0.000000  -0.000069
    19  H    0.657466  -0.000083   0.000003   0.000000   0.000062
    20  H   -0.000083   0.667359  -0.022609  -0.011018   0.001725
    21  H    0.000003  -0.022609   0.638398   0.009891  -0.000239
    22  H    0.000000  -0.011018   0.009891   0.537249  -0.001210
    23  H    0.000062   0.001725  -0.000239  -0.001210   0.676407
 Mulliken charges:
               1
     1  C    0.079903
     2  N   -0.376403
     3  C    0.084160
     4  C    0.256837
     5  C   -0.145715
     6  C    0.047888
     7  N   -0.172786
     8  C   -0.166595
     9  C    0.286582
    10  O   -0.333781
    11  C   -0.112802
    12  H    0.048803
    13  H    0.043396
    14  H    0.049154
    15  H    0.045874
    16  H    0.042951
    17  H    0.052399
    18  H    0.001764
    19  H    0.023846
    20  H    0.030929
    21  H    0.048866
    22  H    0.174079
    23  H   -0.009350
 Sum of Mulliken charges =  -0.00000
 Mulliken charges with hydrogens summed into heavy atoms:
               1
     1  C    0.221256
     2  N   -0.376403
     3  C    0.225384
     4  C    0.256837
     5  C   -0.143951
     6  C    0.071734
     7  N   -0.172786
     8  C   -0.166595
     9  C    0.366378
    10  O   -0.159702
    11  C   -0.122152
 Electronic spatial extent (au):  <R**2>=           2037.8406
 Charge=             -0.0000 electrons
 Dipole moment (field-independent basis, Debye):
    X=             -4.0072    Y=             -1.3634    Z=             -1.0025  Tot=              4.3499
 Quadrupole moment (field-independent basis, Debye-Ang):
   XX=            -61.4514   YY=            -65.9370   ZZ=            -65.6282
   XY=              0.6378   XZ=             -2.5498   YZ=              2.1824
 Traceless Quadrupole moment (field-independent basis, Debye-Ang):
   XX=              2.8874   YY=             -1.5981   ZZ=             -1.2894
   XY=              0.6378   XZ=             -2.5498   YZ=              2.1824
 Octapole moment (field-independent basis, Debye-Ang**2):
  XXX=            -32.8787  YYY=             -6.3110  ZZZ=             -2.7513  XYY=            -22.3713
  XXY=             -4.1579  XXZ=             -6.7549  XZZ=             10.9416  YZZ=             -9.4129
  YYZ=             -6.1018  XYZ=              6.8836
 Hexadecapole moment (field-independent basis, Debye-Ang**3):
 XXXX=          -1691.1830 YYYY=           -766.1985 ZZZZ=            -90.5855 XXXY=             24.8892
 XXXZ=            -16.9576 YYYX=             -5.5212 YYYZ=             10.7826 ZZZX=             -7.2917
 ZZZY=              6.8796 XXYY=           -461.2627 XXZZ=           -291.9096 YYZZ=           -146.1135
 XXYZ=             15.7147 YYXZ=            -15.6527 ZZXY=            -17.8440
 N-N= 6.081889340195D+02 E-N=-2.369456593818D+03  KE= 4.910767305537D+02
   1 Symmetry operations used in ECPInt.
 ECPInt:  NShTT=    5253 NPrTT=   18707 LenC2=    5109 LenP2D=   13909.
 LDataN:  DoStor=T MaxTD1= 5 Len=  102
 Calling FoFJK, ICntrl=      2127 FMM=F ISym2X=0 I1Cent= 0 IOpClX= 0 NMat=1 NMatS=1 NMatT=0.
 ***** Axes restored to original set *****
 -------------------------------------------------------------------
 Center     Atomic                   Forces (Hartrees/Bohr)
 Number     Number              X              Y              Z
 -------------------------------------------------------------------
      1        6           0.000005375    0.000002041    0.000007521
      2        7           0.000000632    0.000002782   -0.000002141
      3        6           0.000004635   -0.000004194    0.000003711
      4        6           0.000007561    0.000023838   -0.000009213
      5        6           0.000009692   -0.000018251   -0.000004578
      6        6          -0.000033026   -0.000007873    0.000016799
      7        7           0.000011769    0.000027072    0.000000173
      8        6           0.000003594   -0.000024041   -0.000019340
      9        6           0.000002706   -0.000014887    0.000015268
     10        8           0.000001101    0.000004182    0.000009731
     11        6          -0.000009794   -0.000003930    0.000006643
     12        1          -0.000001340   -0.000002634   -0.000000632
     13        1          -0.000000415    0.000000417   -0.000001322
     14        1          -0.000003039   -0.000000060    0.000000543
     15        1          -0.000001139   -0.000000603    0.000000701
     16        1           0.000001827    0.000000493   -0.000004538
     17        1          -0.000001703    0.000001247    0.000002360
     18        1           0.000002972    0.000002146    0.000000632
     19        1           0.000004559    0.000001464   -0.000005481
     20        1          -0.000004173    0.000002867   -0.000002110
     21        1           0.000000153    0.000003962   -0.000000802
     22        1          -0.000000976    0.000001547   -0.000015616
     23        1          -0.000000972    0.000002414    0.000001691
 -------------------------------------------------------------------
 Cartesian Forces:  Max     0.000033026 RMS     0.000009123

 GradGradGradGradGradGradGradGradGradGradGradGradGradGradGradGradGradGrad
 Berny optimization.
 FormGI is forming the generalized inverse of G from B-inverse, IUseBI=4.
 Internal  Forces:  Max     0.000018900 RMS     0.000004304
 Search for a local minimum.
 Step number   1 out of a maximum of  116
 All quantities printed in internal units (Hartrees-Bohrs-Radians)
 Mixed Optimization -- En-DIIS/RFO-DIIS
 Second derivative matrix not updated -- first step.
 ITU=  0
     Eigenvalues ---    0.00556   0.01102   0.01108   0.01353   0.01540
     Eigenvalues ---    0.01668   0.01955   0.02024   0.02058   0.02090
     Eigenvalues ---    0.02100   0.02225   0.02350   0.02478   0.05721
     Eigenvalues ---    0.07244   0.07246   0.07458   0.07554   0.07558
     Eigenvalues ---    0.11979   0.14302   0.15999   0.16000   0.16000
     Eigenvalues ---    0.16000   0.16000   0.16000   0.16000   0.16000
     Eigenvalues ---    0.16000   0.16000   0.22083   0.22317   0.23477
     Eigenvalues ---    0.24560   0.24995   0.24996   0.24997   0.25000
     Eigenvalues ---    0.30767   0.33106   0.33208   0.33236   0.33252
     Eigenvalues ---    0.33255   0.33482   0.34072   0.34073   0.34095
     Eigenvalues ---    0.34927   0.34973   0.38959   0.39028   0.41752
     Eigenvalues ---    0.41958   0.45160   0.45319   0.47349   0.51137
     Eigenvalues ---    0.55055   0.56291   0.58051
 RFO step:  Lambda=-1.78848768D-08 EMin= 5.55957471D-03
 Linear search not attempted -- first point.
 Iteration  1 RMS(Cart)=  0.00013942 RMS(Int)=  0.00000001
 Iteration  2 RMS(Cart)=  0.00000002 RMS(Int)=  0.00000000
 Variable       Old X    -DE/DX   Delta X   Delta X   Delta X     New X
                                 (Linear)    (Quad)   (Total)
    R1        2.72896  -0.00000   0.00000  -0.00000  -0.00000   2.72896
    R2        2.08640  -0.00000   0.00000  -0.00001  -0.00001   2.08639
    R3        2.07207  -0.00000   0.00000  -0.00000  -0.00000   2.07207
    R4        2.08687  -0.00000   0.00000  -0.00000  -0.00000   2.08687
    R5        2.72993   0.00000   0.00000   0.00001   0.00001   2.72994
    R6        2.58735   0.00001   0.00000   0.00001   0.00001   2.58736
    R7        2.08607   0.00000   0.00000   0.00001   0.00001   2.08607
    R8        2.07208   0.00000   0.00000   0.00000   0.00000   2.07208
    R9        2.08612  -0.00000   0.00000  -0.00000  -0.00000   2.08611
   R10        2.66917  -0.00001   0.00000  -0.00003  -0.00003   2.66913
   R11        2.66793   0.00001   0.00000   0.00003   0.00003   2.66795
   R12        2.62512   0.00001   0.00000   0.00003   0.00003   2.62515
   R13        2.05794   0.00000   0.00000   0.00001   0.00001   2.05795
   R14        2.51435  -0.00002   0.00000  -0.00003  -0.00003   2.51433
   R15        2.07170   0.00000   0.00000   0.00000   0.00000   2.07171
   R16        2.52380   0.00002   0.00000   0.00003   0.00003   2.52383
   R17        2.86459   0.00000   0.00000   0.00000   0.00000   2.86459
   R18        2.62766  -0.00000   0.00000  -0.00001  -0.00001   2.62766
   R19        2.64907  -0.00001   0.00000  -0.00002  -0.00002   2.64905
   R20        2.08866   0.00000   0.00000   0.00001   0.00001   2.08867
   R21        2.08213   0.00000   0.00000   0.00000   0.00000   2.08213
   R22        1.81783  -0.00002   0.00000  -0.00003  -0.00003   1.81780
   R23        2.05719  -0.00000   0.00000  -0.00001  -0.00001   2.05719
    A1        1.95398  -0.00000   0.00000  -0.00001  -0.00001   1.95397
    A2        1.91024   0.00000   0.00000   0.00000   0.00000   1.91024
    A3        1.95544  -0.00000   0.00000  -0.00002  -0.00002   1.95542
    A4        1.87936   0.00000   0.00000   0.00001   0.00001   1.87936
    A5        1.88159   0.00000   0.00000   0.00001   0.00001   1.88161
    A6        1.88021   0.00000   0.00000   0.00001   0.00001   1.88022
    A7        2.09910  -0.00000   0.00000  -0.00001  -0.00001   2.09909
    A8        2.09276   0.00000   0.00000   0.00000   0.00000   2.09277
    A9        2.09114   0.00000   0.00000   0.00001   0.00001   2.09114
   A10        1.95354   0.00000   0.00000   0.00000   0.00000   1.95355
   A11        1.90979   0.00000   0.00000   0.00001   0.00001   1.90980
   A12        1.95551  -0.00000   0.00000  -0.00002  -0.00002   1.95550
   A13        1.88017   0.00000   0.00000   0.00003   0.00003   1.88019
   A14        1.88014  -0.00000   0.00000  -0.00002  -0.00002   1.88013
   A15        1.88177  -0.00000   0.00000  -0.00000  -0.00000   1.88177
   A16        2.13202   0.00000   0.00000   0.00001   0.00001   2.13202
   A17        2.12617  -0.00000   0.00000  -0.00000  -0.00000   2.12616
   A18        2.02500  -0.00000   0.00000  -0.00000  -0.00000   2.02500
   A19        2.07742   0.00000   0.00000  -0.00000  -0.00000   2.07741
   A20        2.12748  -0.00000   0.00000  -0.00000  -0.00000   2.12748
   A21        2.07829  -0.00000   0.00000   0.00000   0.00000   2.07829
   A22        2.17865   0.00000   0.00000   0.00002   0.00002   2.17867
   A23        2.07520  -0.00001   0.00000  -0.00004  -0.00004   2.07516
   A24        2.02932   0.00000   0.00000   0.00002   0.00002   2.02935
   A25        2.03302  -0.00000   0.00000  -0.00001  -0.00001   2.03301
   A26        2.01955  -0.00000   0.00000  -0.00001  -0.00001   2.01954
   A27        2.16401  -0.00000   0.00000  -0.00001  -0.00001   2.16401
   A28        2.09945   0.00001   0.00000   0.00002   0.00002   2.09947
   A29        1.99744   0.00000   0.00000   0.00002   0.00002   1.99746
   A30        1.88074   0.00000   0.00000   0.00001   0.00001   1.88076
   A31        1.89086  -0.00000   0.00000  -0.00004  -0.00004   1.89083
   A32        1.97022   0.00000   0.00000   0.00004   0.00004   1.97026
   A33        1.86140   0.00000   0.00000   0.00000   0.00000   1.86140
   A34        1.85667  -0.00000   0.00000  -0.00004  -0.00004   1.85664
   A35        1.88275  -0.00000   0.00000  -0.00001  -0.00001   1.88274
   A36        2.08825   0.00000   0.00000   0.00001   0.00001   2.08825
   A37        2.13372   0.00000   0.00000   0.00001   0.00001   2.13373
   A38        2.06115  -0.00000   0.00000  -0.00001  -0.00001   2.06114
    D1       -2.10320   0.00000   0.00000   0.00013   0.00013  -2.10307
    D2        1.05896   0.00000   0.00000   0.00008   0.00008   1.05904
    D3       -0.02079   0.00000   0.00000   0.00014   0.00014  -0.02065
    D4        3.14137   0.00000   0.00000   0.00009   0.00009   3.14146
    D5        2.06362   0.00000   0.00000   0.00014   0.00014   2.06375
    D6       -1.05740   0.00000   0.00000   0.00008   0.00008  -1.05732
    D7        2.10264  -0.00000   0.00000  -0.00020  -0.00020   2.10244
    D8        0.01979  -0.00000   0.00000  -0.00024  -0.00024   0.01955
    D9       -2.06632  -0.00000   0.00000  -0.00023  -0.00023  -2.06655
   D10       -1.05950  -0.00000   0.00000  -0.00015  -0.00015  -1.05965
   D11        3.14083  -0.00000   0.00000  -0.00019  -0.00019   3.14064
   D12        1.05472  -0.00000   0.00000  -0.00018  -0.00018   1.05454
   D13       -0.00860   0.00000   0.00000   0.00002   0.00002  -0.00858
   D14        3.12963   0.00000   0.00000   0.00012   0.00012   3.12975
   D15       -3.12971  -0.00000   0.00000  -0.00004  -0.00004  -3.12975
   D16        0.00852   0.00000   0.00000   0.00006   0.00006   0.00858
   D17        3.13887   0.00000   0.00000   0.00015   0.00015   3.13902
   D18       -0.00326   0.00000   0.00000   0.00009   0.00009  -0.00317
   D19        0.00046   0.00000   0.00000   0.00005   0.00005   0.00051
   D20        3.14151  -0.00000   0.00000  -0.00001  -0.00001   3.14151
   D21        3.14101  -0.00000   0.00000  -0.00001  -0.00001   3.14100
   D22       -0.01293   0.00000   0.00000   0.00000   0.00000  -0.01293
   D23       -0.00375   0.00000   0.00000   0.00009   0.00009  -0.00366
   D24        3.12550   0.00000   0.00000   0.00010   0.00010   3.12560
   D25        0.00560  -0.00000   0.00000  -0.00015  -0.00015   0.00545
   D26       -3.14140   0.00000   0.00000   0.00012   0.00012  -3.14128
   D27       -3.13547  -0.00000   0.00000  -0.00010  -0.00010  -3.13557
   D28        0.00071   0.00000   0.00000   0.00018   0.00018   0.00089
   D29       -0.00773   0.00000   0.00000   0.00010   0.00010  -0.00763
   D30        3.13914  -0.00000   0.00000  -0.00017  -0.00017   3.13897
   D31       -3.11800  -0.00000   0.00000  -0.00020  -0.00020  -3.11820
   D32        0.00401   0.00000   0.00000   0.00006   0.00006   0.00407
   D33       -2.85586  -0.00000   0.00000  -0.00014  -0.00014  -2.85599
   D34       -0.64886   0.00000   0.00000  -0.00006  -0.00006  -0.64892
   D35        1.35330  -0.00000   0.00000  -0.00012  -0.00012   1.35318
   D36        0.30454  -0.00000   0.00000  -0.00038  -0.00038   0.30416
   D37        2.51153  -0.00000   0.00000  -0.00031  -0.00031   2.51122
   D38       -1.76949  -0.00000   0.00000  -0.00037  -0.00037  -1.76986
   D39        0.00163  -0.00000   0.00000  -0.00015  -0.00015   0.00148
   D40       -3.12812  -0.00000   0.00000  -0.00016  -0.00016  -3.12829
   D41        3.12280   0.00000   0.00000   0.00012   0.00012   3.12291
   D42       -0.00696   0.00000   0.00000   0.00011   0.00011  -0.00685
   D43        1.14291   0.00000   0.00000  -0.00005  -0.00005   1.14286
   D44       -1.01691  -0.00000   0.00000  -0.00012  -0.00012  -1.01703
   D45       -3.04970  -0.00000   0.00000  -0.00009  -0.00009  -3.04979
         Item               Value     Threshold  Converged?
 Maximum Force            0.000019     0.000450     YES
 RMS     Force            0.000004     0.000300     YES
 Maximum Displacement     0.000506     0.001800     YES
 RMS     Displacement     0.000139     0.001200     YES
 Predicted change in Energy=-8.942472D-09
 Optimization completed.
    -- Stationary point found.
                           ----------------------------
                           !   Optimized Parameters   !
                           ! (Angstroms and Degrees)  !
 --------------------------                            --------------------------
 ! Name  Definition              Value          Derivative Info.                !
 --------------------------------------------------------------------------------
 ! R1    R(1,2)                  1.4441         -DE/DX =    0.0                 !
 ! R2    R(1,12)                 1.1041         -DE/DX =    0.0                 !
 ! R3    R(1,13)                 1.0965         -DE/DX =    0.0                 !
 ! R4    R(1,14)                 1.1043         -DE/DX =    0.0                 !
 ! R5    R(2,3)                  1.4446         -DE/DX =    0.0                 !
 ! R6    R(2,4)                  1.3692         -DE/DX =    0.0                 !
 ! R7    R(3,15)                 1.1039         -DE/DX =    0.0                 !
 ! R8    R(3,16)                 1.0965         -DE/DX =    0.0                 !
 ! R9    R(3,17)                 1.1039         -DE/DX =    0.0                 !
 ! R10   R(4,5)                  1.4125         -DE/DX =    0.0                 !
 ! R11   R(4,11)                 1.4118         -DE/DX =    0.0                 !
 ! R12   R(5,6)                  1.3892         -DE/DX =    0.0                 !
 ! R13   R(5,18)                 1.089          -DE/DX =    0.0                 !
 ! R14   R(6,7)                  1.3305         -DE/DX =    0.0                 !
 ! R15   R(6,19)                 1.0963         -DE/DX =    0.0                 !
 ! R16   R(7,8)                  1.3355         -DE/DX =    0.0                 !
 ! R17   R(8,9)                  1.5159         -DE/DX =    0.0                 !
 ! R18   R(8,11)                 1.3905         -DE/DX =    0.0                 !
 ! R19   R(9,10)                 1.4018         -DE/DX =    0.0                 !
 ! R20   R(9,20)                 1.1053         -DE/DX =    0.0                 !
 ! R21   R(9,21)                 1.1018         -DE/DX =    0.0                 !
 ! R22   R(10,22)                0.962          -DE/DX =    0.0                 !
 ! R23   R(11,23)                1.0886         -DE/DX =    0.0                 !
 ! A1    A(2,1,12)             111.9547         -DE/DX =    0.0                 !
 ! A2    A(2,1,13)             109.4485         -DE/DX =    0.0                 !
 ! A3    A(2,1,14)             112.0386         -DE/DX =    0.0                 !
 ! A4    A(12,1,13)            107.6791         -DE/DX =    0.0                 !
 ! A5    A(12,1,14)            107.8074         -DE/DX =    0.0                 !
 ! A6    A(13,1,14)            107.7284         -DE/DX =    0.0                 !
 ! A7    A(1,2,3)              120.2696         -DE/DX =    0.0                 !
 ! A8    A(1,2,4)              119.9066         -DE/DX =    0.0                 !
 ! A9    A(3,2,4)              119.8134         -DE/DX =    0.0                 !
 ! A10   A(2,3,15)             111.9296         -DE/DX =    0.0                 !
 ! A11   A(2,3,16)             109.4232         -DE/DX =    0.0                 !
 ! A12   A(2,3,17)             112.0427         -DE/DX =    0.0                 !
 ! A13   A(15,3,16)            107.7255         -DE/DX =    0.0                 !
 ! A14   A(15,3,17)            107.7242         -DE/DX =    0.0                 !
 ! A15   A(16,3,17)            107.8175         -DE/DX =    0.0                 !
 ! A16   A(2,4,5)              122.1555         -DE/DX =    0.0                 !
 ! A17   A(2,4,11)             121.8204         -DE/DX =    0.0                 !
 ! A18   A(5,4,11)             116.0238         -DE/DX =    0.0                 !
 ! A19   A(4,5,6)              119.0272         -DE/DX =    0.0                 !
 ! A20   A(4,5,18)             121.8957         -DE/DX =    0.0                 !
 ! A21   A(6,5,18)             119.0771         -DE/DX =    0.0                 !
 ! A22   A(5,6,7)              124.8276         -DE/DX =    0.0                 !
 ! A23   A(5,6,19)             118.9001         -DE/DX =    0.0                 !
 ! A24   A(7,6,19)             116.2716         -DE/DX =    0.0                 !
 ! A25   A(6,7,8)              116.4834         -DE/DX =    0.0                 !
 ! A26   A(7,8,9)              115.7119         -DE/DX =    0.0                 !
 ! A27   A(7,8,11)             123.9888         -DE/DX =    0.0                 !
 ! A28   A(9,8,11)             120.2899         -DE/DX =    0.0                 !
 ! A29   A(8,9,10)             114.4452         -DE/DX =    0.0                 !
 ! A30   A(8,9,20)             107.7587         -DE/DX =    0.0                 !
 ! A31   A(8,9,21)             108.3385         -DE/DX =    0.0                 !
 ! A32   A(10,9,20)            112.8854         -DE/DX =    0.0                 !
 ! A33   A(10,9,21)            106.6505         -DE/DX =    0.0                 !
 ! A34   A(20,9,21)            106.3796         -DE/DX =    0.0                 !
 ! A35   A(9,10,22)            107.8738         -DE/DX =    0.0                 !
 ! A36   A(4,11,8)             119.6478         -DE/DX =    0.0                 !
 ! A37   A(4,11,23)            122.2533         -DE/DX =    0.0                 !
 ! A38   A(8,11,23)            118.0953         -DE/DX =    0.0                 !
 ! D1    D(12,1,2,3)          -120.5047         -DE/DX =    0.0                 !
 ! D2    D(12,1,2,4)            60.6742         -DE/DX =    0.0                 !
 ! D3    D(13,1,2,3)            -1.1915         -DE/DX =    0.0                 !
 ! D4    D(13,1,2,4)           179.9875         -DE/DX =    0.0                 !
 ! D5    D(14,1,2,3)           118.2365         -DE/DX =    0.0                 !
 ! D6    D(14,1,2,4)           -60.5846         -DE/DX =    0.0                 !
 ! D7    D(1,2,3,15)           120.4727         -DE/DX =    0.0                 !
 ! D8    D(1,2,3,16)             1.1339         -DE/DX =    0.0                 !
 ! D9    D(1,2,3,17)          -118.3913         -DE/DX =    0.0                 !
 ! D10   D(4,2,3,15)           -60.7052         -DE/DX =    0.0                 !
 ! D11   D(4,2,3,16)           179.9561         -DE/DX =    0.0                 !
 ! D12   D(4,2,3,17)            60.4308         -DE/DX =    0.0                 !
 ! D13   D(1,2,4,5)             -0.4928         -DE/DX =    0.0                 !
 ! D14   D(1,2,4,11)           179.3147         -DE/DX =    0.0                 !
 ! D15   D(3,2,4,5)           -179.3193         -DE/DX =    0.0                 !
 ! D16   D(3,2,4,11)             0.4882         -DE/DX =    0.0                 !
 ! D17   D(2,4,5,6)            179.8442         -DE/DX =    0.0                 !
 ! D18   D(2,4,5,18)            -0.1866         -DE/DX =    0.0                 !
 ! D19   D(11,4,5,6)             0.0262         -DE/DX =    0.0                 !
 ! D20   D(11,4,5,18)          179.9954         -DE/DX =    0.0                 !
 ! D21   D(2,4,11,8)           179.9664         -DE/DX =    0.0                 !
 ! D22   D(2,4,11,23)           -0.7409         -DE/DX =    0.0                 !
 ! D23   D(5,4,11,8)            -0.215          -DE/DX =    0.0                 !
 ! D24   D(5,4,11,23)          179.0778         -DE/DX =    0.0                 !
 ! D25   D(4,5,6,7)              0.3206         -DE/DX =    0.0                 !
 ! D26   D(4,5,6,19)          -179.989          -DE/DX =    0.0                 !
 ! D27   D(18,5,6,7)          -179.6495         -DE/DX =    0.0                 !
 ! D28   D(18,5,6,19)            0.0409         -DE/DX =    0.0                 !
 ! D29   D(5,6,7,8)             -0.4428         -DE/DX =    0.0                 !
 ! D30   D(19,6,7,8)           179.8595         -DE/DX =    0.0                 !
 ! D31   D(6,7,8,9)           -178.6485         -DE/DX =    0.0                 !
 ! D32   D(6,7,8,11)             0.2298         -DE/DX =    0.0                 !
 ! D33   D(7,8,9,10)          -163.6285         -DE/DX =    0.0                 !
 ! D34   D(7,8,9,20)           -37.177          -DE/DX =    0.0                 !
 ! D35   D(7,8,9,21)            77.5383         -DE/DX =    0.0                 !
 ! D36   D(11,8,9,10)           17.4487         -DE/DX =    0.0                 !
 ! D37   D(11,8,9,20)          143.9001         -DE/DX =    0.0                 !
 ! D38   D(11,8,9,21)         -101.3845         -DE/DX =    0.0                 !
 ! D39   D(7,8,11,4)             0.0937         -DE/DX =    0.0                 !
 ! D40   D(7,8,11,23)         -179.2283         -DE/DX =    0.0                 !
 ! D41   D(9,8,11,4)           178.9232         -DE/DX =    0.0                 !
 ! D42   D(9,8,11,23)           -0.3988         -DE/DX =    0.0                 !
 ! D43   D(8,9,10,22)           65.4839         -DE/DX =    0.0                 !
 ! D44   D(20,9,10,22)         -58.2647         -DE/DX =    0.0                 !
 ! D45   D(21,9,10,22)        -174.735          -DE/DX =    0.0                 !
 --------------------------------------------------------------------------------
 GradGradGradGradGradGradGradGradGradGradGradGradGradGradGradGradGradGrad

                          Input orientation:                          
 ---------------------------------------------------------------------
 Center     Atomic      Atomic             Coordinates (Angstroms)
 Number     Number       Type             X           Y           Z
 ---------------------------------------------------------------------
      1          6           0        3.313010    0.167270    0.047690
      2          7           0        2.049430   -0.530090   -0.002160
      3          6           0        2.016130   -1.972490   -0.074940
      4          6           0        0.878100    0.178850   -0.004800
      5          6           0        0.853370    1.590020    0.050320
      6          6           0       -0.372400    2.243580    0.040760
      7          7           0       -1.556020    1.638050   -0.011280
      8          6           0       -1.540470    0.303740   -0.066310
      9          6           0       -2.897040   -0.366580   -0.157220
     10          8           0       -2.889380   -1.735120    0.146360
     11          6           0       -0.378980   -0.460740   -0.067010
     12          1           0        3.412260    0.776810    0.962890
     13          1           0        4.132510   -0.561210    0.042290
     14          1           0        3.451780    0.835960   -0.820140
     15          1           0        1.477130   -2.416100    0.780210
     16          1           0        3.041030   -2.362000   -0.061950
     17          1           0        1.530770   -2.329550   -0.999920
     18          1           0        1.767340    2.180010    0.100570
     19          1           0       -0.389160    3.338920    0.083430
     20          1           0       -3.600410    0.209240    0.471530
     21          1           0       -3.260180   -0.275090   -1.193440
     22          1           0       -2.654570   -1.830380    1.074340
     23          1           0       -0.477710   -1.543180   -0.127580
 ---------------------------------------------------------------------
                    Distance matrix (angstroms):
                    1          2          3          4          5
     1  C    0.000000
     2  N    1.444102   0.000000
     3  C    2.505097   1.444619   0.000000
     4  C    2.435503   1.369166   2.434809   0.000000
     5  C    2.841488   2.434785   3.749557   1.412463   0.000000
     6  C    4.230054   3.682438   4.847031   2.414319   1.389152
     7  N    5.086661   4.207159   5.079400   2.838000   2.410656
     8  C    4.856736   3.686024   4.222641   2.422573   2.720035
     9  C    6.236321   4.951600   5.169619   3.817382   4.235201
    10  O    6.488333   5.085863   4.916233   4.228479   5.007390
    11  C    3.746778   2.430265   2.832314   1.411806   2.395427
    12  H    1.104075   2.120522   3.253447   2.777759   2.835844
    13  H    1.096491   2.083787   2.546472   3.337827   3.921813
    14  H    1.104324   2.121737   3.240957   2.778561   2.842190
    15  H    3.252821   2.120534   1.103899   2.776480   4.119565
    16  H    2.546213   2.083924   1.096498   3.337282   4.518509
    17  H    3.241601   2.121931   1.103927   2.776385   4.113989
    18  H    2.538309   2.726678   4.163647   2.192371   1.089015
    19  H    4.875111   4.574198   5.832802   3.405844   2.145607
    20  H    6.926527   5.717664   6.050132   4.503872   4.681894
    21  H    6.703948   5.447580   5.654348   4.329467   4.684748
    22  H    6.376255   4.997722   4.812118   4.204914   5.005337
    23  H    4.162441   2.725531   2.531070   2.195150   3.408866
                    6          7          8          9         10
     6  C    0.000000
     7  N    1.330538   0.000000
     8  C    2.266899   1.335535   0.000000
     9  C    3.636748   2.416231   1.515875   0.000000
    10  O    4.709182   3.630561   2.453923   1.401828   0.000000
    11  C    2.706475   2.406958   1.390500   2.521434   2.823416
    12  H    4.162378   5.135616   5.080608   6.509167   6.832802
    13  H    5.306700   6.099097   5.739567   7.035073   7.120101
    14  H    4.164960   5.135724   5.076818   6.495620   6.910491
    15  H    5.067560   5.124704   4.149703   4.920637   4.464517
    16  H    5.733535   6.093918   5.300597   6.265098   5.967088
    17  H    5.061481   5.123234   4.151910   4.916187   4.604892
    18  H    2.141519   3.369118   3.806553   5.320528   6.084027
    19  H    1.096299   2.064822   3.249655   4.480860   5.656938
    20  H    3.839811   2.540499   2.131092   1.105271   2.095671
    21  H    4.025695   2.821661   2.136087   1.101813   2.015997
    22  H    4.782650   3.796760   2.663976   1.928274   0.961955
    23  H    3.791963   3.361027   2.131743   2.690432   2.434756
                   11         12         13         14         15
    11  C    0.000000
    12  H    4.118947   0.000000
    13  H    4.513932   1.776672   0.000000
    14  H    4.113801   1.784449   1.777432   0.000000
    15  H    2.826015   3.738017   3.322076   4.127500   0.000000
    16  H    3.912964   3.322685   2.108326   3.312177   1.777060
    17  H    2.830180   4.128208   3.313952   3.707163   1.783040
    18  H    3.407100   2.327730   3.621010   2.343398   4.655143
    19  H    3.802651   4.667832   5.971449   4.672694   6.090057
    20  H    3.334143   7.052738   7.783052   7.196845   5.724431
    21  H    3.099133   7.090678   7.500717   6.813530   5.560695
    22  H    2.890831   6.604263   6.981431   6.927188   4.183363
    23  H    1.088620   4.658685   4.716699   4.645518   2.325397
                   16         17         18         19         20
    16  H    0.000000
    17  H    1.778124   0.000000
    18  H    4.720016   4.647922   0.000000
    19  H    6.654910   6.082050   2.448236   0.000000
    20  H    7.141751   5.910975   5.730121   4.500849   0.000000
    21  H    6.733551   5.216460   5.742642   4.788969   1.767048
    22  H    5.832121   4.697744   6.048532   5.730240   2.327669
    23  H    3.613351   2.326660   4.353670   4.887460   3.630587
                   21         22         23
    21  H    0.000000
    22  H    2.815762   0.000000
    23  H    3.238248   2.503161   0.000000
 Stoichiometry    C8H12N2O
 Framework group  C1[X(C8H12N2O)]
 Deg. of freedom    63
 Full point group                 C1      NOp   1
 Largest Abelian subgroup         C1      NOp   1
 Largest concise Abelian subgroup C1      NOp   1
                         Standard orientation:                         
 ---------------------------------------------------------------------
 Center     Atomic      Atomic             Coordinates (Angstroms)
 Number     Number       Type             X           Y           Z
 ---------------------------------------------------------------------
      1          6           0       -3.313011    0.167269   -0.047690
      2          7           0       -2.049431   -0.530091    0.002160
      3          6           0       -2.016131   -1.972491    0.074940
      4          6           0       -0.878101    0.178849    0.004800
      5          6           0       -0.853371    1.590019   -0.050320
      6          6           0        0.372399    2.243579   -0.040760
      7          7           0        1.556019    1.638049    0.011280
      8          6           0        1.540469    0.303739    0.066310
      9          6           0        2.897039   -0.366581    0.157220
     10          8           0        2.889379   -1.735121   -0.146360
     11          6           0        0.378979   -0.460741    0.067010
     12          1           0       -3.412261    0.776809   -0.962890
     13          1           0       -4.132511   -0.561211   -0.042290
     14          1           0       -3.451781    0.835959    0.820140
     15          1           0       -1.477131   -2.416101   -0.780210
     16          1           0       -3.041031   -2.362001    0.061950
     17          1           0       -1.530771   -2.329551    0.999920
     18          1           0       -1.767341    2.180009   -0.100570
     19          1           0        0.389160    3.338919   -0.083430
     20          1           0        3.600409    0.209239   -0.471530
     21          1           0        3.260179   -0.275091    1.193440
     22          1           0        2.654569   -1.830381   -1.074340
     23          1           0        0.477709   -1.543181    0.127580
 ---------------------------------------------------------------------
 Rotational constants (GHZ):           1.8019116           0.7738044           0.5495623
 Unable to Open any file for archive entry.
 1\1\GINC-NOTCH385\FOpt\RwB97XD\def2SVP\C8H12N2O1\U6053008\12-Jul-2024\
 0\\#N OPT FREQ=NORAMAN Integral(Ultrafine) wB97XD def2SVP\\12300592_4\
 \0,1\C,3.31301,0.16727,0.04769\N,2.04943,-0.53009,-0.00216\C,2.01613,-
 1.97249,-0.07494\C,0.8781,0.17885,-0.0048\C,0.85337,1.59002,0.05032\C,
 -0.3724,2.24358,0.04076\N,-1.55602,1.63805,-0.01128\C,-1.54047,0.30374
 ,-0.06631\C,-2.89704,-0.36658,-0.15722\O,-2.88938,-1.73512,0.14636\C,-
 0.37898,-0.46074,-0.06701\H,3.41226,0.77681,0.96289\H,4.13251,-0.56121
 ,0.04229\H,3.45178,0.83596,-0.82014\H,1.47713,-2.4161,0.78021\H,3.0410
 3,-2.362,-0.06195\H,1.53077,-2.32955,-0.99992\H,1.76734,2.18001,0.1005
 7\H,-0.38916,3.33892,0.08343\H,-3.60041,0.20924,0.47153\H,-3.26018,-0.
 27509,-1.19344\H,-2.65457,-1.83038,1.07434\H,-0.47771,-1.54318,-0.1275
 8\\Version=ES64L-G16RevC.01\State=1-A\HF=-496.2728966\RMSD=4.223e-09\R
 MSF=9.123e-06\Dipole=1.5765514,-0.5363962,0.3944314\Quadrupole=2.14673
 86,-1.1881354,-0.9586032,-0.4741916,-1.8957408,-1.6225619\PG=C01 [X(C8
 H12N2O1)]\\@
 The archive entry for this job was punched.


 HAPPINESS IS NOT HAVING WHAT YOU WANT --
 HAPPINESS IS WANTING WHAT YOU HAVE!

              -- FROM MRS. SEVERN'S DESK
 Job cpu time:       0 days  0 hours  6 minutes  1.0 seconds.
 Elapsed time:       0 days  0 hours  0 minutes 23.1 seconds.
 File lengths (MBytes):  RWF=     40 Int=      0 D2E=      0 Chk=      5 Scr=      2
 Normal termination of Gaussian 16 at Fri Jul 12 13:08:19 2024.
 Link1:  Proceeding to internal job step number  2.
 --------------------------------------------------------------------
 #N Geom=AllCheck Guess=TCheck SCRF=Check GenChk RwB97XD/def2SVP Freq
 --------------------------------------------------------------------
 1/10=4,29=7,30=1,38=1,40=1/1,3;
 2/12=2,40=1/2;
 3/5=43,7=101,11=2,14=-4,25=1,30=1,70=2,71=2,74=-58,75=-5,116=1,140=1/1,2,3;
 4/5=101/1;
 5/5=2,38=6,98=1/2;
 8/6=4,10=90,11=11/1;
 11/6=1,8=1,9=11,15=111,16=1/1,2,10;
 10/6=1/2;
 6/7=2,8=2,9=2,10=2,28=1/1;
 7/8=1,10=1,25=1/1,2,3,16;
 1/10=4,30=1/3;
 99//99;
 Structure from the checkpoint file:  "12300592_4.chk"
 ----------
 12300592_4
 ----------
 Charge =  0 Multiplicity = 1
 Redundant internal coordinates found in file.  (old form).
 C,0,3.31301,0.16727,0.04769
 N,0,2.04943,-0.53009,-0.00216
 C,0,2.01613,-1.97249,-0.07494
 C,0,0.8781,0.17885,-0.0048
 C,0,0.85337,1.59002,0.05032
 C,0,-0.3724,2.24358,0.04076
 N,0,-1.55602,1.63805,-0.01128
 C,0,-1.54047,0.30374,-0.06631
 C,0,-2.89704,-0.36658,-0.15722
 O,0,-2.88938,-1.73512,0.14636
 C,0,-0.37898,-0.46074,-0.06701
 H,0,3.41226,0.77681,0.96289
 H,0,4.13251,-0.56121,0.04229
 H,0,3.45178,0.83596,-0.82014
 H,0,1.47713,-2.4161,0.78021
 H,0,3.04103,-2.362,-0.06195
 H,0,1.53077,-2.32955,-0.99992
 H,0,1.76734,2.18001,0.10057
 H,0,-0.38916,3.33892,0.08343
 H,0,-3.60041,0.20924,0.47153
 H,0,-3.26018,-0.27509,-1.19344
 H,0,-2.65457,-1.83038,1.07434
 H,0,-0.47771,-1.54318,-0.12758
 Recover connectivity data from disk.

 GradGradGradGradGradGradGradGradGradGradGradGradGradGradGradGradGradGrad
 Berny optimization.
 Initialization pass.
                           ----------------------------
                           !    Initial Parameters    !
                           ! (Angstroms and Degrees)  !
 --------------------------                            --------------------------
 ! Name  Definition              Value          Derivative Info.                !
 --------------------------------------------------------------------------------
 ! R1    R(1,2)                  1.4441         calculate D2E/DX2 analytically  !
 ! R2    R(1,12)                 1.1041         calculate D2E/DX2 analytically  !
 ! R3    R(1,13)                 1.0965         calculate D2E/DX2 analytically  !
 ! R4    R(1,14)                 1.1043         calculate D2E/DX2 analytically  !
 ! R5    R(2,3)                  1.4446         calculate D2E/DX2 analytically  !
 ! R6    R(2,4)                  1.3692         calculate D2E/DX2 analytically  !
 ! R7    R(3,15)                 1.1039         calculate D2E/DX2 analytically  !
 ! R8    R(3,16)                 1.0965         calculate D2E/DX2 analytically  !
 ! R9    R(3,17)                 1.1039         calculate D2E/DX2 analytically  !
 ! R10   R(4,5)                  1.4125         calculate D2E/DX2 analytically  !
 ! R11   R(4,11)                 1.4118         calculate D2E/DX2 analytically  !
 ! R12   R(5,6)                  1.3892         calculate D2E/DX2 analytically  !
 ! R13   R(5,18)                 1.089          calculate D2E/DX2 analytically  !
 ! R14   R(6,7)                  1.3305         calculate D2E/DX2 analytically  !
 ! R15   R(6,19)                 1.0963         calculate D2E/DX2 analytically  !
 ! R16   R(7,8)                  1.3355         calculate D2E/DX2 analytically  !
 ! R17   R(8,9)                  1.5159         calculate D2E/DX2 analytically  !
 ! R18   R(8,11)                 1.3905         calculate D2E/DX2 analytically  !
 ! R19   R(9,10)                 1.4018         calculate D2E/DX2 analytically  !
 ! R20   R(9,20)                 1.1053         calculate D2E/DX2 analytically  !
 ! R21   R(9,21)                 1.1018         calculate D2E/DX2 analytically  !
 ! R22   R(10,22)                0.962          calculate D2E/DX2 analytically  !
 ! R23   R(11,23)                1.0886         calculate D2E/DX2 analytically  !
 ! A1    A(2,1,12)             111.9547         calculate D2E/DX2 analytically  !
 ! A2    A(2,1,13)             109.4485         calculate D2E/DX2 analytically  !
 ! A3    A(2,1,14)             112.0386         calculate D2E/DX2 analytically  !
 ! A4    A(12,1,13)            107.6791         calculate D2E/DX2 analytically  !
 ! A5    A(12,1,14)            107.8074         calculate D2E/DX2 analytically  !
 ! A6    A(13,1,14)            107.7284         calculate D2E/DX2 analytically  !
 ! A7    A(1,2,3)              120.2696         calculate D2E/DX2 analytically  !
 ! A8    A(1,2,4)              119.9066         calculate D2E/DX2 analytically  !
 ! A9    A(3,2,4)              119.8134         calculate D2E/DX2 analytically  !
 ! A10   A(2,3,15)             111.9296         calculate D2E/DX2 analytically  !
 ! A11   A(2,3,16)             109.4232         calculate D2E/DX2 analytically  !
 ! A12   A(2,3,17)             112.0427         calculate D2E/DX2 analytically  !
 ! A13   A(15,3,16)            107.7255         calculate D2E/DX2 analytically  !
 ! A14   A(15,3,17)            107.7242         calculate D2E/DX2 analytically  !
 ! A15   A(16,3,17)            107.8175         calculate D2E/DX2 analytically  !
 ! A16   A(2,4,5)              122.1555         calculate D2E/DX2 analytically  !
 ! A17   A(2,4,11)             121.8204         calculate D2E/DX2 analytically  !
 ! A18   A(5,4,11)             116.0238         calculate D2E/DX2 analytically  !
 ! A19   A(4,5,6)              119.0272         calculate D2E/DX2 analytically  !
 ! A20   A(4,5,18)             121.8957         calculate D2E/DX2 analytically  !
 ! A21   A(6,5,18)             119.0771         calculate D2E/DX2 analytically  !
 ! A22   A(5,6,7)              124.8276         calculate D2E/DX2 analytically  !
 ! A23   A(5,6,19)             118.9001         calculate D2E/DX2 analytically  !
 ! A24   A(7,6,19)             116.2716         calculate D2E/DX2 analytically  !
 ! A25   A(6,7,8)              116.4834         calculate D2E/DX2 analytically  !
 ! A26   A(7,8,9)              115.7119         calculate D2E/DX2 analytically  !
 ! A27   A(7,8,11)             123.9888         calculate D2E/DX2 analytically  !
 ! A28   A(9,8,11)             120.2899         calculate D2E/DX2 analytically  !
 ! A29   A(8,9,10)             114.4452         calculate D2E/DX2 analytically  !
 ! A30   A(8,9,20)             107.7587         calculate D2E/DX2 analytically  !
 ! A31   A(8,9,21)             108.3385         calculate D2E/DX2 analytically  !
 ! A32   A(10,9,20)            112.8854         calculate D2E/DX2 analytically  !
 ! A33   A(10,9,21)            106.6505         calculate D2E/DX2 analytically  !
 ! A34   A(20,9,21)            106.3796         calculate D2E/DX2 analytically  !
 ! A35   A(9,10,22)            107.8738         calculate D2E/DX2 analytically  !
 ! A36   A(4,11,8)             119.6478         calculate D2E/DX2 analytically  !
 ! A37   A(4,11,23)            122.2533         calculate D2E/DX2 analytically  !
 ! A38   A(8,11,23)            118.0953         calculate D2E/DX2 analytically  !
 ! D1    D(12,1,2,3)          -120.5047         calculate D2E/DX2 analytically  !
 ! D2    D(12,1,2,4)            60.6742         calculate D2E/DX2 analytically  !
 ! D3    D(13,1,2,3)            -1.1915         calculate D2E/DX2 analytically  !
 ! D4    D(13,1,2,4)           179.9875         calculate D2E/DX2 analytically  !
 ! D5    D(14,1,2,3)           118.2365         calculate D2E/DX2 analytically  !
 ! D6    D(14,1,2,4)           -60.5846         calculate D2E/DX2 analytically  !
 ! D7    D(1,2,3,15)           120.4727         calculate D2E/DX2 analytically  !
 ! D8    D(1,2,3,16)             1.1339         calculate D2E/DX2 analytically  !
 ! D9    D(1,2,3,17)          -118.3913         calculate D2E/DX2 analytically  !
 ! D10   D(4,2,3,15)           -60.7052         calculate D2E/DX2 analytically  !
 ! D11   D(4,2,3,16)           179.9561         calculate D2E/DX2 analytically  !
 ! D12   D(4,2,3,17)            60.4308         calculate D2E/DX2 analytically  !
 ! D13   D(1,2,4,5)             -0.4928         calculate D2E/DX2 analytically  !
 ! D14   D(1,2,4,11)           179.3147         calculate D2E/DX2 analytically  !
[...]
 Alpha virt. eigenvalues --    1.22779   1.23982   1.24869   1.27377   1.29909
 Alpha virt. eigenvalues --    1.31278   1.34726   1.34999   1.35814   1.37386
 Alpha virt. eigenvalues --    1.37686   1.40660   1.42102   1.46637   1.48783
 Alpha virt. eigenvalues --    1.50768   1.50918   1.52255   1.52976   1.53526
 Alpha virt. eigenvalues --    1.54876   1.57074   1.57568   1.57692   1.59391
 Alpha virt. eigenvalues --    1.59841   1.60432   1.61386   1.62869   1.64779
 Alpha virt. eigenvalues --    1.65274   1.66243   1.67119   1.67663   1.68000
 Alpha virt. eigenvalues --    1.69542   1.70167   1.70356   1.71953   1.74635
 Alpha virt. eigenvalues --    1.76573   1.80538   1.80709   1.81337   1.84689
 Alpha virt. eigenvalues --    1.86113   1.87028   1.89267   1.90691   1.93301
 Alpha virt. eigenvalues --    1.94851   1.96895   1.98393   1.99599   2.01511
 Alpha virt. eigenvalues --    2.03790   2.03985   2.04351   2.05604   2.06825
 Alpha virt. eigenvalues --    2.09022   2.10139   2.10446   2.13931   2.14519
 Alpha virt. eigenvalues --    2.15334   2.16803   2.17135   2.21899   2.22555
 Alpha virt. eigenvalues --    2.24581   2.25455   2.31111   2.33609   2.33842
 Alpha virt. eigenvalues --    2.36212   2.36557   2.38410   2.39236   2.39961
 Alpha virt. eigenvalues --    2.41710   2.42345   2.44820   2.45251   2.49280
 Alpha virt. eigenvalues --    2.50099   2.53007   2.53675   2.55331   2.56781
 Alpha virt. eigenvalues --    2.57123   2.58445   2.58858   2.60963   2.63111
 Alpha virt. eigenvalues --    2.64556   2.65260   2.67077   2.68966   2.70359
 Alpha virt. eigenvalues --    2.73095   2.73439   2.74831   2.76787   2.78853
 Alpha virt. eigenvalues --    2.79393   2.79707   2.81121   2.83487   2.84525
 Alpha virt. eigenvalues --    2.86053   2.87066   2.88411   2.90485   2.92183
 Alpha virt. eigenvalues --    2.92755   2.95247   2.97467   2.98937   2.99797
 Alpha virt. eigenvalues --    3.01919   3.02824   3.04006   3.05660   3.08350
 Alpha virt. eigenvalues --    3.10716   3.12045   3.13018   3.14638   3.15826
 Alpha virt. eigenvalues --    3.17299   3.18445   3.18912   3.19991   3.20193
 Alpha virt. eigenvalues --    3.21048   3.22780   3.22944   3.26157   3.27947
 Alpha virt. eigenvalues --    3.28263   3.30283   3.31588   3.32539   3.33600
 Alpha virt. eigenvalues --    3.33994   3.37416   3.37731   3.38585   3.38946
 Alpha virt. eigenvalues --    3.39907   3.42026   3.42617   3.44048   3.44945
 Alpha virt. eigenvalues --    3.46764   3.48409   3.49123   3.50229   3.50789
 Alpha virt. eigenvalues --    3.51837   3.54441   3.55571   3.56440   3.56831
 Alpha virt. eigenvalues --    3.59282   3.61536   3.63165   3.64913   3.65072
 Alpha virt. eigenvalues --    3.68523   3.69808   3.71640   3.72687   3.77777
 Alpha virt. eigenvalues --    3.78869   3.81620   3.85235   3.86871   3.89376
 Alpha virt. eigenvalues --    3.94052   3.95134   3.97084   4.01972   4.02978
 Alpha virt. eigenvalues --    4.04350   4.06454   4.10546   4.11592   4.15086
 Alpha virt. eigenvalues --    4.15799   4.19663   4.21312   4.21957   4.23027
 Alpha virt. eigenvalues --    4.26218   4.28606   4.29853   4.33635   4.36239
 Alpha virt. eigenvalues --    4.37776   4.39844   4.42261   4.44135   4.46017
 Alpha virt. eigenvalues --    4.50221   4.52784   4.54303   4.57960   4.64195
 Alpha virt. eigenvalues --    4.68787   4.72694   4.76598   4.79300   4.81822
 Alpha virt. eigenvalues --    4.89196   4.96530   4.96953   5.01156   5.03466
 Alpha virt. eigenvalues --    5.05551   5.08169   5.10767   5.13744   5.14626
 Alpha virt. eigenvalues --    5.20218   5.26713   5.27845   5.29901   5.35782
 Alpha virt. eigenvalues --    5.38154   5.41381   5.43694   5.44565   5.46899
 Alpha virt. eigenvalues --    5.48647   5.53684   5.57466   5.59111   5.69623
 Alpha virt. eigenvalues --    5.80419   5.84123   5.84633   5.88164   5.95692
 Alpha virt. eigenvalues --    5.99761   6.03785   6.07251   6.09966   6.33173
 Alpha virt. eigenvalues --    6.38845   6.56928   6.79220   6.90343   7.07959
 Alpha virt. eigenvalues --    7.25268  22.47437  22.55928  22.56940  22.64129
 Alpha virt. eigenvalues --   22.84105  22.92087  23.16945  23.33192  32.64669
 Alpha virt. eigenvalues --   32.97785  43.91671
          Condensed to atoms (all electrons):
               1          2          3          4          5          6
     1  C    4.903772   0.314999  -0.054869  -0.085089  -0.011713  -0.002617
     2  N    0.314999   6.408260   0.315029   0.490284  -0.087861   0.000527
     3  C   -0.054869   0.315029   4.902230  -0.087437   0.013219  -0.000643
     4  C   -0.085089   0.490284  -0.087437   4.984664   0.328003  -0.000587
     5  C   -0.011713  -0.087861   0.013219   0.328003   5.247098   0.501085
     6  C   -0.002617   0.000527  -0.000643  -0.000587   0.501085   4.688000
     7  N   -0.000133  -0.000669  -0.000084  -0.059964  -0.066456   0.566561
     8  C   -0.001345  -0.000459  -0.002651  -0.002339  -0.074638  -0.094209
     9  C   -0.000003  -0.000449   0.000143  -0.001332   0.005259  -0.005116
    10  O    0.000004   0.000166  -0.000581   0.005972  -0.001120   0.000998
    11  C    0.014174  -0.097681  -0.005688   0.313348   0.025518  -0.036093
    12  H    0.415423  -0.048431   0.003534  -0.009378   0.004443   0.000314
    13  H    0.396471  -0.025258  -0.015847   0.010492   0.000223   0.000072
    14  H    0.416142  -0.049200   0.003462  -0.009642   0.005295   0.000002
    15  H    0.003711  -0.047691   0.413130  -0.010396  -0.000514   0.000059
    16  H   -0.016521  -0.025115   0.396326   0.010122  -0.000201   0.000026
    17  H    0.003202  -0.048511   0.417817  -0.009228   0.000338  -0.000054
    18  H    0.003094  -0.005686  -0.000286  -0.084832   0.425793  -0.015102
    19  H   -0.000136  -0.000156   0.000009   0.004475  -0.082468   0.438201
    20  H   -0.000000   0.000016  -0.000015   0.000181   0.000650  -0.000341
    21  H    0.000000   0.000032  -0.000025   0.001514  -0.001193   0.002009
    22  H    0.000001   0.000020  -0.000053  -0.000444  -0.000586   0.000331
    23  H   -0.000165  -0.004337   0.001011  -0.062725   0.012712  -0.002323
               7          8          9         10         11         12
     1  C   -0.000133  -0.001345  -0.000003   0.000004   0.014174   0.415423
     2  N   -0.000669  -0.000459  -0.000449   0.000166  -0.097681  -0.048431
     3  C   -0.000084  -0.002651   0.000143  -0.000581  -0.005688   0.003534
     4  C   -0.059964  -0.002339  -0.001332   0.005972   0.313348  -0.009378
     5  C   -0.066456  -0.074638   0.005259  -0.001120   0.025518   0.004443
     6  C    0.566561  -0.094209  -0.005116   0.000998  -0.036093   0.000314
     7  N    6.504155   0.508735  -0.044210   0.004315  -0.095912  -0.000041
     8  C    0.508735   5.092061   0.299151  -0.088941   0.374915  -0.000033
     9  C   -0.044210   0.299151   4.785978   0.272484  -0.082233  -0.000003
    10  O    0.004315  -0.088941   0.272484   8.008546   0.018870  -0.000000
    11  C   -0.095912   0.374915  -0.082233   0.018870   5.502948  -0.000367
    12  H   -0.000041  -0.000033  -0.000003  -0.000000  -0.000367   0.572800
    13  H    0.000000   0.000068  -0.000000   0.000000  -0.000177  -0.018729
    14  H   -0.000039  -0.000056   0.000004  -0.000000   0.000235  -0.053654
    15  H   -0.000031   0.000478  -0.000282   0.000144   0.005270   0.001990
    16  H    0.000002   0.000223   0.000001  -0.000005   0.000395   0.000566
    17  H   -0.000038  -0.000312   0.000172   0.000040   0.003976  -0.001283
    18  H    0.008587  -0.002682   0.000123  -0.000005   0.012292  -0.002815
    19  H   -0.026833   0.004101  -0.000518   0.000014   0.000640   0.000001
    20  H    0.003235  -0.105631   0.454567  -0.040147   0.025591  -0.000000
    21  H    0.006409  -0.001846   0.363830  -0.032233  -0.024254  -0.000000
    22  H    0.000929   0.022602  -0.046339   0.293946  -0.010879   0.000000
    23  H    0.006378  -0.031815  -0.012178   0.029734   0.418623  -0.000023
              13         14         15         16         17         18
     1  C    0.396471   0.416142   0.003711  -0.016521   0.003202   0.003094
     2  N   -0.025258  -0.049200  -0.047691  -0.025115  -0.048511  -0.005686
     3  C   -0.015847   0.003462   0.413130   0.396326   0.417817  -0.000286
     4  C    0.010492  -0.009642  -0.010396   0.010122  -0.009228  -0.084832
     5  C    0.000223   0.005295  -0.000514  -0.000201   0.000338   0.425793
     6  C    0.000072   0.000002   0.000059   0.000026  -0.000054  -0.015102
     7  N    0.000000  -0.000039  -0.000031   0.000002  -0.000038   0.008587
     8  C    0.000068  -0.000056   0.000478   0.000223  -0.000312  -0.002682
     9  C   -0.000000   0.000004  -0.000282   0.000001   0.000172   0.000123
    10  O    0.000000  -0.000000   0.000144  -0.000005   0.000040  -0.000005
    11  C   -0.000177   0.000235   0.005270   0.000395   0.003976   0.012292
    12  H   -0.018729  -0.053654   0.001990   0.000566  -0.001283  -0.002815
    13  H    0.541873  -0.018973   0.000534   0.004953   0.000452   0.000561
    14  H   -0.018973   0.571208  -0.001328   0.000423   0.002084  -0.002453
    15  H    0.000534  -0.001328   0.576224  -0.019076  -0.051580  -0.000007
    16  H    0.004953   0.000423  -0.019076   0.542594  -0.019432  -0.000019
    17  H    0.000452   0.002084  -0.051580  -0.019432   0.563663   0.000011
    18  H    0.000561  -0.002453  -0.000007  -0.000019   0.000011   0.536933
    19  H   -0.000001  -0.000004   0.000001  -0.000000   0.000000  -0.001724
    20  H    0.000000   0.000000  -0.000006  -0.000000   0.000006  -0.000014
    21  H    0.000000   0.000000   0.000012  -0.000000  -0.000005  -0.000015
    22  H    0.000000  -0.000000   0.000126  -0.000000  -0.000015  -0.000003
    23  H   -0.000002   0.000009  -0.002770   0.000473  -0.001405   0.000266
              19         20         21         22         23
     1  C   -0.000136  -0.000000   0.000000   0.000001  -0.000165
     2  N   -0.000156   0.000016   0.000032   0.000020  -0.004337
     3  C    0.000009  -0.000015  -0.000025  -0.000053   0.001011
     4  C    0.004475   0.000181   0.001514  -0.000444  -0.062725
     5  C   -0.082468   0.000650  -0.001193  -0.000586   0.012712
     6  C    0.438201  -0.000341   0.002009   0.000331  -0.002323
     7  N   -0.026833   0.003235   0.006409   0.000929   0.006378
     8  C    0.004101  -0.105631  -0.001846   0.022602  -0.031815
     9  C   -0.000518   0.454567   0.363830  -0.046339  -0.012178
    10  O    0.000014  -0.040147  -0.032233   0.293946   0.029734
    11  C    0.000640   0.025591  -0.024254  -0.010879   0.418623
    12  H    0.000001  -0.000000  -0.000000   0.000000  -0.000023
    13  H   -0.000001   0.000000   0.000000   0.000000  -0.000002
    14  H   -0.000004   0.000000   0.000000  -0.000000   0.000009
    15  H    0.000001  -0.000006   0.000012   0.000126  -0.002770
    16  H   -0.000000  -0.000000  -0.000000  -0.000000   0.000473
    17  H    0.000000   0.000006  -0.000005  -0.000015  -0.001405
    18  H   -0.001724  -0.000014  -0.000015  -0.000003   0.000266
    19  H    0.548451  -0.000106   0.000045   0.000003   0.000119
    20  H   -0.000106   0.586050  -0.032626  -0.011234   0.001987
    21  H    0.000045  -0.032626   0.600242   0.011001  -0.001899
    22  H    0.000003  -0.011234   0.011001   0.429342  -0.005102
    23  H    0.000119   0.001987  -0.001899  -0.005102   0.503691
 Mulliken charges:
               1
     1  C   -0.298402
     2  N   -0.087829
     3  C   -0.297729
     4  C    0.274339
     5  C   -0.242885
     6  C   -0.041099
     7  N   -0.314895
     8  C    0.104623
     9  C    0.010953
    10  O   -0.472199
    11  C   -0.363509
    12  H    0.135687
    13  H    0.123288
    14  H    0.136486
    15  H    0.132001
    16  H    0.124265
    17  H    0.140101
    18  H    0.127985
    19  H    0.115886
    20  H    0.117835
    21  H    0.109000
    22  H    0.316354
    23  H    0.149742
 Sum of Mulliken charges =  -0.00000
 Mulliken charges with hydrogens summed into heavy atoms:
               1
     1  C    0.097060
     2  N   -0.087829
     3  C    0.098638
     4  C    0.274339
     5  C   -0.114900
     6  C    0.074787
     7  N   -0.314895
     8  C    0.104623
     9  C    0.237788
    10  O   -0.155845
    11  C   -0.213767
 Electronic spatial extent (au):  <R**2>=           2039.3334
 Charge=             -0.0000 electrons
 Dipole moment (field-independent basis, Debye):
    X=             -4.0918    Y=             -1.3550    Z=             -0.9746  Tot=              4.4192
 Quadrupole moment (field-independent basis, Debye-Ang):
   XX=            -62.4181   YY=            -66.4686   ZZ=            -66.1378
   XY=              0.5568   XZ=             -2.4986   YZ=              2.1301
 Traceless Quadrupole moment (field-independent basis, Debye-Ang):
   XX=              2.5900   YY=             -1.4604   ZZ=             -1.1296
   XY=              0.5568   XZ=             -2.4986   YZ=              2.1301
 Octapole moment (field-independent basis, Debye-Ang**2):
  XXX=            -35.0546  YYY=             -4.4115  ZZZ=             -2.6167  XYY=            -23.5561
  XXY=             -4.0615  XXZ=             -6.5674  XZZ=             10.9036  YZZ=             -9.7167
  YYZ=             -6.2667  XYZ=              6.7019
 Hexadecapole moment (field-independent basis, Debye-Ang**3):
 XXXX=          -1724.2528 YYYY=           -777.2954 ZZZZ=            -95.4265 XXXY=             29.4150
 XXXZ=            -16.3603 YYYX=             -4.8445 YYYZ=             10.8657 ZZZX=             -7.1454
 ZZZY=              6.9791 XXYY=           -471.3364 XXZZ=           -296.4455 YYZZ=           -150.0649
 XXYZ=             14.8183 YYXZ=            -15.8544 ZZXY=            -18.4581
 N-N= 6.081889340195D+02 E-N=-2.373484237778D+03  KE= 4.941925779169D+02
 Breneman (CHELPG) radii used.
 Read replacement radii for each type of atom:
 Atom Element Radius
    1     6    1.50
    2     7    1.70
    3     6    1.50
    4     6    1.50
    5     6    1.50
    6     6    1.50
    7     7    1.70
    8     6    1.50
    9     6    1.50
   10     8    1.70
   11     6    1.50
   12     1    1.45
   13     1    1.45
   14     1    1.45
   15     1    1.45
   16     1    1.45
   17     1    1.45
   18     1    1.45
   19     1    1.45
   20     1    1.45
   21     1    1.45
   22     1    1.45
   23     1    1.45
 Generate Potential Derived Charges using the Breneman model, NDens= 1.
 Grid spacing= 0.300 Box extension= 2.800
 NStep X,Y,Z=   46     39     28   Total possible points=       50232
 Number of Points to Fit=   14356

 **********************************************************************

            Electrostatic Properties Using The SCF Density.

 **********************************************************************

       Atomic Center    1 is at  -3.313011  0.167269 -0.047690
       Atomic Center    2 is at  -2.049431 -0.530091  0.002160
       Atomic Center    3 is at  -2.016131 -1.972491  0.074940
       Atomic Center    4 is at  -0.878101  0.178849  0.004800
       Atomic Center    5 is at  -0.853371  1.590019 -0.050320
       Atomic Center    6 is at   0.372399  2.243579 -0.040760
       Atomic Center    7 is at   1.556019  1.638049  0.011280
       Atomic Center    8 is at   1.540469  0.303739  0.066310
       Atomic Center    9 is at   2.897039 -0.366581  0.157220
       Atomic Center   10 is at   2.889379 -1.735121 -0.146360
       Atomic Center   11 is at   0.378979 -0.460741  0.067010
       Atomic Center   12 is at  -3.412261  0.776809 -0.962890
       Atomic Center   13 is at  -4.132511 -0.561211 -0.042290
       Atomic Center   14 is at  -3.451781  0.835959  0.820140
       Atomic Center   15 is at  -1.477131 -2.416101 -0.780210
       Atomic Center   16 is at  -3.041031 -2.362001  0.061950
       Atomic Center   17 is at  -1.530771 -2.329551  0.999920
       Atomic Center   18 is at  -1.767341  2.180009 -0.100570
       Atomic Center   19 is at   0.389160  3.338919 -0.083430
       Atomic Center   20 is at   3.600409  0.209239 -0.471530
       Atomic Center   21 is at   3.260179 -0.275091  1.193440
       Atomic Center   22 is at   2.654569 -1.830381 -1.074340
       Atomic Center   23 is at   0.477709 -1.543181  0.127580
   14356 points will be used for fitting atomic charges
 Fitting point charges to electrostatic potential
 Charges from ESP fit, RMS=   0.00320 RRMS=   0.19711:
 ESP charges:
               1
     1  C   -0.046323
     2  N   -0.200582
     3  C   -0.072301
     4  C    0.501887
     5  C   -0.553323
     6  C    0.457978
     7  N   -0.742076
     8  C    0.541359
     9  C    0.104662
    10  O   -0.577765
    11  C   -0.544974
    12  H    0.039384
    13  H    0.073018
    14  H    0.043293
    15  H    0.039748
    16  H    0.083131
    17  H    0.051437
    18  H    0.158371
    19  H    0.017093
    20  H    0.023376
    21  H    0.074119
    22  H    0.367214
    23  H    0.161274
 Sum of ESP charges =   0.00000
 ESP charges with hydrogens summed into heavy atoms:
               1
     1  C    0.109372
     2  N   -0.200582
     3  C    0.102015
     4  C    0.501887
     5  C   -0.394951
     6  C    0.475071
     7  N   -0.742076
     8  C    0.541359
     9  C    0.202157
    10  O   -0.210551
    11  C   -0.383700
 Charge=   0.00000 Dipole=    -4.0949    -1.3345    -0.9310 Tot=     4.4063
 -----------------------------------------------------------------

              Electrostatic Properties (Atomic Units)

 -----------------------------------------------------------------
    Center     Electric         -------- Electric Field --------
               Potential          X             Y             Z
 -----------------------------------------------------------------
    1 Atom    -14.725434
    2 Atom    -18.348857
    3 Atom    -14.726433
    4 Atom    -14.715178
    5 Atom    -14.776576
    6 Atom    -14.746796
    7 Atom    -18.422206
    8 Atom    -14.742923
    9 Atom    -14.726660
   10 Atom    -22.358557
   11 Atom    -14.778993
   12 Atom     -1.103224
   13 Atom     -1.092205
   14 Atom     -1.103452
   15 Atom     -1.104162
   16 Atom     -1.093076
   17 Atom     -1.104775
   18 Atom     -1.101959
   19 Atom     -1.117383
   20 Atom     -1.126721
   21 Atom     -1.120774
   22 Atom     -1.006406
   23 Atom     -1.105674
 -----------------------------------------------------------------
 Unable to Open any file for archive entry.
 1\1\GINC-NOTCH385\SP\RwB97XD\def2TZVP\C8H12N2O1\U6053008\12-Jul-2024\0
 \\#N Guess=Read Geom=Check Integral(Ultrafine) Density Pop=(ChelpG,Rea
 dRadii) NMR wB97XD def2TZVP\\12300592_4\\0,1\C,0,3.31301,0.16727,0.047
 69\N,0,2.04943,-0.53009,-0.00216\C,0,2.01613,-1.97249,-0.07494\C,0,0.8
 781,0.17885,-0.0048\C,0,0.85337,1.59002,0.05032\C,0,-0.3724,2.24358,0.
 04076\N,0,-1.55602,1.63805,-0.01128\C,0,-1.54047,0.30374,-0.06631\C,0,
 -2.89704,-0.36658,-0.15722\O,0,-2.88938,-1.73512,0.14636\C,0,-0.37898,
 -0.46074,-0.06701\H,0,3.41226,0.77681,0.96289\H,0,4.13251,-0.56121,0.0
 4229\H,0,3.45178,0.83596,-0.82014\H,0,1.47713,-2.4161,0.78021\H,0,3.04
 103,-2.362,-0.06195\H,0,1.53077,-2.32955,-0.99992\H,0,1.76734,2.18001,
 0.10057\H,0,-0.38916,3.33892,0.08343\H,0,-3.60041,0.20924,0.47153\H,0,
 -3.26018,-0.27509,-1.19344\H,0,-2.65457,-1.83038,1.07434\H,0,-0.47771,
 -1.54318,-0.12758\\Version=ES64L-G16RevC.01\State=1-A\HF=-496.8107887\
 RMSD=1.100e-09\Dipole=1.6098523,-0.5331109,0.3834334\Quadrupole=1.9256
 259,-1.0857989,-0.839827,-0.4139343,-1.8576305,-1.58368\PG=C01 [X(C8H1
 2N2O1)]\\@
 The archive entry for this job was punched.


 THE LENGTH OF A MEETING IS PROPORTIONAL TO THE
 SQUARE OF THE PARTICIPANTS.
 Job cpu time:       0 days  0 hours 30 minutes 31.2 seconds.
 Elapsed time:       0 days  0 hours  2 minutes  1.4 seconds.
 File lengths (MBytes):  RWF=    113 Int=      0 D2E=      0 Chk=     17 Scr=      2
 Normal termination of Gaussian 16 at Fri Jul 12 13:17:39 2024.
