 Entering Gaussian System, Link 0=g16
 Input=12318939_1.com
 Output=12318939_1.log
 Initial command:
 /uufs/chpc.utah.edu/sys/installdir/gaussian16/C01/AVX/g16/l1.exe "/scratch/general/vast/u6053008/1287102-notchpeak.peaks/Gau-846486.inp" -scrdir="/scratch/general/vast/u6053008/1287102-notchpeak.peaks/"
 Entering Link 1 = /uufs/chpc.utah.edu/sys/installdir/gaussian16/C01/AVX/g16/l1.exe PID=    846487.
  
 Copyright (c) 1988-2019, Gaussian, Inc.  All Rights Reserved.
  
 This is part of the Gaussian(R) 16 program.  It is based on
 the Gaussian(R) 09 system (copyright 2009, Gaussian, Inc.),
 the Gaussian(R) 03 system (copyright 2003, Gaussian, Inc.),
 the Gaussian(R) 98 system (copyright 1998, Gaussian, Inc.),
 the Gaussian(R) 94 system (copyright 1995, Gaussian, Inc.),
 the Gaussian 92(TM) system (copyright 1992, Gaussian, Inc.),
 the Gaussian 90(TM) system (copyright 1990, Gaussian, Inc.),
 the Gaussian 88(TM) system (copyright 1988, Gaussian, Inc.),
 the Gaussian 86(TM) system (copyright 1986, Carnegie Mellon
 University), and the Gaussian 82(TM) system (copyright 1983,
 Carnegie Mellon University). Gaussian is a federally registered
 trademark of Gaussian, Inc.
  
 This software contains proprietary and confidential information,
 including trade secrets, belonging to Gaussian, Inc.
  
 This software is provided under written license and may be
 used, copied, transmitted, or stored only in accord with that
 written license.
  
 The following legend is applicable only to US Government
 contracts under FAR:
  
                    RESTRICTED RIGHTS LEGEND
  
 Use, reproduction and disclosure by the US Government is
 subject to restrictions as set forth in subparagraphs (a)
 and (c) of the Commercial Computer Software - Restricted
 Rights clause in FAR 52.227-19.
  
 Gaussian, Inc.
 340 Quinnipiac St., Bldg. 40, Wallingford CT 06492
  
  
 ---------------------------------------------------------------
 Warning -- This program may not be used in any manner that
 competes with the business of Gaussian, Inc. or will provide
 assistance to any competitor of Gaussian, Inc.  The licensee
 of this program is prohibited from giving any competitor of
 Gaussian, Inc. access to this program.  By using this program,
 the user acknowledges that Gaussian, Inc. is engaged in the
 business of creating and licensing software in the field of
 computational chemistry and represents and warrants to the
 licensee that it is not a competitor of Gaussian, Inc. and that
 it will not use this program in any manner prohibited above.
 ---------------------------------------------------------------
  

 Cite this work as:
 Gaussian 16, Revision C.01,
 M. J. Frisch, G. W. Trucks, H. B. Schlegel, G. E. Scuseria, 
 M. A. Robb, J. R. Cheeseman, G. Scalmani, V. Barone, 
 G. A. Petersson, H. Nakatsuji, X. Li, M. Caricato, A. V. Marenich, 
 J. Bloino, B. G. Janesko, R. Gomperts, B. Mennucci, H. P. Hratchian, 
 J. V. Ortiz, A. F. Izmaylov, J. L. Sonnenberg, D. Williams-Young, 
 F. Ding, F. Lipparini, F. Egidi, J. Goings, B. Peng, A. Petrone, 
 T. Henderson, D. Ranasinghe, V. G. Zakrzewski, J. Gao, N. Rega, 
 G. Zheng, W. Liang, M. Hada, M. Ehara, K. Toyota, R. Fukuda, 
 J. Hasegawa, M. Ishida, T. Nakajima, Y. Honda, O. Kitao, H. Nakai, 
 T. Vreven, K. Throssell, J. A. Montgomery, Jr., J. E. Peralta, 
 F. Ogliaro, M. J. Bearpark, J. J. Heyd, E. N. Brothers, K. N. Kudin, 
 V. N. Staroverov, T. A. Keith, R. Kobayashi, J. Normand, 
 K. Raghavachari, A. P. Rendell, J. C. Burant, S. S. Iyengar, 
 J. Tomasi, M. Cossi, J. M. Millam, M. Klene, C. Adamo, R. Cammi, 
 J. W. Ochterski, R. L. Martin, K. Morokuma, O. Farkas, 
 J. B. Foresman, and D. J. Fox, Gaussian, Inc., Wallingford CT, 2019.
 
 ******************************************
 Gaussian 16:  ES64L-G16RevC.01  3-Jul-2019
                12-Jul-2024 
 ******************************************
 %NProcShared=16
 Will use up to   16 processors via shared memory.
 %Mem=32GB
 %chk=12318939_1.chk
 ------------------------------------------------------
 #N OPT FREQ=NORAMAN Integral(Ultrafine) wB97XD def2SVP
 ------------------------------------------------------
 1/18=20,19=15,26=4,38=1/1,3;
 2/9=110,12=2,17=6,18=5,40=1/2;
 3/5=43,7=101,11=2,25=1,30=1,71=1,74=-58,75=-5/1,2,3;
 4//1;
 5/5=2,38=5/2;
 6/7=2,8=2,9=2,10=2,28=1/1;
 7//1,2,3,16;
 1/18=20,19=15,26=4/3(2);
 2/9=110/2;
 99//99;
 2/9=110/2;
 3/5=43,7=101,11=2,25=1,30=1,71=1,74=-58,75=-5/1,2,3;
 4/5=5,16=3,69=1/1;
 5/5=2,38=5/2;
 7//1,2,3,16;
 1/18=20,19=15,26=4/3(-5);
 2/9=110/2;
 6/7=2,8=2,9=2,10=2,19=2,28=1/1;
 99/9=1/99;
 ----------
 12318939_1
 ----------
 Symbolic Z-matrix:
 Charge =  0 Multiplicity = 1
 C                    -3.40464  -1.38162  -0.0001 
 O                    -1.99515  -1.21643  -0.00005 
 C                    -1.54568   0.02158   0.00031 
 O                    -2.28809   0.99315   0.00052 
 C                    -0.06578   0.14994   0.00001 
 N                     0.67534  -0.96391  -0.00005 
 C                     1.99334  -0.88329  -0.00011 
 C                     2.78558  -2.16318  -0.00005 
 C                     2.64034   0.37282  -0.0001 
 C                     1.89569   1.53272  -0.00006 
 C                     0.49166   1.44578  -0.00004 
 O                    -0.22532   2.56319  -0.00019 
 H                    -3.85135  -0.92224   0.89319 
 H                    -3.85157  -0.92026  -0.89225 
 H                    -3.58232  -2.46215  -0.00125 
 H                     3.43272  -2.23073   0.88827 
 H                     2.09815  -3.01778  -0.00136 
 H                     3.43484  -2.22958  -0.8869 
 H                     3.73193   0.42148  -0.00017 
 H                     2.35871   2.52096  -0.00011 
 H                    -1.17306   2.29996  -0.00054 
 

 GradGradGradGradGradGradGradGradGradGradGradGradGradGradGradGradGradGrad
 Berny optimization.
 Initialization pass.
                           ----------------------------
                           !    Initial Parameters    !
                           ! (Angstroms and Degrees)  !
 --------------------------                            --------------------------
 ! Name  Definition              Value          Derivative Info.                !
 --------------------------------------------------------------------------------
 ! R1    R(1,2)                  1.4191         estimate D2E/DX2                !
 ! R2    R(1,13)                 1.0993         estimate D2E/DX2                !
 ! R3    R(1,14)                 1.0993         estimate D2E/DX2                !
 ! R4    R(1,15)                 1.095          estimate D2E/DX2                !
 ! R5    R(2,3)                  1.3171         estimate D2E/DX2                !
 ! R6    R(3,4)                  1.2228         estimate D2E/DX2                !
 ! R7    R(3,5)                  1.4855         estimate D2E/DX2                !
 ! R8    R(5,6)                  1.3379         estimate D2E/DX2                !
 ! R9    R(5,11)                 1.4107         estimate D2E/DX2                !
 ! R10   R(6,7)                  1.3205         estimate D2E/DX2                !
 ! R11   R(7,8)                  1.5052         estimate D2E/DX2                !
 ! R12   R(7,9)                  1.4129         estimate D2E/DX2                !
 ! R13   R(8,16)                 1.1011         estimate D2E/DX2                !
 ! R14   R(8,17)                 1.0968         estimate D2E/DX2                !
 ! R15   R(8,18)                 1.1011         estimate D2E/DX2                !
 ! R16   R(9,10)                 1.3784         estimate D2E/DX2                !
 ! R17   R(9,19)                 1.0927         estimate D2E/DX2                !
 ! R18   R(10,11)                1.4067         estimate D2E/DX2                !
 ! R19   R(10,20)                1.0913         estimate D2E/DX2                !
 ! R20   R(11,12)                1.3277         estimate D2E/DX2                !
 ! R21   R(12,21)                0.9836         estimate D2E/DX2                !
 ! A1    A(2,1,13)             110.7881         estimate D2E/DX2                !
 ! A2    A(2,1,14)             110.7911         estimate D2E/DX2                !
 ! A3    A(2,1,15)             106.0225         estimate D2E/DX2                !
 ! A4    A(13,1,14)            108.5943         estimate D2E/DX2                !
 ! A5    A(13,1,15)            110.3193         estimate D2E/DX2                !
 ! A6    A(14,1,15)            110.3219         estimate D2E/DX2                !
 ! A7    A(1,2,3)              116.6383         estimate D2E/DX2                !
 ! A8    A(2,3,4)              122.6615         estimate D2E/DX2                !
 ! A9    A(2,3,5)              114.911          estimate D2E/DX2                !
 ! A10   A(4,3,5)              122.4275         estimate D2E/DX2                !
 ! A11   A(3,5,6)              118.6813         estimate D2E/DX2                !
 ! A12   A(3,5,11)             118.2334         estimate D2E/DX2                !
 ! A13   A(6,5,11)             123.0852         estimate D2E/DX2                !
 ! A14   A(5,6,7)              120.1382         estimate D2E/DX2                !
 ! A15   A(6,7,8)              118.2568         estimate D2E/DX2                !
 ! A16   A(6,7,9)              120.7525         estimate D2E/DX2                !
 ! A17   A(8,7,9)              120.9907         estimate D2E/DX2                !
 ! A18   A(7,8,16)             111.1935         estimate D2E/DX2                !
 ! A19   A(7,8,17)             109.4301         estimate D2E/DX2                !
 ! A20   A(7,8,18)             111.1973         estimate D2E/DX2                !
 ! A21   A(16,8,17)            108.7552         estimate D2E/DX2                !
 ! A22   A(16,8,18)            107.429          estimate D2E/DX2                !
 ! A23   A(17,8,18)            108.7611         estimate D2E/DX2                !
 ! A24   A(7,9,10)             120.0475         estimate D2E/DX2                !
 ! A25   A(7,9,19)             119.8046         estimate D2E/DX2                !
 ! A26   A(10,9,19)            120.1479         estimate D2E/DX2                !
 ! A27   A(9,10,11)            119.1569         estimate D2E/DX2                !
 ! A28   A(9,10,20)            122.1952         estimate D2E/DX2                !
 ! A29   A(11,10,20)           118.6478         estimate D2E/DX2                !
 ! A30   A(5,11,10)            116.8196         estimate D2E/DX2                !
 ! A31   A(5,11,12)            124.0377         estimate D2E/DX2                !
 ! A32   A(10,11,12)           119.1427         estimate D2E/DX2                !
 ! A33   A(11,12,21)           107.1637         estimate D2E/DX2                !
 ! D1    D(13,1,2,3)           -60.3453         estimate D2E/DX2                !
 ! D2    D(14,1,2,3)            60.2496         estimate D2E/DX2                !
 ! D3    D(15,1,2,3)           179.9545         estimate D2E/DX2                !
 ! D4    D(1,2,3,4)             -0.0039         estimate D2E/DX2                !
 ! D5    D(1,2,3,5)           -179.9856         estimate D2E/DX2                !
 ! D6    D(2,3,5,6)             -0.026          estimate D2E/DX2                !
 ! D7    D(2,3,5,11)           179.9813         estimate D2E/DX2                !
 ! D8    D(4,3,5,6)            179.9923         estimate D2E/DX2                !
 ! D9    D(4,3,5,11)            -0.0004         estimate D2E/DX2                !
 ! D10   D(3,5,6,7)           -179.9897         estimate D2E/DX2                !
 ! D11   D(11,5,6,7)             0.0026         estimate D2E/DX2                !
 ! D12   D(3,5,11,10)          179.9878         estimate D2E/DX2                !
 ! D13   D(3,5,11,12)           -0.0185         estimate D2E/DX2                !
 ! D14   D(6,5,11,10)           -0.0045         estimate D2E/DX2                !
 ! D15   D(6,5,11,12)          179.9892         estimate D2E/DX2                !
 ! D16   D(5,6,7,8)            179.9945         estimate D2E/DX2                !
 ! D17   D(5,6,7,9)              0.0006         estimate D2E/DX2                !
 ! D18   D(6,7,8,16)          -120.0847         estimate D2E/DX2                !
 ! D19   D(6,7,8,17)             0.0776         estimate D2E/DX2                !
 ! D20   D(6,7,8,18)           120.2496         estimate D2E/DX2                !
 ! D21   D(9,7,8,16)            59.9093         estimate D2E/DX2                !
 ! D22   D(9,7,8,17)          -179.9285         estimate D2E/DX2                !
 ! D23   D(9,7,8,18)           -59.7564         estimate D2E/DX2                !
 ! D24   D(6,7,9,10)            -0.0016         estimate D2E/DX2                !
 ! D25   D(6,7,9,19)          -179.9988         estimate D2E/DX2                !
 ! D26   D(8,7,9,10)          -179.9954         estimate D2E/DX2                !
 ! D27   D(8,7,9,19)             0.0074         estimate D2E/DX2                !
 ! D28   D(7,9,10,11)           -0.0005         estimate D2E/DX2                !
 ! D29   D(7,9,10,20)         -179.9963         estimate D2E/DX2                !
 ! D30   D(19,9,10,11)         179.9967         estimate D2E/DX2                !
 ! D31   D(19,9,10,20)           0.0009         estimate D2E/DX2                !
 ! D32   D(9,10,11,5)            0.0033         estimate D2E/DX2                !
 ! D33   D(9,10,11,12)        -179.9907         estimate D2E/DX2                !
 ! D34   D(20,10,11,5)         179.9993         estimate D2E/DX2                !
 ! D35   D(20,10,11,12)          0.0053         estimate D2E/DX2                !
 ! D36   D(5,11,12,21)          -0.0174         estimate D2E/DX2                !
 ! D37   D(10,11,12,21)        179.9761         estimate D2E/DX2                !
 --------------------------------------------------------------------------------
 Trust Radius=3.00D-01 FncErr=1.00D-07 GrdErr=1.00D-06 EigMax=2.50D+02 EigMin=1.00D-04
 Number of steps in this run=    101 maximum allowed number of steps=    126.
 GradGradGradGradGradGradGradGradGradGradGradGradGradGradGradGradGradGrad

                          Input orientation:                          
 ---------------------------------------------------------------------
 Center     Atomic      Atomic             Coordinates (Angstroms)
 Number     Number       Type             X           Y           Z
 ---------------------------------------------------------------------
      1          6           0       -3.404640   -1.381620   -0.000100
      2          8           0       -1.995150   -1.216430   -0.000050
      3          6           0       -1.545680    0.021580    0.000310
      4          8           0       -2.288090    0.993150    0.000520
      5          6           0       -0.065780    0.149940    0.000010
      6          7           0        0.675340   -0.963910   -0.000050
      7          6           0        1.993340   -0.883290   -0.000110
      8          6           0        2.785580   -2.163180   -0.000050
      9          6           0        2.640340    0.372820   -0.000100
     10          6           0        1.895690    1.532720   -0.000060
     11          6           0        0.491660    1.445780   -0.000040
     12          8           0       -0.225320    2.563190   -0.000190
     13          1           0       -3.851350   -0.922240    0.893190
     14          1           0       -3.851570   -0.920260   -0.892250
     15          1           0       -3.582320   -2.462150   -0.001250
     16          1           0        3.432720   -2.230730    0.888270
     17          1           0        2.098150   -3.017780   -0.001360
     18          1           0        3.434840   -2.229580   -0.886900
     19          1           0        3.731930    0.421480   -0.000170
     20          1           0        2.358710    2.520960   -0.000110
     21          1           0       -1.173060    2.299960   -0.000540
 ---------------------------------------------------------------------
                    Distance matrix (angstroms):
                    1          2          3          4          5
     1  C    0.000000
     2  O    1.419137   0.000000
     3  C    2.329099   1.317077   0.000000
     4  O    2.624160   2.228914   1.222751   0.000000
     5  C    3.673372   2.364199   1.485456   2.376902   0.000000
     6  N    4.101307   2.682403   2.429840   3.551338   1.337879
     7  C    5.420934   4.002379   3.652869   4.674577   2.303810
     8  C    6.239364   4.873573   4.851081   5.975328   3.671618
     9  C    6.294430   4.900355   4.200730   4.967316   2.715283
    10  C    6.048709   4.764080   3.758533   4.218430   2.399884
    11  C    4.814078   3.643019   2.485780   2.816360   1.410653
    12  O    5.066518   4.173467   2.864111   2.592305   2.418518
    13  H    1.099339   2.080842   2.646535   2.628566   4.034586
    14  H    1.099332   2.080873   2.645913   2.627289   4.034063
    15  H    1.095042   2.017654   3.211981   3.689733   4.380533
    16  H    6.946919   5.592825   5.535868   6.626399   4.323898
    17  H    5.740881   4.472132   4.745019   5.943624   3.836280
    18  H    6.948664   5.594441   5.537187   6.627626   4.324704
    19  H    7.360829   5.956693   5.292739   6.047102   3.807405
    20  H    6.960340   5.737960   4.635856   4.891519   3.391148
    21  H    4.305111   3.611209   2.308649   1.717861   2.418399
                    6          7          8          9         10
     6  N    0.000000
     7  C    1.320463   0.000000
     8  C    2.427213   1.505245   0.000000
     9  C    2.376567   1.412948   2.540156   0.000000
    10  C    2.778923   2.417983   3.801524   1.378358   0.000000
    11  C    2.416680   2.771211   4.276291   2.401680   1.406719
    12  O    3.640278   4.098863   5.603935   3.606900   2.358082
    13  H    4.614167   5.912690   6.810775   6.679610   6.312939
    14  H    4.614200   5.912720   6.811214   6.679288   6.312219
    15  H    4.513579   5.794893   6.374915   6.838023   6.779940
    16  H    3.161817   2.162551   1.101120   2.862785   4.161147
    17  H    2.498554   2.137062   1.096769   3.433677   4.555002
    18  H    3.162794   2.162595   1.101113   2.861840   4.160573
    19  H    3.355897   2.173734   2.752462   1.092674   2.146307
    20  H    3.870149   3.423801   4.703550   2.166523   1.091332
    21  H    3.750924   4.489896   5.965773   4.272691   3.163208
                   11         12         13         14         15
    11  C    0.000000
    12  O    1.327654   0.000000
    13  H    5.026640   5.108272   0.000000
    14  H    5.025717   5.106847   1.785441   0.000000
    15  H    5.645284   6.043467   1.801034   1.801056   0.000000
    16  H    4.791206   6.095268   7.400665   7.612389   7.074997
    17  H    4.743857   6.045307   6.370876   6.371220   5.707580
    18  H    4.791357   6.095381   7.613568   7.403115   7.076652
    19  H    3.398314   4.499639   7.753052   7.752777   7.862161
    20  H    2.154504   2.584375   7.156707   7.155801   7.754175
    21  H    1.871074   0.983616   4.284223   4.282450   5.336874
                   16         17         18         19         20
    16  H    0.000000
    17  H    1.786607   0.000000
    18  H    1.775172   1.786667   0.000000
    19  H    2.813018   3.807591   2.811169   0.000000
    20  H    4.951896   5.544866   4.950968   2.508695   0.000000
    21  H    6.521529   6.243330   6.521895   5.252391   3.538678
                   21
    21  H    0.000000
 Stoichiometry    C8H9NO3
 Framework group  C1[X(C8H9NO3)]
 Deg. of freedom    57
 Full point group                 C1      NOp   1
 Largest Abelian subgroup         C1      NOp   1
 Largest concise Abelian subgroup C1      NOp   1
                         Standard orientation:                         
 ---------------------------------------------------------------------
 Center     Atomic      Atomic             Coordinates (Angstroms)
 Number     Number       Type             X           Y           Z
 ---------------------------------------------------------------------
      1          6           0       -3.404639   -1.381624   -0.000099
      2          8           0       -1.995149   -1.216433   -0.000049
      3          6           0       -1.545680    0.021578    0.000311
      4          8           0       -2.288091    0.993147    0.000521
      5          6           0       -0.065780    0.149939    0.000011
      6          7           0        0.675341   -0.963910   -0.000049
      7          6           0        1.993341   -0.883289   -0.000109
      8          6           0        2.785582   -2.163178   -0.000049
      9          6           0        2.640340    0.372822   -0.000099
     10          6           0        1.895689    1.532721   -0.000059
     11          6           0        0.491659    1.445780   -0.000039
     12          8           0       -0.225322    2.563189   -0.000189
     13          1           0       -3.851349   -0.922244    0.893191
     14          1           0       -3.851569   -0.920264   -0.892249
     15          1           0       -3.582318   -2.462154   -0.001249
     16          1           0        3.432722   -2.230728    0.888271
     17          1           0        2.098153   -3.017779   -0.001359
     18          1           0        3.434842   -2.229578   -0.886899
     19          1           0        3.731930    0.421482   -0.000169
     20          1           0        2.358708    2.520961   -0.000109
     21          1           0       -1.173062    2.299958   -0.000539
 ---------------------------------------------------------------------
 Rotational constants (GHZ):           1.4731578           0.7344263           0.4931502
 Standard basis: def2SVP (5D, 7F)
 There are   225 symmetry adapted cartesian basis functions of A   symmetry.
 There are   213 symmetry adapted basis functions of A   symmetry.
   213 basis functions,   363 primitive gaussians,   225 cartesian basis functions
    44 alpha electrons       44 beta electrons
       nuclear repulsion energy       694.6222709363 Hartrees.
 NAtoms=   21 NActive=   21 NUniq=   21 SFac= 1.00D+00 NAtFMM=   60 NAOKFM=F Big=F
 Integral buffers will be    131072 words long.
 Raffenetti 2 integral format.
 Two-electron integral symmetry is turned on.
 Nuclear repulsion after empirical dispersion term =      694.6126403332 Hartrees.
 One-electron integrals computed using PRISM.
   1 Symmetry operations used in ECPInt.
 ECPInt:  NShTT=    4950 NPrTT=   18138 LenC2=    4758 LenP2D=   12895.
 LDataN:  DoStor=T MaxTD1= 4 Len=   56
 NBasis=   213 RedAO= T EigKep=  5.15D-04  NBF=   213
 NBsUse=   213 1.00D-06 EigRej= -1.00D+00 NBFU=   213
 ExpMin= 1.22D-01 ExpMax= 2.27D+03 ExpMxC= 3.41D+02 IAcc=3 IRadAn=         5 AccDes= 0.00D+00
 Harris functional with IExCor= 4639 and IRadAn=       5 diagonalized for initial guess.
 HarFok:  IExCor= 4639 AccDes= 0.00D+00 IRadAn=         5 IDoV= 1 UseB2=F ITyADJ=14
 ICtDFT=  3500011 ScaDFX=  1.000000  1.000000  1.000000  1.000000
 FoFCou: FMM=F IPFlag=           0 FMFlag=      100000 FMFlg1=           0
         NFxFlg=           0 DoJE=T BraDBF=F KetDBF=T FulRan=T
         wScrn=  0.000000 ICntrl=       500 IOpCl=  0 I1Cent=   200000004 NGrid=           0
         NMat0=    1 NMatS0=      1 NMatT0=    0 NMatD0=    1 NMtDS0=    0 NMtDT0=    0
 Petite list used in FoFCou.
 Requested convergence on RMS density matrix=1.00D-08 within 128 cycles.
 Requested convergence on MAX density matrix=1.00D-06.
 Requested convergence on             energy=1.00D-06.
 No special actions if energy rises.
 Integral accuracy reduced to 1.0D-05 until final iterations.
 Initial convergence to 1.0D-05 achieved.  Increase integral accuracy.
 SCF Done:  E(RwB97XD) =  -590.092628103     A.U. after   16 cycles
            NFock= 16  Conv=0.66D-08     -V/T= 2.0093

 **********************************************************************

            Population analysis using the SCF Density.

 **********************************************************************

 Orbital symmetries:
       Occupied  (A) (A) (A) (A) (A) (A) (A) (A) (A) (A) (A) (A)
                 (A) (A) (A) (A) (A) (A) (A) (A) (A) (A) (A) (A)
                 (A) (A) (A) (A) (A) (A) (A) (A) (A) (A) (A) (A)
                 (A) (A) (A) (A) (A) (A) (A) (A)
       Virtual   (A) (A) (A) (A) (A) (A) (A) (A) (A) (A) (A) (A)
                 (A) (A) (A) (A) (A) (A) (A) (A) (A) (A) (A) (A)
                 (A) (A) (A) (A) (A) (A) (A) (A) (A) (A) (A) (A)
                 (A) (A) (A) (A) (A) (A) (A) (A) (A) (A) (A) (A)
                 (A) (A) (A) (A) (A) (A) (A) (A) (A) (A) (A) (A)
                 (A) (A) (A) (A) (A) (A) (A) (A) (A) (A) (A) (A)
                 (A) (A) (A) (A) (A) (A) (A) (A) (A) (A) (A) (A)
                 (A) (A) (A) (A) (A) (A) (A) (A) (A) (A) (A) (A)
                 (A) (A) (A) (A) (A) (A) (A) (A) (A) (A) (A) (A)
                 (A) (A) (A) (A) (A) (A) (A) (A) (A) (A) (A) (A)
                 (A) (A) (A) (A) (A) (A) (A) (A) (A) (A) (A) (A)
                 (A) (A) (A) (A) (A) (A) (A) (A) (A) (A) (A) (A)
                 (A) (A) (A) (A) (A) (A) (A) (A) (A) (A) (A) (A)
                 (A) (A) (A) (A) (A) (A) (A) (A) (A) (A) (A) (A)
                 (A)
 The electronic state is 1-A.
 Alpha  occ. eigenvalues --  -19.31330 -19.28328 -19.26183 -14.44610 -10.44123
 Alpha  occ. eigenvalues --  -10.37974 -10.36110 -10.34223 -10.34060 -10.32078
 Alpha  occ. eigenvalues --  -10.31944 -10.29605  -1.22181  -1.16498  -1.12006
 Alpha  occ. eigenvalues --   -1.04804  -0.90282  -0.88858  -0.83778  -0.79351
 Alpha  occ. eigenvalues --   -0.75811  -0.70200  -0.67972  -0.64238  -0.63657
 Alpha  occ. eigenvalues --   -0.59386  -0.59198  -0.57481  -0.55201  -0.53663
 Alpha  occ. eigenvalues --   -0.51927  -0.50676  -0.50467  -0.48716  -0.47801
 Alpha  occ. eigenvalues --   -0.47569  -0.46316  -0.44661  -0.44395  -0.40119
 Alpha  occ. eigenvalues --   -0.38784  -0.36965  -0.33833  -0.30927
 Alpha virt. eigenvalues --    0.00629   0.05906   0.11639   0.14844   0.15569
 Alpha virt. eigenvalues --    0.17062   0.19956   0.20540   0.20977   0.20996
 Alpha virt. eigenvalues --    0.21852   0.22272   0.22295   0.26305   0.29124
 Alpha virt. eigenvalues --    0.29665   0.30881   0.33525   0.34899   0.36137
 Alpha virt. eigenvalues --    0.39957   0.42257   0.44360   0.46511   0.48132
 Alpha virt. eigenvalues --    0.50980   0.51672   0.51861   0.53940   0.54322
 Alpha virt. eigenvalues --    0.54991   0.55892   0.56646   0.57731   0.58189
 Alpha virt. eigenvalues --    0.60227   0.63315   0.65572   0.66245   0.67073
 Alpha virt. eigenvalues --    0.67944   0.70913   0.71844   0.72100   0.72651
 Alpha virt. eigenvalues --    0.73160   0.73190   0.74375   0.76064   0.76265
 Alpha virt. eigenvalues --    0.76639   0.77811   0.77833   0.78302   0.79975
 Alpha virt. eigenvalues --    0.84239   0.84728   0.86344   0.88542   0.90607
 Alpha virt. eigenvalues --    0.96255   0.97493   0.99704   1.01079   1.05830
 Alpha virt. eigenvalues --    1.08252   1.09514   1.10960   1.15196   1.15271
 Alpha virt. eigenvalues --    1.17024   1.20441   1.24067   1.24365   1.30943
 Alpha virt. eigenvalues --    1.32370   1.32577   1.34265   1.36020   1.37889
 Alpha virt. eigenvalues --    1.41674   1.43322   1.45120   1.47354   1.51629
 Alpha virt. eigenvalues --    1.53838   1.54286   1.58886   1.60236   1.61560
 Alpha virt. eigenvalues --    1.61902   1.65773   1.67006   1.68388   1.70792
 Alpha virt. eigenvalues --    1.75617   1.77433   1.79407   1.80138   1.80469
 Alpha virt. eigenvalues --    1.81197   1.84343   1.85343   1.86362   1.87722
 Alpha virt. eigenvalues --    1.88011   1.90983   1.92316   1.92480   1.93776
 Alpha virt. eigenvalues --    1.97520   1.99010   2.00319   2.02622   2.04538
 Alpha virt. eigenvalues --    2.07955   2.09370   2.09714   2.16820   2.19004
 Alpha virt. eigenvalues --    2.23166   2.24848   2.26180   2.27640   2.32315
 Alpha virt. eigenvalues --    2.33799   2.35194   2.39127   2.39879   2.41887
 Alpha virt. eigenvalues --    2.45247   2.46238   2.48236   2.50180   2.51175
 Alpha virt. eigenvalues --    2.52882   2.61646   2.68384   2.70016   2.71431
 Alpha virt. eigenvalues --    2.72395   2.73983   2.76982   2.81640   2.87804
 Alpha virt. eigenvalues --    2.88683   2.88855   2.90658   2.93956   2.98036
 Alpha virt. eigenvalues --    2.98971   3.01502   3.02615   3.03588   3.05293
 Alpha virt. eigenvalues --    3.07953   3.09161   3.13403   3.20222   3.26187
 Alpha virt. eigenvalues --    3.29068   3.33672   3.43340   3.51199   3.55281
 Alpha virt. eigenvalues --    3.62622   3.74992   3.81218   3.93533
          Condensed to atoms (all electrons):
               1          2          3          4          5          6
     1  C    4.413703   0.267954  -0.034838  -0.000240   0.010210  -0.000446
     2  O    0.267954   7.818305   0.464698  -0.076325  -0.124837   0.004191
     3  C   -0.034838   0.464698   4.633126   0.644523   0.146083  -0.060902
     4  O   -0.000240  -0.076325   0.644523   7.814156  -0.114591   0.001305
     5  C    0.010210  -0.124837   0.146083  -0.114591   5.725488   0.502230
     6  N   -0.000446   0.004191  -0.060902   0.001305   0.502230   6.234130
     7  C    0.000022   0.000037   0.007431  -0.000044  -0.063114   0.587030
     8  C    0.000000  -0.000024   0.000312  -0.000000   0.009314  -0.080115
     9  C    0.000002  -0.000071  -0.000659  -0.000079  -0.074929  -0.053660
    10  C    0.000002   0.000075   0.008376   0.001388  -0.057543  -0.035484
    11  C   -0.000089  -0.000037  -0.092501   0.006055   0.276723  -0.037660
    12  O    0.000015  -0.000040   0.002978  -0.031516  -0.094535   0.001116
    13  H    0.405626  -0.025907  -0.004927   0.006994   0.000190  -0.000023
    14  H    0.405601  -0.025912  -0.004940   0.007036   0.000190  -0.000023
    15  H    0.400503  -0.021426   0.003795   0.000612   0.000282  -0.000032
    16  H    0.000000  -0.000000   0.000006  -0.000000  -0.000206   0.001373
    17  H   -0.000001   0.000018  -0.000211   0.000000   0.000159   0.010846
    18  H    0.000000  -0.000000   0.000006  -0.000000  -0.000206   0.001389
    19  H    0.000000  -0.000000   0.000055  -0.000000  -0.000291   0.005745
    20  H   -0.000000   0.000001  -0.000445   0.000024   0.018915  -0.000173
    21  H   -0.000005   0.001007   0.003150   0.057967  -0.032067  -0.000095
               7          8          9         10         11         12
     1  C    0.000022   0.000000   0.000002   0.000002  -0.000089   0.000015
     2  O    0.000037  -0.000024  -0.000071   0.000075  -0.000037  -0.000040
     3  C    0.007431   0.000312  -0.000659   0.008376  -0.092501   0.002978
     4  O   -0.000044  -0.000000  -0.000079   0.001388   0.006055  -0.031516
     5  C   -0.063114   0.009314  -0.074929  -0.057543   0.276723  -0.094535
     6  N    0.587030  -0.080115  -0.053660  -0.035484  -0.037660   0.001116
     7  C    4.985354   0.387182   0.388186   0.011543  -0.080589   0.000351
     8  C    0.387182   4.608815  -0.096692   0.002794   0.002389   0.000006
     9  C    0.388186  -0.096692   5.010837   0.404485   0.057822   0.004191
    10  C    0.011543   0.002794   0.404485   4.978573   0.386618  -0.077370
    11  C   -0.080589   0.002389   0.057822   0.386618   4.922137   0.484252
    12  O    0.000351   0.000006   0.004191  -0.077370   0.484252   7.568514
    13  H    0.000002   0.000000  -0.000000   0.000000  -0.000006   0.000000
    14  H    0.000002   0.000000  -0.000000   0.000000  -0.000007   0.000000
    15  H   -0.000000  -0.000000   0.000000  -0.000001   0.000023   0.000000
    16  H   -0.017530   0.386139  -0.002831   0.000777  -0.000115  -0.000000
    17  H   -0.010354   0.368540   0.010565  -0.000284   0.000062  -0.000001
    18  H   -0.017550   0.386148  -0.002844   0.000783  -0.000116  -0.000000
    19  H   -0.046219  -0.005355   0.421673  -0.052234   0.012419  -0.000053
    20  H    0.009039  -0.000264  -0.062884   0.430302  -0.054072   0.001183
    21  H   -0.000081  -0.000000  -0.000150   0.006592  -0.005886   0.335636
              13         14         15         16         17         18
     1  C    0.405626   0.405601   0.400503   0.000000  -0.000001   0.000000
     2  O   -0.025907  -0.025912  -0.021426  -0.000000   0.000018  -0.000000
     3  C   -0.004927  -0.004940   0.003795   0.000006  -0.000211   0.000006
     4  O    0.006994   0.007036   0.000612  -0.000000   0.000000  -0.000000
     5  C    0.000190   0.000190   0.000282  -0.000206   0.000159  -0.000206
     6  N   -0.000023  -0.000023  -0.000032   0.001373   0.010846   0.001389
     7  C    0.000002   0.000002  -0.000000  -0.017530  -0.010354  -0.017550
     8  C    0.000000   0.000000  -0.000000   0.386139   0.368540   0.386148
     9  C   -0.000000  -0.000000   0.000000  -0.002831   0.010565  -0.002844
    10  C    0.000000   0.000000  -0.000001   0.000777  -0.000284   0.000783
    11  C   -0.000006  -0.000007   0.000023  -0.000115   0.000062  -0.000116
    12  O    0.000000   0.000000   0.000000  -0.000000  -0.000001  -0.000000
    13  H    0.615278  -0.029532  -0.022773  -0.000000  -0.000000  -0.000000
    14  H   -0.029532   0.615264  -0.022766  -0.000000  -0.000000  -0.000000
    15  H   -0.022773  -0.022766   0.600253   0.000000   0.000001   0.000000
    16  H   -0.000000  -0.000000   0.000000   0.619471  -0.014705  -0.021801
    17  H   -0.000000  -0.000000   0.000001  -0.014705   0.598544  -0.014722
    18  H   -0.000000  -0.000000   0.000000  -0.021801  -0.014722   0.619555
    19  H    0.000000   0.000000  -0.000000   0.000863  -0.000175   0.000869
    20  H   -0.000000  -0.000000   0.000000   0.000007   0.000010   0.000007
    21  H   -0.000011  -0.000011  -0.000001   0.000000   0.000000   0.000000
              19         20         21
     1  C    0.000000  -0.000000  -0.000005
     2  O   -0.000000   0.000001   0.001007
     3  C    0.000055  -0.000445   0.003150
     4  O   -0.000000   0.000024   0.057967
     5  C   -0.000291   0.018915  -0.032067
     6  N    0.005745  -0.000173  -0.000095
     7  C   -0.046219   0.009039  -0.000081
     8  C   -0.005355  -0.000264  -0.000000
     9  C    0.421673  -0.062884  -0.000150
    10  C   -0.052234   0.430302   0.006592
    11  C    0.012419  -0.054072  -0.005886
    12  O   -0.000053   0.001183   0.335636
    13  H    0.000000  -0.000000  -0.000011
    14  H    0.000000  -0.000000  -0.000011
    15  H   -0.000000   0.000000  -0.000001
    16  H    0.000863   0.000007   0.000000
    17  H   -0.000175   0.000010   0.000000
    18  H    0.000869   0.000007   0.000000
    19  H    0.650081  -0.010666   0.000009
    20  H   -0.010666   0.636565  -0.000089
    21  H    0.000009  -0.000089   0.425612
 Mulliken charges:
               1
     1  C    0.131982
     2  O   -0.281706
     3  C    0.284884
     4  O   -0.317264
     5  C   -0.127466
     6  N   -0.080742
     7  C   -0.140697
     8  C    0.030810
     9  C   -0.002960
    10  C   -0.009393
    11  C    0.122578
    12  O   -0.194730
    13  H    0.055089
    14  H    0.055096
    15  H    0.061530
    16  H    0.048553
    17  H    0.051709
    18  H    0.048483
    19  H    0.023280
    20  H    0.032540
    21  H    0.208424
 Sum of Mulliken charges =  -0.00000
 Mulliken charges with hydrogens summed into heavy atoms:
               1
     1  C    0.303697
     2  O   -0.281706
     3  C    0.284884
     4  O   -0.317264
     5  C   -0.127466
     6  N   -0.080742
     7  C   -0.140697
     8  C    0.179554
     9  C    0.020320
    10  C    0.023147
    11  C    0.122578
    12  O    0.013694
 Electronic spatial extent (au):  <R**2>=           2217.3677
 Charge=             -0.0000 electrons
 Dipole moment (field-independent basis, Debye):
    X=              0.5634    Y=             -1.1620    Z=             -0.0008  Tot=              1.2914
 Quadrupole moment (field-independent basis, Debye-Ang):
   XX=            -54.2432   YY=            -71.8157   ZZ=            -69.3516
   XY=              5.2821   XZ=              0.0033   YZ=             -0.0029
 Traceless Quadrupole moment (field-independent basis, Debye-Ang):
   XX=             10.8936   YY=             -6.6788   ZZ=             -4.2148
   XY=              5.2821   XZ=              0.0033   YZ=             -0.0029
 Octapole moment (field-independent basis, Debye-Ang**2):
  XXX=            -22.5062  YYY=             -7.2652  ZZZ=              0.0058  XYY=             -5.8451
  XXY=            -19.3963  XXZ=             -0.0085  XZZ=            -11.9014  YZZ=              0.4493
  YYZ=             -0.0060  XYZ=              0.0031
 Hexadecapole moment (field-independent basis, Debye-Ang**3):
 XXXX=          -1670.1190 YYYY=           -930.4122 ZZZZ=            -79.1860 XXXY=             81.9618
 XXXZ=              0.0358 YYYX=             17.0034 YYYZ=              0.0043 ZZZX=              0.0313
 ZZZY=             -0.0123 XXYY=           -413.7790 XXZZ=           -321.4632 YYZZ=           -168.8402
 XXYZ=             -0.0175 YYXZ=              0.0335 ZZXY=             -4.9398
 N-N= 6.946126403332D+02 E-N=-2.765759403106D+03  KE= 5.846343432745D+02
   1 Symmetry operations used in ECPInt.
 ECPInt:  NShTT=    4950 NPrTT=   18138 LenC2=    4758 LenP2D=   12895.
 LDataN:  DoStor=T MaxTD1= 5 Len=  102
 Calling FoFJK, ICntrl=      2127 FMM=F ISym2X=0 I1Cent= 0 IOpClX= 0 NMat=1 NMatS=1 NMatT=0.
 ***** Axes restored to original set *****
 -------------------------------------------------------------------
 Center     Atomic                   Forces (Hartrees/Bohr)
 Number     Number              X              Y              Z
 -------------------------------------------------------------------
      1        6          -0.000000618    0.000010851    0.000006358
      2        8          -0.000005638   -0.000018049    0.000010483
      3        6           0.000047063   -0.000049321   -0.000046663
      4        8          -0.000019708    0.000049749    0.000001722
      5        6          -0.000064485    0.000028388    0.000020811
      6        7           0.000011684   -0.000029324    0.000003593
      7        6          -0.000023031   -0.000011780   -0.000000048
      8        6           0.000007494   -0.000019706   -0.000002486
      9        6           0.000006991    0.000026924   -0.000000838
     10        6          -0.000023087   -0.000006542   -0.000002263
     11        6           0.000012689    0.000005722   -0.000008767
     12        8           0.000022240    0.000022518   -0.000011136
     13        1          -0.000000253    0.000003085   -0.000002171
     14        1           0.000001485    0.000001924   -0.000000747
     15        1           0.000005891   -0.000010660    0.000001025
     16        1           0.000003928    0.000003288    0.000007613
     17        1          -0.000002485   -0.000002038    0.000000142
     18        1           0.000002489    0.000002761   -0.000006238
     19        1           0.000006149    0.000000255    0.000001751
     20        1           0.000009341    0.000020384    0.000000364
     21        1           0.000001861   -0.000028426    0.000027497
 -------------------------------------------------------------------
 Cartesian Forces:  Max     0.000064485 RMS     0.000019117

 GradGradGradGradGradGradGradGradGradGradGradGradGradGradGradGradGradGrad
 Berny optimization.
 FormGI is forming the generalized inverse of G from B-inverse, IUseBI=4.
 Internal  Forces:  Max     0.000051764 RMS     0.000012891
 Search for a local minimum.
 Step number   1 out of a maximum of  101
 All quantities printed in internal units (Hartrees-Bohrs-Radians)
 Mixed Optimization -- En-DIIS/RFO-DIIS
 Second derivative matrix not updated -- first step.
 ITU=  0
     Eigenvalues ---    0.00697   0.00958   0.01439   0.01500   0.01571
     Eigenvalues ---    0.01731   0.02001   0.02081   0.02151   0.02156
     Eigenvalues ---    0.02231   0.02506   0.02649   0.02789   0.07202
     Eigenvalues ---    0.07345   0.10220   0.10649   0.16000   0.16000
     Eigenvalues ---    0.16000   0.16000   0.16000   0.16000   0.16000
     Eigenvalues ---    0.16000   0.16000   0.22474   0.24505   0.25000
     Eigenvalues ---    0.25000   0.25000   0.25000   0.25000   0.25000
     Eigenvalues ---    0.25000   0.31833   0.33559   0.33559   0.33755
     Eigenvalues ---    0.33756   0.33952   0.34042   0.34236   0.34505
     Eigenvalues ---    0.34659   0.40765   0.42591   0.43292   0.43725
     Eigenvalues ---    0.47962   0.50689   0.56080   0.60063   0.60163
     Eigenvalues ---    0.62665   0.94175
 RFO step:  Lambda=-2.03578725D-07 EMin= 6.96565689D-03
 Linear search not attempted -- first point.
 Iteration  1 RMS(Cart)=  0.00073135 RMS(Int)=  0.00000036
 Iteration  2 RMS(Cart)=  0.00000068 RMS(Int)=  0.00000003
 Variable       Old X    -DE/DX   Delta X   Delta X   Delta X     New X
                                 (Linear)    (Quad)   (Total)
    R1        2.68178  -0.00001   0.00000  -0.00002  -0.00002   2.68176
    R2        2.07745  -0.00000   0.00000  -0.00000  -0.00000   2.07745
    R3        2.07744   0.00000   0.00000   0.00000   0.00000   2.07744
    R4        2.06933   0.00001   0.00000   0.00003   0.00003   2.06936
    R5        2.48892   0.00001   0.00000   0.00002   0.00002   2.48893
    R6        2.31067   0.00005   0.00000   0.00005   0.00005   2.31072
    R7        2.80711  -0.00003   0.00000  -0.00008  -0.00008   2.80703
    R8        2.52823   0.00003   0.00000   0.00005   0.00005   2.52828
    R9        2.66575   0.00002   0.00000   0.00004   0.00004   2.66578
   R10        2.49531   0.00000   0.00000   0.00001   0.00001   2.49532
   R11        2.84450   0.00002   0.00000   0.00006   0.00006   2.84456
   R12        2.67008   0.00004   0.00000   0.00008   0.00008   2.67017
   R13        2.08082   0.00001   0.00000   0.00002   0.00002   2.08084
   R14        2.07259   0.00000   0.00000   0.00001   0.00001   2.07260
   R15        2.08080   0.00001   0.00000   0.00002   0.00002   2.08082
   R16        2.60472   0.00000   0.00000   0.00000   0.00000   2.60472
   R17        2.06485   0.00001   0.00000   0.00002   0.00002   2.06487
   R18        2.65831  -0.00002   0.00000  -0.00004  -0.00004   2.65828
   R19        2.06232   0.00002   0.00000   0.00006   0.00006   2.06238
   R20        2.50890  -0.00002   0.00000  -0.00003  -0.00003   2.50887
   R21        1.85877   0.00001   0.00000   0.00001   0.00001   1.85878
    A1        1.93362   0.00000   0.00000   0.00001   0.00001   1.93363
    A2        1.93367  -0.00000   0.00000  -0.00002  -0.00002   1.93365
    A3        1.85044  -0.00001   0.00000  -0.00006  -0.00006   1.85038
    A4        1.89533  -0.00000   0.00000  -0.00000  -0.00000   1.89532
    A5        1.92544   0.00001   0.00000   0.00004   0.00004   1.92547
    A6        1.92548   0.00001   0.00000   0.00003   0.00003   1.92551
    A7        2.03572  -0.00001   0.00000  -0.00002  -0.00002   2.03570
    A8        2.14085   0.00001   0.00000   0.00005   0.00005   2.14090
    A9        2.00558   0.00001   0.00000   0.00003   0.00003   2.00560
   A10        2.13676  -0.00002   0.00000  -0.00008  -0.00008   2.13668
   A11        2.07138  -0.00000   0.00000  -0.00001  -0.00001   2.07137
   A12        2.06356   0.00001   0.00000   0.00003   0.00003   2.06359
   A13        2.14824  -0.00001   0.00000  -0.00002  -0.00002   2.14822
   A14        2.09681  -0.00001   0.00000  -0.00002  -0.00002   2.09678
   A15        2.06397   0.00000   0.00000   0.00001   0.00001   2.06398
   A16        2.10753   0.00000   0.00000   0.00001   0.00001   2.10754
   A17        2.11169  -0.00000   0.00000  -0.00002  -0.00002   2.11167
   A18        1.94069  -0.00000   0.00000  -0.00003  -0.00003   1.94066
   A19        1.90992   0.00000   0.00000   0.00001   0.00001   1.90992
   A20        1.94076  -0.00000   0.00000  -0.00003  -0.00003   1.94073
   A21        1.89814   0.00000   0.00000   0.00002   0.00002   1.89816
   A22        1.87499   0.00000   0.00000   0.00002   0.00002   1.87501
   A23        1.89824   0.00000   0.00000   0.00002   0.00002   1.89826
   A24        2.09522   0.00000   0.00000   0.00001   0.00001   2.09524
   A25        2.09098  -0.00000   0.00000  -0.00001  -0.00001   2.09098
   A26        2.09698  -0.00000   0.00000  -0.00000  -0.00000   2.09697
   A27        2.07968  -0.00000   0.00000  -0.00003  -0.00003   2.07965
   A28        2.13271   0.00000   0.00000   0.00002   0.00002   2.13273
   A29        2.07080   0.00000   0.00000   0.00002   0.00002   2.07081
   A30        2.03889   0.00002   0.00000   0.00006   0.00006   2.03894
   A31        2.16487  -0.00001   0.00000  -0.00004  -0.00004   2.16482
   A32        2.07943  -0.00000   0.00000  -0.00001  -0.00001   2.07942
   A33        1.87036  -0.00005   0.00000  -0.00032  -0.00032   1.87004
    D1       -1.05322   0.00000   0.00000   0.00017   0.00017  -1.05305
    D2        1.05155   0.00000   0.00000   0.00016   0.00016   1.05172
    D3        3.14080   0.00000   0.00000   0.00016   0.00016   3.14096
    D4       -0.00007   0.00001   0.00000   0.00044   0.00044   0.00037
    D5       -3.14134  -0.00001   0.00000  -0.00056  -0.00056   3.14128
    D6       -0.00045   0.00002   0.00000   0.00170   0.00170   0.00124
    D7        3.14127   0.00001   0.00000   0.00126   0.00126  -3.14066
    D8        3.14146   0.00001   0.00000   0.00069   0.00069  -3.14103
    D9       -0.00001  -0.00000   0.00000   0.00025   0.00025   0.00025
   D10       -3.14141  -0.00001   0.00000  -0.00059  -0.00059   3.14118
   D11        0.00005  -0.00000   0.00000  -0.00012  -0.00012  -0.00008
   D12        3.14138   0.00001   0.00000   0.00072   0.00072  -3.14109
   D13       -0.00032   0.00002   0.00000   0.00102   0.00102   0.00069
   D14       -0.00008   0.00001   0.00000   0.00025   0.00025   0.00018
   D15        3.14140   0.00001   0.00000   0.00055   0.00055  -3.14123
   D16        3.14150   0.00000   0.00000   0.00001   0.00001   3.14151
   D17        0.00001  -0.00000   0.00000  -0.00007  -0.00007  -0.00006
   D18       -2.09587  -0.00000   0.00000  -0.00009  -0.00009  -2.09596
   D19        0.00135  -0.00000   0.00000  -0.00008  -0.00008   0.00128
   D20        2.09875  -0.00000   0.00000  -0.00007  -0.00007   2.09868
   D21        1.04561  -0.00000   0.00000  -0.00000  -0.00000   1.04561
   D22       -3.14034   0.00000   0.00000   0.00001   0.00001  -3.14034
   D23       -1.04295   0.00000   0.00000   0.00002   0.00002  -1.04293
   D24       -0.00003   0.00000   0.00000   0.00012   0.00012   0.00010
   D25       -3.14157  -0.00000   0.00000   0.00000   0.00000  -3.14157
   D26       -3.14151   0.00000   0.00000   0.00004   0.00004  -3.14147
   D27        0.00013  -0.00000   0.00000  -0.00008  -0.00008   0.00005
   D28       -0.00001  -0.00000   0.00000   0.00001   0.00001   0.00001
   D29       -3.14153  -0.00000   0.00000  -0.00019  -0.00019   3.14147
   D30        3.14154   0.00000   0.00000   0.00014   0.00014  -3.14151
   D31        0.00002  -0.00000   0.00000  -0.00007  -0.00007  -0.00005
   D32        0.00006  -0.00000   0.00000  -0.00019  -0.00019  -0.00013
   D33       -3.14143  -0.00001   0.00000  -0.00047  -0.00047   3.14128
   D34        3.14158   0.00000   0.00000   0.00000   0.00000   3.14158
   D35        0.00009  -0.00001   0.00000  -0.00028  -0.00028  -0.00019
   D36       -0.00030   0.00002   0.00000   0.00077   0.00077   0.00047
   D37        3.14118   0.00003   0.00000   0.00108   0.00108  -3.14093
         Item               Value     Threshold  Converged?
 Maximum Force            0.000052     0.000450     YES
 RMS     Force            0.000013     0.000300     YES
 Maximum Displacement     0.003426     0.001800     NO 
 RMS     Displacement     0.000731     0.001200     YES
 Predicted change in Energy=-1.017889D-07
 GradGradGradGradGradGradGradGradGradGradGradGradGradGradGradGradGradGrad

                          Input orientation:                          
 ---------------------------------------------------------------------
 Center     Atomic      Atomic             Coordinates (Angstroms)
 Number     Number       Type             X           Y           Z
 ---------------------------------------------------------------------
      1          6           0       -3.404673   -1.381566    0.000106
      2          8           0       -1.995184   -1.216441    0.000219
      3          6           0       -1.545679    0.021566   -0.000735
      4          8           0       -2.288030    0.993217   -0.001293
      5          6           0       -0.065821    0.149928   -0.000159
      6          7           0        0.675310   -0.963950   -0.000221
      7          6           0        1.993312   -0.883303   -0.000184
      8          6           0        2.785610   -2.163196   -0.000147
      9          6           0        2.640318    0.372852   -0.000154
     10          6           0        1.895668    1.532754   -0.000046
     11          6           0        0.491661    1.445771    0.000039
     12          8           0       -0.225331    2.563155    0.000504
     13          1           0       -3.851550   -0.921014    0.892707
     14          1           0       -3.851392   -0.921330   -0.892732
     15          1           0       -3.582338   -2.462114    0.000307
     16          1           0        3.432750   -2.230711    0.888191
     17          1           0        2.098211   -3.017828   -0.001478
     18          1           0        3.434878   -2.229527   -0.887009
     19          1           0        3.731917    0.421516   -0.000146
     20          1           0        2.358688    2.521032    0.000095
     21          1           0       -1.172986    2.299599    0.001107
 ---------------------------------------------------------------------
                    Distance matrix (angstroms):
                    1          2          3          4          5
     1  C    0.000000
     2  O    1.419128   0.000000
     3  C    2.329085   1.317086   0.000000
     4  O    2.624212   2.228980   1.222780   0.000000
     5  C    3.673337   2.364192   1.485414   2.376836   0.000000
     6  N    4.101300   2.682403   2.429821   3.551322   1.337908
     7  C    5.420932   4.002384   3.652841   4.674529   2.303822
     8  C    6.239434   4.873636   4.851108   5.975347   3.671676
     9  C    6.294434   4.900380   4.200711   4.967240   2.715306
    10  C    6.048709   4.764116   3.758532   4.218345   2.399927
    11  C    4.814068   3.643044   2.485783   2.816290   1.410673
    12  O    5.066462   4.173455   2.864087   2.592187   2.418493
    13  H    1.099339   2.080844   2.646458   2.628329   4.034336
    14  H    1.099334   2.080856   2.645944   2.627595   4.034207
    15  H    1.095056   2.017612   3.211953   3.689790   4.380485
    16  H    6.946948   5.592826   5.536036   6.626629   4.323958
    17  H    5.741000   4.472233   4.745086   5.943702   3.836367
    18  H    6.948774   5.594559   5.537043   6.627386   4.324720
    19  H    7.360844   5.956726   5.292729   6.047033   3.807437
    20  H    6.960359   5.738022   4.635883   4.891442   3.391221
    21  H    4.304812   3.610893   2.308320   1.717545   2.418037
                    6          7          8          9         10
     6  N    0.000000
     7  C    1.320468   0.000000
     8  C    2.427253   1.505278   0.000000
     9  C    2.376615   1.412991   2.540207   0.000000
    10  C    2.778993   2.418029   3.801584   1.378360   0.000000
    11  C    2.416709   2.771199   4.276312   2.401642   1.406699
    12  O    3.640277   4.098835   5.603941   3.606850   2.358042
    13  H    4.614285   5.912791   6.811175   6.679494   6.312567
    14  H    4.614046   5.912585   6.810927   6.679364   6.312536
    15  H    4.513542   5.794870   6.374959   6.838017   6.779935
    16  H    3.161872   2.162568   1.101133   2.862804   4.161160
    17  H    2.498612   2.137101   1.096775   3.433743   4.555087
    18  H    3.162799   2.162612   1.101123   2.861855   4.160604
    19  H    3.355945   2.173776   2.752496   1.092684   2.146313
    20  H    3.870253   3.423886   4.703643   2.166562   1.091366
    21  H    3.750593   4.489579   5.965486   4.272429   3.163020
                   11         12         13         14         15
    11  C    0.000000
    12  O    1.327638   0.000000
    13  H    5.026133   5.107340   0.000000
    14  H    5.026163   5.107624   1.785439   0.000000
    15  H    5.645266   6.043411   1.801067   1.801089   0.000000
    16  H    4.791173   6.095137   7.401105   7.612154   7.074839
    17  H    4.743914   6.045347   6.371487   6.370825   5.707666
    18  H    4.791367   6.095458   7.613911   7.402780   7.076916
    19  H    3.398288   4.499603   7.752971   7.752840   7.862166
    20  H    2.154524   2.584362   7.156221   7.156262   7.754194
    21  H    1.870848   0.983622   4.282757   4.283362   5.336561
                   16         17         18         19         20
    16  H    0.000000
    17  H    1.786634   0.000000
    18  H    1.775201   1.786690   0.000000
    19  H    2.812997   3.807635   2.811190   0.000000
    20  H    4.951907   5.544981   4.951055   2.508729   0.000000
    21  H    6.521000   6.243057   6.521821   5.252169   3.538610
                   21
    21  H    0.000000
 Stoichiometry    C8H9NO3
 Framework group  C1[X(C8H9NO3)]
 Deg. of freedom    57
 Full point group                 C1      NOp   1
 Largest Abelian subgroup         C1      NOp   1
 Largest concise Abelian subgroup C1      NOp   1
                         Standard orientation:                         
 ---------------------------------------------------------------------
 Center     Atomic      Atomic             Coordinates (Angstroms)
 Number     Number       Type             X           Y           Z
 ---------------------------------------------------------------------
      1          6           0       -3.404656   -1.381592    0.000251
      2          8           0       -1.995168   -1.216458    0.000364
      3          6           0       -1.545672    0.021552   -0.000590
      4          8           0       -2.288030    0.993199   -0.001148
      5          6           0       -0.065815    0.149924   -0.000014
      6          7           0        0.675323   -0.963948   -0.000076
      7          6           0        1.993326   -0.883293   -0.000039
      8          6           0        2.785632   -2.163180   -0.000002
      9          6           0        2.640323    0.372867   -0.000009
     10          6           0        1.895665    1.532764    0.000099
     11          6           0        0.491658    1.445772    0.000184
     12          8           0       -0.225341    2.563150    0.000649
     13          1           0       -3.851537   -0.921043    0.892852
     14          1           0       -3.851379   -0.921359   -0.892587
     15          1           0       -3.582314   -2.462141    0.000452
     16          1           0        3.432772   -2.230690    0.888336
     17          1           0        2.098238   -3.017816   -0.001334
     18          1           0        3.434900   -2.229507   -0.886864
     19          1           0        3.731922    0.421539   -0.000002
     20          1           0        2.358678    2.521045    0.000240
     21          1           0       -1.172995    2.299588    0.001252
 ---------------------------------------------------------------------
 Rotational constants (GHZ):           1.4731598           0.7344274           0.4931510
 Standard basis: def2SVP (5D, 7F)
 There are   225 symmetry adapted cartesian basis functions of A   symmetry.
 There are   213 symmetry adapted basis functions of A   symmetry.
   213 basis functions,   363 primitive gaussians,   225 cartesian basis functions
    44 alpha electrons       44 beta electrons
       nuclear repulsion energy       694.6222557914 Hartrees.
 NAtoms=   21 NActive=   21 NUniq=   21 SFac= 1.00D+00 NAtFMM=   60 NAOKFM=F Big=F
 Integral buffers will be    131072 words long.
 Raffenetti 2 integral format.
 Two-electron integral symmetry is turned on.
 Nuclear repulsion after empirical dispersion term =      694.6126252383 Hartrees.
 One-electron integrals computed using PRISM.
   1 Symmetry operations used in ECPInt.
 ECPInt:  NShTT=    4950 NPrTT=   18138 LenC2=    4758 LenP2D=   12895.
 LDataN:  DoStor=T MaxTD1= 4 Len=   56
 NBasis=   213 RedAO= T EigKep=  5.15D-04  NBF=   213
 NBsUse=   213 1.00D-06 EigRej= -1.00D+00 NBFU=   213
 Initial guess from the checkpoint file:  "12318939_1.chk"
 B after Tr=    -0.000000   -0.000000   -0.000000
         Rot=    1.000000    0.000003    0.000033   -0.000001 Ang=   0.00 deg.
 Requested convergence on RMS density matrix=1.00D-08 within 128 cycles.
 Requested convergence on MAX density matrix=1.00D-06.
 Requested convergence on             energy=1.00D-06.
 No special actions if energy rises.
 SCF Done:  E(RwB97XD) =  -590.092628026     A.U. after    8 cycles
            NFock=  8  Conv=0.71D-08     -V/T= 2.0093
   1 Symmetry operations used in ECPInt.
 ECPInt:  NShTT=    4950 NPrTT=   18138 LenC2=    4758 LenP2D=   12895.
 LDataN:  DoStor=T MaxTD1= 5 Len=  102
 Calling FoFJK, ICntrl=      2127 FMM=F ISym2X=0 I1Cent= 0 IOpClX= 0 NMat=1 NMatS=1 NMatT=0.
 ***** Axes restored to original set *****
 -------------------------------------------------------------------
 Center     Atomic                   Forces (Hartrees/Bohr)
 Number     Number              X              Y              Z
 -------------------------------------------------------------------
      1        6          -0.000004211   -0.000003154   -0.000002268
      2        8           0.000000243    0.000012609   -0.000039095
      3        6           0.000030492   -0.000028317    0.000105629
      4        8          -0.000013610    0.000008417   -0.000000997
      5        6          -0.000021158    0.000013275   -0.000044425
      6        7           0.000017436   -0.000009908   -0.000007014
      7        6          -0.000013301   -0.000001737    0.000000286
      8        6           0.000003906   -0.000002363    0.000002364
      9        6           0.000002626    0.000006359    0.000001325
     10        6           0.000007340   -0.000006927    0.000008041
     11        6           0.000010080    0.000000679    0.000017516
     12        8           0.000012618    0.000000201    0.000020740
     13        1           0.000001301    0.000002081   -0.000000501
     14        1          -0.000001477   -0.000002104    0.000000256
     15        1          -0.000000919    0.000000567   -0.000000249
     16        1          -0.000000200    0.000001306   -0.000000176
     17        1          -0.000000311    0.000001282    0.000000100
     18        1          -0.000001236    0.000001538   -0.000000023
     19        1          -0.000000064   -0.000001602   -0.000003352
     20        1          -0.000001381   -0.000001642   -0.000001869
     21        1          -0.000028173    0.000009440   -0.000056287
 -------------------------------------------------------------------
 Cartesian Forces:  Max     0.000105629 RMS     0.000019285

 GradGradGradGradGradGradGradGradGradGradGradGradGradGradGradGradGradGrad
 Berny optimization.
 Using GEDIIS/GDIIS optimizer.
 FormGI is forming the generalized inverse of G from B-inverse, IUseBI=4.
 Internal  Forces:  Max     0.000056542 RMS     0.000013690
 Search for a local minimum.
 Step number   2 out of a maximum of  101
 All quantities printed in internal units (Hartrees-Bohrs-Radians)
 Mixed Optimization -- En-DIIS/RFO-DIIS
 Swapping is turned off.
 Update second derivatives using D2CorX and points    1    2
 DE=  7.69D-08 DEPred=-1.02D-07 R=-7.55D-01
 Trust test=-7.55D-01 RLast= 3.20D-03 DXMaxT set to 1.50D-01
 ITU= -1  0
     Eigenvalues ---    0.00696   0.01073   0.01427   0.01502   0.01635
     Eigenvalues ---    0.01769   0.02066   0.02139   0.02151   0.02227
     Eigenvalues ---    0.02325   0.02512   0.02788   0.05735   0.07201
     Eigenvalues ---    0.07345   0.10220   0.10648   0.15736   0.16000
     Eigenvalues ---    0.16000   0.16000   0.16000   0.16000   0.16000
     Eigenvalues ---    0.16000   0.16147   0.22471   0.24370   0.24768
     Eigenvalues ---    0.25000   0.25000   0.25000   0.25000   0.25000
     Eigenvalues ---    0.25159   0.31675   0.33437   0.33559   0.33675
     Eigenvalues ---    0.33755   0.33757   0.34042   0.34226   0.34494
     Eigenvalues ---    0.34586   0.40746   0.42591   0.43067   0.43457
     Eigenvalues ---    0.47962   0.50760   0.55711   0.60066   0.60243
     Eigenvalues ---    0.62681   0.93161
 En-DIIS/RFO-DIIS/Sim-DIIS IScMMF=       -3 using points:     2    1
 RFO step:  Lambda=-2.45305082D-07.
 DidBck=T Rises=F RFO-DIIS coefs:    0.31844    0.68156
 Iteration  1 RMS(Cart)=  0.00048239 RMS(Int)=  0.00000015
 Iteration  2 RMS(Cart)=  0.00000032 RMS(Int)=  0.00000001
 Variable       Old X    -DE/DX   Delta X   Delta X   Delta X     New X
                                 (Linear)    (Quad)   (Total)
    R1        2.68176   0.00001   0.00001  -0.00001   0.00000   2.68177
    R2        2.07745   0.00000   0.00000  -0.00000  -0.00000   2.07745
    R3        2.07744  -0.00000  -0.00000   0.00000  -0.00000   2.07744
    R4        2.06936  -0.00000  -0.00002   0.00002   0.00000   2.06936
    R5        2.48893  -0.00001  -0.00001   0.00001  -0.00000   2.48893
    R6        2.31072   0.00002  -0.00004   0.00005   0.00001   2.31073
    R7        2.80703  -0.00001   0.00005  -0.00007  -0.00002   2.80701
    R8        2.52828   0.00001  -0.00004   0.00005   0.00001   2.52829
    R9        2.66578   0.00001  -0.00003   0.00004   0.00001   2.66579
   R10        2.49532  -0.00001  -0.00001   0.00000  -0.00001   2.49532
   R11        2.84456  -0.00000  -0.00004   0.00005   0.00001   2.84457
   R12        2.67017  -0.00000  -0.00006   0.00006   0.00001   2.67017
   R13        2.08084  -0.00000  -0.00002   0.00002   0.00000   2.08084
   R14        2.07260  -0.00000  -0.00001   0.00001   0.00000   2.07260
   R15        2.08082  -0.00000  -0.00001   0.00001   0.00000   2.08082
   R16        2.60472  -0.00000  -0.00000  -0.00000  -0.00000   2.60472
   R17        2.06487  -0.00000  -0.00001   0.00001   0.00000   2.06487
   R18        2.65828   0.00001   0.00003  -0.00002   0.00000   2.65828
   R19        2.06238  -0.00000  -0.00004   0.00005   0.00000   2.06239
   R20        2.50887   0.00002   0.00002  -0.00001   0.00001   2.50888
   R21        1.85878   0.00002  -0.00001   0.00003   0.00002   1.85880
    A1        1.93363  -0.00000  -0.00001   0.00000  -0.00001   1.93362
    A2        1.93365   0.00000   0.00001  -0.00001   0.00000   1.93366
    A3        1.85038   0.00000   0.00004  -0.00004  -0.00000   1.85038
    A4        1.89532  -0.00000   0.00000  -0.00001  -0.00000   1.89532
    A5        1.92547   0.00000  -0.00002   0.00003   0.00001   1.92548
    A6        1.92551  -0.00000  -0.00002   0.00002  -0.00000   1.92551
    A7        2.03570  -0.00000   0.00001  -0.00002  -0.00000   2.03570
    A8        2.14090  -0.00001  -0.00004   0.00002  -0.00001   2.14089
    A9        2.00560   0.00001  -0.00002   0.00004   0.00002   2.00562
   A10        2.13668   0.00000   0.00006  -0.00006  -0.00001   2.13668
   A11        2.07137  -0.00001   0.00001  -0.00002  -0.00001   2.07136
   A12        2.06359   0.00001  -0.00002   0.00004   0.00002   2.06361
   A13        2.14822  -0.00000   0.00002  -0.00002  -0.00000   2.14822
   A14        2.09678   0.00000   0.00002  -0.00001   0.00000   2.09678
   A15        2.06398   0.00000  -0.00001   0.00001   0.00000   2.06399
   A16        2.10754   0.00000  -0.00001   0.00001   0.00000   2.10754
   A17        2.11167  -0.00000   0.00001  -0.00002  -0.00001   2.11166
   A18        1.94066  -0.00000   0.00002  -0.00003  -0.00000   1.94066
   A19        1.90992  -0.00000  -0.00001   0.00000  -0.00000   1.90992
   A20        1.94073  -0.00000   0.00002  -0.00003  -0.00001   1.94073
   A21        1.89816   0.00000  -0.00001   0.00002   0.00000   1.89816
   A22        1.87501   0.00000  -0.00001   0.00002   0.00000   1.87501
   A23        1.89826   0.00000  -0.00001   0.00001   0.00000   1.89826
   A24        2.09524  -0.00000  -0.00001   0.00001  -0.00000   2.09524
   A25        2.09098  -0.00000   0.00001  -0.00001  -0.00000   2.09097
   A26        2.09697   0.00000   0.00000   0.00000   0.00001   2.09698
   A27        2.07965   0.00001   0.00002  -0.00002   0.00001   2.07965
   A28        2.13273  -0.00000  -0.00001   0.00001  -0.00000   2.13272
   A29        2.07081  -0.00000  -0.00001   0.00001  -0.00000   2.07081
   A30        2.03894  -0.00001  -0.00004   0.00004  -0.00000   2.03894
   A31        2.16482   0.00001   0.00003  -0.00002   0.00001   2.16483
   A32        2.07942  -0.00000   0.00001  -0.00002  -0.00001   2.07941
   A33        1.87004   0.00003   0.00022  -0.00018   0.00004   1.87008
    D1       -1.05305   0.00000  -0.00012   0.00019   0.00007  -1.05298
    D2        1.05172   0.00000  -0.00011   0.00018   0.00006   1.05178
    D3        3.14096   0.00000  -0.00011   0.00017   0.00007   3.14102
    D4        0.00037  -0.00001  -0.00030   0.00001  -0.00030   0.00008
    D5        3.14128   0.00002   0.00038  -0.00003   0.00035  -3.14155
    D6        0.00124  -0.00005  -0.00116  -0.00006  -0.00121   0.00003
    D7       -3.14066  -0.00003  -0.00086  -0.00005  -0.00090  -3.14157
    D8       -3.14103  -0.00001  -0.00047  -0.00009  -0.00057   3.14159
    D9        0.00025   0.00000  -0.00017  -0.00009  -0.00026  -0.00001
   D10        3.14118   0.00003   0.00040   0.00001   0.00041   3.14159
   D11       -0.00008   0.00001   0.00008  -0.00000   0.00008   0.00000
   D12       -3.14109  -0.00003  -0.00049  -0.00001  -0.00050  -3.14159
   D13        0.00069  -0.00004  -0.00069  -0.00001  -0.00070  -0.00001
   D14        0.00018  -0.00001  -0.00017  -0.00000  -0.00017   0.00000
   D15       -3.14123  -0.00003  -0.00038  -0.00000  -0.00038   3.14158
   D16        3.14151  -0.00000  -0.00001   0.00000  -0.00001   3.14150
   D17       -0.00006   0.00000   0.00005   0.00000   0.00005  -0.00001
   D18       -2.09596   0.00000   0.00006  -0.00005   0.00001  -2.09595
   D19        0.00128   0.00000   0.00005  -0.00004   0.00001   0.00129
   D20        2.09868   0.00000   0.00005  -0.00003   0.00001   2.09869
   D21        1.04561  -0.00000   0.00000  -0.00005  -0.00005   1.04557
   D22       -3.14034  -0.00000  -0.00000  -0.00004  -0.00004  -3.14038
   D23       -1.04293  -0.00000  -0.00001  -0.00003  -0.00005  -1.04298
   D24        0.00010  -0.00000  -0.00009   0.00000  -0.00008   0.00002
   D25       -3.14157   0.00000  -0.00000  -0.00000  -0.00000  -3.14157
   D26       -3.14147  -0.00000  -0.00003   0.00000  -0.00002  -3.14150
   D27        0.00005   0.00000   0.00006  -0.00000   0.00005   0.00010
   D28        0.00001  -0.00000  -0.00001  -0.00001  -0.00002  -0.00001
   D29        3.14147   0.00001   0.00013   0.00001   0.00013  -3.14158
   D30       -3.14151  -0.00001  -0.00009  -0.00000  -0.00009   3.14158
   D31       -0.00005   0.00000   0.00005   0.00001   0.00006   0.00000
   D32       -0.00013   0.00001   0.00013   0.00001   0.00013   0.00000
   D33        3.14128   0.00002   0.00032   0.00001   0.00033  -3.14157
   D34        3.14158  -0.00000  -0.00000  -0.00001  -0.00001   3.14158
   D35       -0.00019   0.00001   0.00019  -0.00001   0.00019  -0.00000
   D36        0.00047  -0.00004  -0.00052   0.00002  -0.00050  -0.00004
   D37       -3.14093  -0.00006  -0.00073   0.00002  -0.00071   3.14154
         Item               Value     Threshold  Converged?
 Maximum Force            0.000057     0.000450     YES
 RMS     Force            0.000014     0.000300     YES
 Maximum Displacement     0.002520     0.001800     NO 
 RMS     Displacement     0.000482     0.001200     YES
 Predicted change in Energy=-1.226529D-07
 GradGradGradGradGradGradGradGradGradGradGradGradGradGradGradGradGradGrad

                          Input orientation:                          
 ---------------------------------------------------------------------
 Center     Atomic      Atomic             Coordinates (Angstroms)
 Number     Number       Type             X           Y           Z
 ---------------------------------------------------------------------
      1          6           0       -3.404675   -1.381572   -0.000054
      2          8           0       -1.995183   -1.216455   -0.000029
      3          6           0       -1.545674    0.021548   -0.000023
      4          8           0       -2.288036    0.993198    0.000041
      5          6           0       -0.065828    0.149929   -0.000048
      6          7           0        0.675309   -0.963953   -0.000110
      7          6           0        1.993309   -0.883308   -0.000136
      8          6           0        2.785613   -2.163200   -0.000086
      9          6           0        2.640319    0.372849   -0.000113
     10          6           0        1.895671    1.532750   -0.000045
     11          6           0        0.491661    1.445775   -0.000012
     12          8           0       -0.225319    2.563171    0.000033
     13          1           0       -3.851409   -0.921697    0.892969
     14          1           0       -3.851532   -0.920647   -0.892468
     15          1           0       -3.582347   -2.462119   -0.000656
     16          1           0        3.432785   -2.230678    0.888233
     17          1           0        2.098216   -3.017833   -0.001366
     18          1           0        3.434848   -2.229549   -0.886971
     19          1           0        3.731919    0.421507   -0.000155
     20          1           0        2.358694    2.521028   -0.000035
     21          1           0       -1.172999    2.299665    0.000002
 ---------------------------------------------------------------------
                    Distance matrix (angstroms):
                    1          2          3          4          5
     1  C    0.000000
     2  O    1.419130   0.000000
     3  C    2.329084   1.317084   0.000000
     4  O    2.624198   2.228975   1.222786   0.000000
     5  C    3.673336   2.364195   1.485405   2.376829   0.000000
     6  N    4.101302   2.682403   2.429810   3.551318   1.337915
     7  C    5.420932   4.002381   3.652830   4.674526   2.303827
     8  C    6.239440   4.873637   4.851100   5.975346   3.671686
     9  C    6.294438   4.900385   4.200708   4.967244   2.715313
    10  C    6.048714   4.764124   3.758535   4.218355   2.399931
    11  C    4.814076   3.643057   2.485791   2.816300   1.410678
    12  O    5.066488   4.173487   2.864120   2.592222   2.418506
    13  H    1.099339   2.080841   2.646424   2.628360   4.034413
    14  H    1.099334   2.080861   2.645973   2.627527   4.034118
    15  H    1.095057   2.017614   3.211953   3.689778   4.380491
    16  H    6.947007   5.592897   5.535935   6.626467   4.323960
    17  H    5.741008   4.472235   4.745079   5.943701   3.836379
    18  H    6.948724   5.594485   5.537122   6.627541   4.324729
    19  H    7.360847   5.956729   5.292727   6.047040   3.807445
    20  H    6.960367   5.738033   4.635891   4.891458   3.391226
    21  H    4.304867   3.610967   2.308398   1.717604   2.418096
                    6          7          8          9         10
     6  N    0.000000
     7  C    1.320465   0.000000
     8  C    2.427257   1.505281   0.000000
     9  C    2.376616   1.412994   2.540207   0.000000
    10  C    2.778994   2.418030   3.801584   1.378358   0.000000
    11  C    2.416717   2.771204   4.276320   2.401645   1.406701
    12  O    3.640293   4.098844   5.603953   3.606853   2.358043
    13  H    4.614168   5.912684   6.810942   6.679519   6.312741
    14  H    4.614160   5.912683   6.811166   6.679338   6.312362
    15  H    4.513550   5.794876   6.374972   6.838027   6.779945
    16  H    3.161870   2.162568   1.101134   2.862781   4.161148
    17  H    2.498617   2.137102   1.096775   3.433745   4.555089
    18  H    3.162801   2.162609   1.101124   2.861865   4.160601
    19  H    3.355945   2.173777   2.752490   1.092684   2.146315
    20  H    3.870256   3.423888   4.703642   2.166561   1.091368
    21  H    3.750659   4.489634   5.965548   4.272471   3.163051
                   11         12         13         14         15
    11  C    0.000000
    12  O    1.327642   0.000000
    13  H    5.026390   5.107853   0.000000
    14  H    5.025909   5.107149   1.785437   0.000000
    15  H    5.645280   6.043441   1.801072   1.801089   0.000000
    16  H    4.791190   6.095213   7.400874   7.612382   7.075011
    17  H    4.743925   6.045364   6.371158   6.371166   5.707681
    18  H    4.791352   6.095389   7.613685   7.403012   7.076770
    19  H    3.398293   4.499607   7.752982   7.752828   7.862175
    20  H    2.154525   2.584356   7.156478   7.156009   7.754207
    21  H    1.870887   0.983632   4.283508   4.282692   5.336623
                   16         17         18         19         20
    16  H    0.000000
    17  H    1.786638   0.000000
    18  H    1.775205   1.786693   0.000000
    19  H    2.812970   3.807630   2.811190   0.000000
    20  H    4.951909   5.544983   4.951035   2.508733   0.000000
    21  H    6.521212   6.243127   6.521714   5.252209   3.538623
                   21
    21  H    0.000000
 Stoichiometry    C8H9NO3
 Framework group  C1[X(C8H9NO3)]
 Deg. of freedom    57
 Full point group                 C1      NOp   1
 Largest Abelian subgroup         C1      NOp   1
 Largest concise Abelian subgroup C1      NOp   1
                         Standard orientation:                         
 ---------------------------------------------------------------------
 Center     Atomic      Atomic             Coordinates (Angstroms)
 Number     Number       Type             X           Y           Z
 ---------------------------------------------------------------------
      1          6           0       -3.404664   -1.381582   -0.000009
      2          8           0       -1.995173   -1.216461    0.000016
      3          6           0       -1.545667    0.021544    0.000022
      4          8           0       -2.288033    0.993192    0.000086
      5          6           0       -0.065821    0.149929   -0.000003
      6          7           0        0.675319   -0.963951   -0.000065
      7          6           0        1.993318   -0.883301   -0.000091
      8          6           0        2.785627   -2.163190   -0.000041
      9          6           0        2.640325    0.372858   -0.000068
     10          6           0        1.895673    1.532756   -0.000000
     11          6           0        0.491663    1.445777    0.000033
     12          8           0       -0.225321    2.563171    0.000078
     13          1           0       -3.851399   -0.921708    0.893014
     14          1           0       -3.851522   -0.920659   -0.892423
     15          1           0       -3.582333   -2.462130   -0.000611
     16          1           0        3.432799   -2.230667    0.888278
     17          1           0        2.098233   -3.017826   -0.001321
     18          1           0        3.434862   -2.229538   -0.886926
     19          1           0        3.731925    0.421519   -0.000110
     20          1           0        2.358692    2.521036    0.000010
     21          1           0       -1.172999    2.299661    0.000047
 ---------------------------------------------------------------------
 Rotational constants (GHZ):           1.4731509           0.7344266           0.4931496
 Standard basis: def2SVP (5D, 7F)
 There are   225 symmetry adapted cartesian basis functions of A   symmetry.
 There are   213 symmetry adapted basis functions of A   symmetry.
   213 basis functions,   363 primitive gaussians,   225 cartesian basis functions
    44 alpha electrons       44 beta electrons
       nuclear repulsion energy       694.6211115572 Hartrees.
 NAtoms=   21 NActive=   21 NUniq=   21 SFac= 1.00D+00 NAtFMM=   60 NAOKFM=F Big=F
 Integral buffers will be    131072 words long.
 Raffenetti 2 integral format.
 Two-electron integral symmetry is turned on.
 Nuclear repulsion after empirical dispersion term =      694.6114809831 Hartrees.
 One-electron integrals computed using PRISM.
   1 Symmetry operations used in ECPInt.
 ECPInt:  NShTT=    4950 NPrTT=   18138 LenC2=    4758 LenP2D=   12895.
 LDataN:  DoStor=T MaxTD1= 4 Len=   56
 NBasis=   213 RedAO= T EigKep=  5.15D-04  NBF=   213
 NBsUse=   213 1.00D-06 EigRej= -1.00D+00 NBFU=   213
 Initial guess from the checkpoint file:  "12318939_1.chk"
 B after Tr=    -0.000000    0.000000    0.000000
         Rot=    1.000000   -0.000006   -0.000023    0.000002 Ang=  -0.00 deg.
 Requested convergence on RMS density matrix=1.00D-08 within 128 cycles.
 Requested convergence on MAX density matrix=1.00D-06.
 Requested convergence on             energy=1.00D-06.
 No special actions if energy rises.
 SCF Done:  E(RwB97XD) =  -590.092628148     A.U. after    7 cycles
            NFock=  7  Conv=0.81D-08     -V/T= 2.0093
   1 Symmetry operations used in ECPInt.
 ECPInt:  NShTT=    4950 NPrTT=   18138 LenC2=    4758 LenP2D=   12895.
 LDataN:  DoStor=T MaxTD1= 5 Len=  102
 Calling FoFJK, ICntrl=      2127 FMM=F ISym2X=0 I1Cent= 0 IOpClX= 0 NMat=1 NMatS=1 NMatT=0.
 ***** Axes restored to original set *****
 -------------------------------------------------------------------
 Center     Atomic                   Forces (Hartrees/Bohr)
 Number     Number              X              Y              Z
 -------------------------------------------------------------------
      1        6          -0.000003213   -0.000003215    0.000003260
      2        8           0.000000966    0.000009855   -0.000005558
      3        6           0.000019065   -0.000016735    0.000007063
      4        8          -0.000008088    0.000005242   -0.000002867
      5        6          -0.000011812    0.000010760   -0.000001164
      6        7           0.000014024   -0.000005783   -0.000000545
      7        6          -0.000009916   -0.000000706    0.000000368
      8        6           0.000002754   -0.000000488    0.000000579
      9        6           0.000001717    0.000003767    0.000000315
     10        6           0.000007003   -0.000004376   -0.000000206
     11        6           0.000002981   -0.000001877   -0.000000165
     12        8           0.000005125   -0.000001697   -0.000001216
     13        1          -0.000000092    0.000000591   -0.000001188
     14        1           0.000000081   -0.000001031   -0.000000588
     15        1          -0.000000717    0.000001184    0.000000379
     16        1          -0.000000712    0.000001123   -0.000000965
     17        1           0.000000033    0.000001145    0.000000107
     18        1          -0.000000971    0.000000818    0.000000332
     19        1          -0.000000689   -0.000001114    0.000000015
     20        1          -0.000001938   -0.000002630    0.000000030
     21        1          -0.000015600    0.000005167    0.000002014
 -------------------------------------------------------------------
 Cartesian Forces:  Max     0.000019065 RMS     0.000005599

 GradGradGradGradGradGradGradGradGradGradGradGradGradGradGradGradGradGrad
 Berny optimization.
 Using GEDIIS/GDIIS optimizer.
 FormGI is forming the generalized inverse of G from B-inverse, IUseBI=4.
 Internal  Forces:  Max     0.000017095 RMS     0.000003570
 Search for a local minimum.
 Step number   3 out of a maximum of  101
 All quantities printed in internal units (Hartrees-Bohrs-Radians)
 Mixed Optimization -- En-DIIS/RFO-DIIS
 Swapping is turned off.
 Update second derivatives using D2CorX and points    2    3
 DE= -1.22D-07 DEPred=-1.23D-07 R= 9.94D-01
 Trust test= 9.94D-01 RLast= 2.23D-03 DXMaxT set to 1.50D-01
 ITU=  0 -1  0
     Eigenvalues ---    0.00696   0.01081   0.01424   0.01503   0.01618
     Eigenvalues ---    0.01765   0.02066   0.02139   0.02151   0.02227
[...]
 Alpha virt. eigenvalues --    0.54112   0.54242   0.55401   0.56266   0.56283
 Alpha virt. eigenvalues --    0.56875   0.57300   0.59267   0.59516   0.59980
 Alpha virt. eigenvalues --    0.61254   0.62127   0.64378   0.67106   0.68336
 Alpha virt. eigenvalues --    0.68394   0.70037   0.70378   0.71756   0.72849
 Alpha virt. eigenvalues --    0.73320   0.74359   0.74386   0.76065   0.78112
 Alpha virt. eigenvalues --    0.79010   0.80386   0.80623   0.84373   0.85943
 Alpha virt. eigenvalues --    0.85992   0.87284   0.88890   0.89253   0.90244
 Alpha virt. eigenvalues --    0.91761   0.92590   0.94282   0.94644   0.96747
 Alpha virt. eigenvalues --    0.98789   0.99841   1.00640   1.02125   1.04621
 Alpha virt. eigenvalues --    1.05267   1.06093   1.06385   1.10160   1.10775
 Alpha virt. eigenvalues --    1.12151   1.13134   1.13613   1.18075   1.19189
 Alpha virt. eigenvalues --    1.19903   1.21639   1.27040   1.28564   1.30205
 Alpha virt. eigenvalues --    1.32331   1.33771   1.36613   1.37894   1.38032
 Alpha virt. eigenvalues --    1.43418   1.45077   1.45893   1.46662   1.48282
 Alpha virt. eigenvalues --    1.49857   1.51851   1.54645   1.55687   1.55946
 Alpha virt. eigenvalues --    1.57031   1.58084   1.58325   1.60288   1.60525
 Alpha virt. eigenvalues --    1.61033   1.62873   1.63875   1.65036   1.65194
 Alpha virt. eigenvalues --    1.66027   1.67246   1.69695   1.69801   1.72034
 Alpha virt. eigenvalues --    1.73598   1.75002   1.76969   1.80183   1.80577
 Alpha virt. eigenvalues --    1.82988   1.85426   1.86422   1.87317   1.90224
 Alpha virt. eigenvalues --    1.90927   1.91846   1.93832   1.94871   1.99625
 Alpha virt. eigenvalues --    1.99802   2.01940   2.03859   2.05169   2.05665
 Alpha virt. eigenvalues --    2.07985   2.09685   2.09807   2.10507   2.11091
 Alpha virt. eigenvalues --    2.15894   2.16846   2.17803   2.18380   2.20509
 Alpha virt. eigenvalues --    2.21753   2.23840   2.26378   2.26947   2.27778
 Alpha virt. eigenvalues --    2.30347   2.31798   2.33675   2.34271   2.34546
 Alpha virt. eigenvalues --    2.38862   2.40361   2.40921   2.42900   2.45112
 Alpha virt. eigenvalues --    2.45481   2.47057   2.49432   2.50773   2.53519
 Alpha virt. eigenvalues --    2.53683   2.54569   2.57389   2.58564   2.60268
 Alpha virt. eigenvalues --    2.61639   2.61695   2.63573   2.63837   2.65155
 Alpha virt. eigenvalues --    2.67307   2.69693   2.71977   2.73121   2.75184
 Alpha virt. eigenvalues --    2.77075   2.77665   2.80959   2.81634   2.83905
 Alpha virt. eigenvalues --    2.84342   2.86057   2.87991   2.89529   2.93598
 Alpha virt. eigenvalues --    2.94062   2.95186   2.97412   2.98539   2.99989
 Alpha virt. eigenvalues --    3.00872   3.02786   3.03965   3.05580   3.06221
 Alpha virt. eigenvalues --    3.09930   3.11456   3.12197   3.13731   3.15305
 Alpha virt. eigenvalues --    3.16621   3.17456   3.17694   3.19066   3.19858
 Alpha virt. eigenvalues --    3.20129   3.22029   3.23034   3.23485   3.26542
 Alpha virt. eigenvalues --    3.26816   3.27851   3.29855   3.31158   3.32803
 Alpha virt. eigenvalues --    3.33489   3.35116   3.35256   3.36138   3.37648
 Alpha virt. eigenvalues --    3.38033   3.39235   3.41440   3.41468   3.42349
 Alpha virt. eigenvalues --    3.43221   3.44236   3.45193   3.46225   3.47792
 Alpha virt. eigenvalues --    3.51099   3.51568   3.51736   3.55584   3.56450
 Alpha virt. eigenvalues --    3.56980   3.59481   3.60991   3.63090   3.64258
 Alpha virt. eigenvalues --    3.64354   3.67316   3.69286   3.70573   3.75385
 Alpha virt. eigenvalues --    3.78218   3.79956   3.81928   3.83422   3.84000
 Alpha virt. eigenvalues --    3.87076   3.87300   3.92153   3.96660   3.99760
 Alpha virt. eigenvalues --    4.02545   4.04972   4.07094   4.10753   4.11819
 Alpha virt. eigenvalues --    4.15268   4.19115   4.23042   4.23219   4.23524
 Alpha virt. eigenvalues --    4.23900   4.29023   4.31623   4.35194   4.36913
 Alpha virt. eigenvalues --    4.41408   4.42893   4.44136   4.46091   4.48153
 Alpha virt. eigenvalues --    4.48572   4.51140   4.54445   4.61107   4.62454
 Alpha virt. eigenvalues --    4.65062   4.70169   4.71003   4.74920   4.80790
 Alpha virt. eigenvalues --    4.87415   4.90477   4.91512   5.01321   5.02257
 Alpha virt. eigenvalues --    5.06927   5.11995   5.17387   5.22782   5.22912
 Alpha virt. eigenvalues --    5.24813   5.28402   5.30312   5.35940   5.36795
 Alpha virt. eigenvalues --    5.38197   5.43970   5.44157   5.51546   5.57177
 Alpha virt. eigenvalues --    5.58537   5.60437   5.63937   5.70994   5.74773
 Alpha virt. eigenvalues --    5.76544   5.89785   5.93087   5.95638   5.98775
 Alpha virt. eigenvalues --    6.09620   6.10572   6.14670   6.24702   6.25451
 Alpha virt. eigenvalues --    6.30019   6.41754   6.44063   6.51723   6.54240
 Alpha virt. eigenvalues --    6.65881   6.73765   6.76276   6.82543   6.82607
 Alpha virt. eigenvalues --    6.84792   6.91652   6.97518   7.09504   7.10920
 Alpha virt. eigenvalues --    7.18523   7.26143   7.34801   7.54148   7.56893
 Alpha virt. eigenvalues --   22.43747  22.48510  22.55451  22.81879  22.94765
 Alpha virt. eigenvalues --   23.27073  23.32757  23.60182  32.81276  43.99192
 Alpha virt. eigenvalues --   44.12186  44.29504
          Condensed to atoms (all electrons):
               1          2          3          4          5          6
     1  C    4.780257   0.221044  -0.043477   0.003291   0.004640  -0.000228
     2  O    0.221044   7.842208   0.440915  -0.071719  -0.090947  -0.022044
     3  C   -0.043477   0.440915   4.499926   0.509119   0.269928  -0.024028
     4  O    0.003291  -0.071719   0.509119   8.062985  -0.077440   0.003101
     5  C    0.004640  -0.090947   0.269928  -0.077440   5.398414   0.433893
     6  N   -0.000228  -0.022044  -0.024028   0.003101   0.433893   6.472571
     7  C   -0.000014  -0.000674  -0.003994   0.000246  -0.115643   0.593681
     8  C   -0.000003  -0.000112  -0.002393  -0.000005   0.004492  -0.059000
     9  C    0.000034  -0.000290   0.001839  -0.000830  -0.045100  -0.082288
    10  C   -0.000062   0.000356  -0.000410   0.006738  -0.032540  -0.015521
    11  C    0.000575   0.004846  -0.043637   0.007814   0.291732  -0.045753
    12  O    0.000220  -0.000353  -0.002356  -0.052002  -0.071087   0.003496
    13  H    0.417730  -0.033364  -0.008867   0.005567  -0.003100  -0.000125
    14  H    0.417727  -0.033363  -0.008881   0.005581  -0.003102  -0.000125
    15  H    0.397985  -0.031307   0.003149   0.001265   0.003019  -0.000020
    16  H    0.000000  -0.000001   0.000029  -0.000000  -0.000341  -0.000111
    17  H   -0.000002   0.000073   0.000066   0.000003  -0.000138   0.009546
    18  H    0.000000  -0.000001   0.000029  -0.000000  -0.000341  -0.000092
    19  H    0.000000  -0.000001  -0.000000  -0.000005  -0.002060   0.006628
    20  H   -0.000002   0.000004  -0.000315   0.000119   0.013865  -0.001165
    21  H    0.000042   0.000584  -0.013169   0.053557  -0.015473   0.000099
               7          8          9         10         11         12
     1  C   -0.000014  -0.000003   0.000034  -0.000062   0.000575   0.000220
     2  O   -0.000674  -0.000112  -0.000290   0.000356   0.004846  -0.000353
     3  C   -0.003994  -0.002393   0.001839  -0.000410  -0.043637  -0.002356
     4  O    0.000246  -0.000005  -0.000830   0.006738   0.007814  -0.052002
     5  C   -0.115643   0.004492  -0.045100  -0.032540   0.291732  -0.071087
     6  N    0.593681  -0.059000  -0.082288  -0.015521  -0.045753   0.003496
     7  C    4.878554   0.276792   0.431195  -0.026857  -0.014277   0.001064
     8  C    0.276792   5.000133  -0.077575   0.005453   0.000159   0.000061
     9  C    0.431195  -0.077575   5.033589   0.493881   0.001814   0.001488
    10  C   -0.026857   0.005453   0.493881   4.954881   0.475458  -0.071141
    11  C   -0.014277   0.000159   0.001814   0.475458   4.774831   0.381998
    12  O    0.001064   0.000061   0.001488  -0.071141   0.381998   7.912187
    13  H   -0.000005  -0.000000  -0.000001   0.000001   0.000116  -0.000005
    14  H   -0.000005  -0.000000  -0.000001   0.000001   0.000116  -0.000005
    15  H   -0.000010   0.000001   0.000004  -0.000008  -0.000011   0.000003
    16  H   -0.039469   0.401241   0.003771   0.000038   0.000139  -0.000002
    17  H   -0.061303   0.430174   0.007035   0.000114   0.000073  -0.000004
    18  H   -0.039619   0.401400   0.003775   0.000050   0.000137  -0.000002
    19  H   -0.031979   0.002054   0.406696  -0.047399   0.010520  -0.000045
    20  H    0.004872  -0.000267  -0.045486   0.429806  -0.050694   0.005798
    21  H    0.000298   0.000008  -0.000685   0.007153  -0.014645   0.301861
              13         14         15         16         17         18
     1  C    0.417730   0.417727   0.397985   0.000000  -0.000002   0.000000
     2  O   -0.033364  -0.033363  -0.031307  -0.000001   0.000073  -0.000001
     3  C   -0.008867  -0.008881   0.003149   0.000029   0.000066   0.000029
     4  O    0.005567   0.005581   0.001265  -0.000000   0.000003  -0.000000
     5  C   -0.003100  -0.003102   0.003019  -0.000341  -0.000138  -0.000341
     6  N   -0.000125  -0.000125  -0.000020  -0.000111   0.009546  -0.000092
     7  C   -0.000005  -0.000005  -0.000010  -0.039469  -0.061303  -0.039619
     8  C   -0.000000  -0.000000   0.000001   0.401241   0.430174   0.401400
     9  C   -0.000001  -0.000001   0.000004   0.003771   0.007035   0.003775
    10  C    0.000001   0.000001  -0.000008   0.000038   0.000114   0.000050
    11  C    0.000116   0.000116  -0.000011   0.000139   0.000073   0.000137
    12  O   -0.000005  -0.000005   0.000003  -0.000002  -0.000004  -0.000002
    13  H    0.548653  -0.037233  -0.022609   0.000000  -0.000000  -0.000000
    14  H   -0.037233   0.548633  -0.022605  -0.000000  -0.000000   0.000000
    15  H   -0.022609  -0.022605   0.531053   0.000000  -0.000000   0.000000
    16  H    0.000000  -0.000000   0.000000   0.561265  -0.016903  -0.033177
    17  H   -0.000000  -0.000000  -0.000000  -0.016903   0.506067  -0.016916
    18  H   -0.000000   0.000000   0.000000  -0.033177  -0.016916   0.561258
    19  H    0.000000   0.000000   0.000000  -0.000768  -0.000415  -0.000774
    20  H   -0.000000  -0.000000   0.000000   0.000001   0.000014   0.000001
    21  H   -0.000015  -0.000014   0.000001  -0.000000   0.000000  -0.000000
              19         20         21
     1  C    0.000000  -0.000002   0.000042
     2  O   -0.000001   0.000004   0.000584
     3  C   -0.000000  -0.000315  -0.013169
     4  O   -0.000005   0.000119   0.053557
     5  C   -0.002060   0.013865  -0.015473
     6  N    0.006628  -0.001165   0.000099
     7  C   -0.031979   0.004872   0.000298
     8  C    0.002054  -0.000267   0.000008
     9  C    0.406696  -0.045486  -0.000685
    10  C   -0.047399   0.429806   0.007153
    11  C    0.010520  -0.050694  -0.014645
    12  O   -0.000045   0.005798   0.301861
    13  H    0.000000  -0.000000  -0.000015
    14  H    0.000000  -0.000000  -0.000014
    15  H    0.000000   0.000000   0.000001
    16  H   -0.000768   0.000001  -0.000000
    17  H   -0.000415   0.000014   0.000000
    18  H   -0.000774   0.000001  -0.000000
    19  H    0.530926  -0.007147   0.000017
    20  H   -0.007147   0.508938  -0.000216
    21  H    0.000017  -0.000216   0.321450
 Mulliken charges:
               1
     1  C   -0.199757
     2  O   -0.225855
     3  C    0.426526
     4  O   -0.457385
     5  C    0.037330
     6  N   -0.272514
     7  C    0.147145
     8  C   -0.382614
     9  C   -0.132867
    10  C   -0.179991
    11  C    0.218686
    12  O   -0.411176
    13  H    0.133258
    14  H    0.133276
    15  H    0.140089
    16  H    0.124287
    17  H    0.142517
    18  H    0.124273
    19  H    0.133752
    20  H    0.141873
    21  H    0.359147
 Sum of Mulliken charges =  -0.00000
 Mulliken charges with hydrogens summed into heavy atoms:
               1
     1  C    0.206866
     2  O   -0.225855
     3  C    0.426526
     4  O   -0.457385
     5  C    0.037330
     6  N   -0.272514
     7  C    0.147145
     8  C    0.008462
     9  C    0.000885
    10  C   -0.038118
    11  C    0.218686
    12  O   -0.052029
 Electronic spatial extent (au):  <R**2>=           2218.2866
 Charge=              0.0000 electrons
 Dipole moment (field-independent basis, Debye):
    X=              0.7870    Y=             -1.2587    Z=             -0.0001  Tot=              1.4845
 Quadrupole moment (field-independent basis, Debye-Ang):
   XX=            -54.8029   YY=            -72.0438   ZZ=            -69.7981
   XY=              5.4185   XZ=              0.0006   YZ=             -0.0005
 Traceless Quadrupole moment (field-independent basis, Debye-Ang):
   XX=             10.7454   YY=             -6.4956   ZZ=             -4.2498
   XY=              5.4185   XZ=              0.0006   YZ=             -0.0005
 Octapole moment (field-independent basis, Debye-Ang**2):
  XXX=            -18.4581  YYY=             -7.9879  ZZZ=              0.0049  XYY=             -4.9957
  XXY=            -18.6120  XXZ=             -0.0032  XZZ=            -11.4343  YZZ=              0.1759
  YYZ=             -0.0024  XYZ=             -0.0010
 Hexadecapole moment (field-independent basis, Debye-Ang**3):
 XXXX=          -1697.2053 YYYY=           -943.1686 ZZZZ=            -83.0044 XXXY=             83.2985
 XXXZ=             -0.0018 YYYX=             19.8719 YYYZ=              0.0015 ZZZX=              0.0172
 ZZZY=             -0.0176 XXYY=           -417.7966 XXZZ=           -324.6103 YYZZ=           -173.0195
 XXYZ=             -0.0071 YYXZ=              0.0137 ZZXY=             -5.0953
 N-N= 6.946114809831D+02 E-N=-2.770227787899D+03  KE= 5.879358681982D+02
 Breneman (CHELPG) radii used.
 Read replacement radii for each type of atom:
 Atom Element Radius
    1     6    1.50
    2     8    1.70
    3     6    1.50
    4     8    1.70
    5     6    1.50
    6     7    1.70
    7     6    1.50
    8     6    1.50
    9     6    1.50
   10     6    1.50
   11     6    1.50
   12     8    1.70
   13     1    1.45
   14     1    1.45
   15     1    1.45
   16     1    1.45
   17     1    1.45
   18     1    1.45
   19     1    1.45
   20     1    1.45
   21     1    1.45
 Generate Potential Derived Charges using the Breneman model, NDens= 1.
 Grid spacing= 0.300 Box extension= 2.800
 NStep X,Y,Z=   45     39     26   Total possible points=       45630
 Number of Points to Fit=   14021

 **********************************************************************

            Electrostatic Properties Using The SCF Density.

 **********************************************************************

       Atomic Center    1 is at  -3.404664 -1.381582 -0.000009
       Atomic Center    2 is at  -1.995173 -1.216461  0.000016
       Atomic Center    3 is at  -1.545667  0.021544  0.000022
       Atomic Center    4 is at  -2.288033  0.993192  0.000086
       Atomic Center    5 is at  -0.065821  0.149929 -0.000003
       Atomic Center    6 is at   0.675319 -0.963951 -0.000065
       Atomic Center    7 is at   1.993318 -0.883301 -0.000091
       Atomic Center    8 is at   2.785627 -2.163190 -0.000041
       Atomic Center    9 is at   2.640325  0.372858 -0.000068
       Atomic Center   10 is at   1.895673  1.532756 -0.000000
       Atomic Center   11 is at   0.491663  1.445777  0.000033
       Atomic Center   12 is at  -0.225321  2.563171  0.000078
       Atomic Center   13 is at  -3.851399 -0.921708  0.893014
       Atomic Center   14 is at  -3.851522 -0.920659 -0.892423
       Atomic Center   15 is at  -3.582333 -2.462130 -0.000611
       Atomic Center   16 is at   3.432799 -2.230667  0.888278
       Atomic Center   17 is at   2.098233 -3.017826 -0.001321
       Atomic Center   18 is at   3.434862 -2.229538 -0.886926
       Atomic Center   19 is at   3.731925  0.421519 -0.000110
       Atomic Center   20 is at   2.358692  2.521036  0.000010
       Atomic Center   21 is at  -1.172999  2.299661  0.000047
   14021 points will be used for fitting atomic charges
 Fitting point charges to electrostatic potential
 Charges from ESP fit, RMS=   0.00308 RRMS=   0.24406:
 ESP charges:
               1
     1  C    0.017675
     2  O   -0.302115
     3  C    0.675245
     4  O   -0.555788
     5  C    0.108022
     6  N   -0.629274
     7  C    0.605045
     8  C   -0.317063
     9  C   -0.396728
    10  C    0.020010
    11  C    0.176666
    12  O   -0.525502
    13  H    0.064342
    14  H    0.064353
    15  H    0.075455
    16  H    0.073332
    17  H    0.094859
    18  H    0.073255
    19  H    0.153825
    20  H    0.117617
    21  H    0.406768
 Sum of ESP charges =  -0.00000
 ESP charges with hydrogens summed into heavy atoms:
               1
     1  C    0.221825
     2  O   -0.302115
     3  C    0.675245
     4  O   -0.555788
     5  C    0.108022
     6  N   -0.629274
     7  C    0.605045
     8  C   -0.075617
     9  C   -0.242902
    10  C    0.137627
    11  C    0.176666
    12  O   -0.118734
 Charge=  -0.00000 Dipole=     0.8059    -1.1991    -0.0001 Tot=     1.4448
 -----------------------------------------------------------------

              Electrostatic Properties (Atomic Units)

 -----------------------------------------------------------------
    Center     Electric         -------- Electric Field --------
               Potential          X             Y             Z
 -----------------------------------------------------------------
    1 Atom    -14.707310
    2 Atom    -22.302116
    3 Atom    -14.629526
    4 Atom    -22.362336
    5 Atom    -14.722794
    6 Atom    -18.393119
    7 Atom    -14.726355
    8 Atom    -14.770449
    9 Atom    -14.750660
   10 Atom    -14.751039
   11 Atom    -14.688225
   12 Atom    -22.331656
   13 Atom     -1.099213
   14 Atom     -1.099214
   15 Atom     -1.097142
   16 Atom     -1.109784
   17 Atom     -1.116917
   18 Atom     -1.109786
   19 Atom     -1.087171
   20 Atom     -1.085387
   21 Atom     -0.982151
 -----------------------------------------------------------------
 Unable to Open any file for archive entry.
 1\1\GINC-NOTCH305\SP\RwB97XD\def2TZVP\C8H9N1O3\U6053008\12-Jul-2024\0\
 \#N Guess=Read Geom=Check Integral(Ultrafine) Density Pop=(ChelpG,Read
 Radii) NMR wB97XD def2TZVP\\12318939_1\\0,1\C,0,-3.4046753673,-1.38157
 15554,-0.0000544616\O,0,-1.995183493,-1.2164551046,-0.0000285304\C,0,-
 1.5456741211,0.0215483933,-0.0000230168\O,0,-2.2880361862,0.9931984694
 ,0.0000406418\C,0,-0.0658277201,0.1499290213,-0.0000480365\N,0,0.67530
 88531,-0.9639533349,-0.0001098346\C,0,1.9933087292,-0.8833075873,-0.00
 01355888\C,0,2.7856129076,-2.1631995831,-0.0000859208\C,0,2.6403189176
 ,0.3728490178,-0.0001130779\C,0,1.8956706654,1.5327499069,-0.000045336
 4\C,0,0.4916612182,1.4457753566,-0.0000118631\O,0,-0.2253192424,2.5631
 707553,0.000032904\H,0,-3.8514087917,-0.9216966226,0.8929685978\H,0,-3
 .8515322579,-0.9206473796,-0.8924680787\H,0,-3.5823474748,-2.462118824
 9,-0.0006563553\H,0,3.432785223,-2.2306782035,0.8882330264\H,0,2.09821
 61631,-3.0178332058,-0.001366237\H,0,3.4348479306,-2.2295491018,-0.886
 9706955\H,0,3.7319192717,0.4215068422,-0.0001545272\H,0,2.3586935149,2
 .5210282041,-0.0000352905\H,0,-1.1729987399,2.2996645366,0.0000016811\
 \Version=ES64L-G16RevC.01\State=1-A\HF=-590.7451669\RMSD=1.280e-09\Dip
 ole=0.3096185,-0.4952253,-0.0000338\Quadrupole=7.9889366,-4.8293136,-3
 .159623,4.0284613,0.0004806,-0.0003515\PG=C01 [X(C8H9N1O3)]\\@
 The archive entry for this job was punched.


 TO BEHOLD HARMS OF OUR OWN HANDS DOING,
 WHERE NONE BESIDE US WROUGHT,
 CAUSES SHARP RUING...

                                         SOPHOCLES
 Job cpu time:       0 days  0 hours 39 minutes 30.0 seconds.
 Elapsed time:       0 days  0 hours  2 minutes 35.2 seconds.
 File lengths (MBytes):  RWF=    119 Int=      0 D2E=      0 Chk=     18 Scr=      2
 Normal termination of Gaussian 16 at Fri Jul 12 13:19:48 2024.
