 Entering Gaussian System, Link 0=g16
 Input=12318939_2.com
 Output=12318939_2.log
 Initial command:
 /uufs/chpc.utah.edu/sys/installdir/gaussian16/C01/AVX/g16/l1.exe "/scratch/general/vast/u6053008/1287103-notchpeak.peaks/Gau-1938806.inp" -scrdir="/scratch/general/vast/u6053008/1287103-notchpeak.peaks/"
 Entering Link 1 = /uufs/chpc.utah.edu/sys/installdir/gaussian16/C01/AVX/g16/l1.exe PID=   1938807.
  
 Copyright (c) 1988-2019, Gaussian, Inc.  All Rights Reserved.
  
 This is part of the Gaussian(R) 16 program.  It is based on
 the Gaussian(R) 09 system (copyright 2009, Gaussian, Inc.),
 the Gaussian(R) 03 system (copyright 2003, Gaussian, Inc.),
 the Gaussian(R) 98 system (copyright 1998, Gaussian, Inc.),
 the Gaussian(R) 94 system (copyright 1995, Gaussian, Inc.),
 the Gaussian 92(TM) system (copyright 1992, Gaussian, Inc.),
 the Gaussian 90(TM) system (copyright 1990, Gaussian, Inc.),
 the Gaussian 88(TM) system (copyright 1988, Gaussian, Inc.),
 the Gaussian 86(TM) system (copyright 1986, Carnegie Mellon
 University), and the Gaussian 82(TM) system (copyright 1983,
 Carnegie Mellon University). Gaussian is a federally registered
 trademark of Gaussian, Inc.
  
 This software contains proprietary and confidential information,
 including trade secrets, belonging to Gaussian, Inc.
  
 This software is provided under written license and may be
 used, copied, transmitted, or stored only in accord with that
 written license.
  
 The following legend is applicable only to US Government
 contracts under FAR:
  
                    RESTRICTED RIGHTS LEGEND
  
 Use, reproduction and disclosure by the US Government is
 subject to restrictions as set forth in subparagraphs (a)
 and (c) of the Commercial Computer Software - Restricted
 Rights clause in FAR 52.227-19.
  
 Gaussian, Inc.
 340 Quinnipiac St., Bldg. 40, Wallingford CT 06492
  
  
 ---------------------------------------------------------------
 Warning -- This program may not be used in any manner that
 competes with the business of Gaussian, Inc. or will provide
 assistance to any competitor of Gaussian, Inc.  The licensee
 of this program is prohibited from giving any competitor of
 Gaussian, Inc. access to this program.  By using this program,
 the user acknowledges that Gaussian, Inc. is engaged in the
 business of creating and licensing software in the field of
 computational chemistry and represents and warrants to the
 licensee that it is not a competitor of Gaussian, Inc. and that
 it will not use this program in any manner prohibited above.
 ---------------------------------------------------------------
  

 Cite this work as:
 Gaussian 16, Revision C.01,
 M. J. Frisch, G. W. Trucks, H. B. Schlegel, G. E. Scuseria, 
 M. A. Robb, J. R. Cheeseman, G. Scalmani, V. Barone, 
 G. A. Petersson, H. Nakatsuji, X. Li, M. Caricato, A. V. Marenich, 
 J. Bloino, B. G. Janesko, R. Gomperts, B. Mennucci, H. P. Hratchian, 
 J. V. Ortiz, A. F. Izmaylov, J. L. Sonnenberg, D. Williams-Young, 
 F. Ding, F. Lipparini, F. Egidi, J. Goings, B. Peng, A. Petrone, 
 T. Henderson, D. Ranasinghe, V. G. Zakrzewski, J. Gao, N. Rega, 
 G. Zheng, W. Liang, M. Hada, M. Ehara, K. Toyota, R. Fukuda, 
 J. Hasegawa, M. Ishida, T. Nakajima, Y. Honda, O. Kitao, H. Nakai, 
 T. Vreven, K. Throssell, J. A. Montgomery, Jr., J. E. Peralta, 
 F. Ogliaro, M. J. Bearpark, J. J. Heyd, E. N. Brothers, K. N. Kudin, 
 V. N. Staroverov, T. A. Keith, R. Kobayashi, J. Normand, 
 K. Raghavachari, A. P. Rendell, J. C. Burant, S. S. Iyengar, 
 J. Tomasi, M. Cossi, J. M. Millam, M. Klene, C. Adamo, R. Cammi, 
 J. W. Ochterski, R. L. Martin, K. Morokuma, O. Farkas, 
 J. B. Foresman, and D. J. Fox, Gaussian, Inc., Wallingford CT, 2019.
 
 ******************************************
 Gaussian 16:  ES64L-G16RevC.01  3-Jul-2019
                12-Jul-2024 
 ******************************************
 %NProcShared=16
 Will use up to   16 processors via shared memory.
 %Mem=32GB
 %chk=12318939_2.chk
 ------------------------------------------------------
 #N OPT FREQ=NORAMAN Integral(Ultrafine) wB97XD def2SVP
 ------------------------------------------------------
 1/18=20,19=15,26=4,38=1/1,3;
 2/9=110,12=2,17=6,18=5,40=1/2;
 3/5=43,7=101,11=2,25=1,30=1,71=1,74=-58,75=-5/1,2,3;
 4//1;
 5/5=2,38=5/2;
 6/7=2,8=2,9=2,10=2,28=1/1;
 7//1,2,3,16;
 1/18=20,19=15,26=4/3(2);
 2/9=110/2;
 99//99;
 2/9=110/2;
 3/5=43,7=101,11=2,25=1,30=1,71=1,74=-58,75=-5/1,2,3;
 4/5=5,16=3,69=1/1;
 5/5=2,38=5/2;
 7//1,2,3,16;
 1/18=20,19=15,26=4/3(-5);
 2/9=110/2;
 6/7=2,8=2,9=2,10=2,19=2,28=1/1;
 99/9=1/99;
 ----------
 12318939_2
 ----------
 Symbolic Z-matrix:
 Charge =  0 Multiplicity = 1
 C                     3.40467  -1.38157   0. 
 O                     1.99517  -1.21647  -0.00001 
 C                     1.54565   0.02152   0. 
 O                     2.28803   0.99317   0.00001 
 C                     0.06582   0.14993   0. 
 N                    -0.67534  -0.96395  -0.00001 
 C                    -1.99332  -0.88329  -0.00001 
 C                    -2.78565  -2.16317   0.00002 
 C                    -2.64033   0.37287  -0.00001 
 C                    -1.89567   1.53276  -0.00001 
 C                    -0.49165   1.44577   0. 
 O                     0.22534   2.56316   0.00001 
 H                     3.58236  -2.46211  -0.00001 
 H                     3.85146  -0.92116  -0.89272 
 H                     3.85146  -0.92117   0.89272 
 H                    -3.43354  -2.23023   0.88784 
 H                    -3.43415  -2.22991  -0.88737 
 H                    -2.09826  -3.01781  -0.00036 
 H                    -3.73193   0.42153  -0.00002 
 H                    -2.35867   2.52104  -0.00001 
 H                     1.17305   2.29969   0.00001 
 

 GradGradGradGradGradGradGradGradGradGradGradGradGradGradGradGradGradGrad
 Berny optimization.
 Initialization pass.
                           ----------------------------
                           !    Initial Parameters    !
                           ! (Angstroms and Degrees)  !
 --------------------------                            --------------------------
 ! Name  Definition              Value          Derivative Info.                !
 --------------------------------------------------------------------------------
 ! R1    R(1,2)                  1.4191         estimate D2E/DX2                !
 ! R2    R(1,13)                 1.0951         estimate D2E/DX2                !
 ! R3    R(1,14)                 1.0993         estimate D2E/DX2                !
 ! R4    R(1,15)                 1.0993         estimate D2E/DX2                !
 ! R5    R(2,3)                  1.3171         estimate D2E/DX2                !
 ! R6    R(3,4)                  1.2228         estimate D2E/DX2                !
 ! R7    R(3,5)                  1.4854         estimate D2E/DX2                !
 ! R8    R(5,6)                  1.3379         estimate D2E/DX2                !
 ! R9    R(5,11)                 1.4107         estimate D2E/DX2                !
 ! R10   R(6,7)                  1.3204         estimate D2E/DX2                !
 ! R11   R(7,8)                  1.5053         estimate D2E/DX2                !
 ! R12   R(7,9)                  1.413          estimate D2E/DX2                !
 ! R13   R(8,16)                 1.1011         estimate D2E/DX2                !
 ! R14   R(8,17)                 1.1011         estimate D2E/DX2                !
 ! R15   R(8,18)                 1.0968         estimate D2E/DX2                !
 ! R16   R(9,10)                 1.3784         estimate D2E/DX2                !
 ! R17   R(9,19)                 1.0927         estimate D2E/DX2                !
 ! R18   R(10,11)                1.4067         estimate D2E/DX2                !
 ! R19   R(10,20)                1.0914         estimate D2E/DX2                !
 ! R20   R(11,12)                1.3276         estimate D2E/DX2                !
 ! R21   R(12,21)                0.9837         estimate D2E/DX2                !
 ! A1    A(2,1,13)             106.0193         estimate D2E/DX2                !
 ! A2    A(2,1,14)             110.789          estimate D2E/DX2                !
 ! A3    A(2,1,15)             110.7899         estimate D2E/DX2                !
 ! A4    A(13,1,14)            110.3223         estimate D2E/DX2                !
 ! A5    A(13,1,15)            110.3227         estimate D2E/DX2                !
 ! A6    A(14,1,15)            108.5939         estimate D2E/DX2                !
 ! A7    A(1,2,3)              116.637          estimate D2E/DX2                !
 ! A8    A(2,3,4)              122.6625         estimate D2E/DX2                !
 ! A9    A(2,3,5)              114.9155         estimate D2E/DX2                !
 ! A10   A(4,3,5)              122.422          estimate D2E/DX2                !
 ! A11   A(3,5,6)              118.6799         estimate D2E/DX2                !
 ! A12   A(3,5,11)             118.2367         estimate D2E/DX2                !
 ! A13   A(6,5,11)             123.0834         estimate D2E/DX2                !
 ! A14   A(5,6,7)              120.1371         estimate D2E/DX2                !
 ! A15   A(6,7,8)              118.2581         estimate D2E/DX2                !
 ! A16   A(6,7,9)              120.7537         estimate D2E/DX2                !
 ! A17   A(8,7,9)              120.9881         estimate D2E/DX2                !
 ! A18   A(7,8,16)             111.1926         estimate D2E/DX2                !
 ! A19   A(7,8,17)             111.1935         estimate D2E/DX2                !
 ! A20   A(7,8,18)             109.4299         estimate D2E/DX2                !
 ! A21   A(16,8,17)            107.4312         estimate D2E/DX2                !
 ! A22   A(16,8,18)            108.759          estimate D2E/DX2                !
 ! A23   A(17,8,18)            108.76           estimate D2E/DX2                !
 ! A24   A(7,9,10)             120.0475         estimate D2E/DX2                !
 ! A25   A(7,9,19)             119.804          estimate D2E/DX2                !
 ! A26   A(10,9,19)            120.1485         estimate D2E/DX2                !
 ! A27   A(9,10,11)            119.1554         estimate D2E/DX2                !
 ! A28   A(9,10,20)            122.1965         estimate D2E/DX2                !
 ! A29   A(11,10,20)           118.648          estimate D2E/DX2                !
 ! A30   A(5,11,10)            116.8228         estimate D2E/DX2                !
 ! A31   A(5,11,12)            124.0358         estimate D2E/DX2                !
 ! A32   A(10,11,12)           119.1415         estimate D2E/DX2                !
 ! A33   A(11,12,21)           107.1506         estimate D2E/DX2                !
 ! D1    D(13,1,2,3)           180.0            estimate D2E/DX2                !
 ! D2    D(14,1,2,3)           -60.2977         estimate D2E/DX2                !
 ! D3    D(15,1,2,3)            60.2966         estimate D2E/DX2                !
 ! D4    D(1,2,3,4)              0.0004         estimate D2E/DX2                !
 ! D5    D(1,2,3,5)           -179.9995         estimate D2E/DX2                !
 ! D6    D(2,3,5,6)              0.0            estimate D2E/DX2                !
 ! D7    D(2,3,5,11)          -179.9995         estimate D2E/DX2                !
 ! D8    D(4,3,5,6)           -179.9999         estimate D2E/DX2                !
 ! D9    D(4,3,5,11)             0.0006         estimate D2E/DX2                !
 ! D10   D(3,5,6,7)            180.0            estimate D2E/DX2                !
 ! D11   D(11,5,6,7)            -0.0005         estimate D2E/DX2                !
 ! D12   D(3,5,11,10)          179.9995         estimate D2E/DX2                !
 ! D13   D(3,5,11,12)           -0.0005         estimate D2E/DX2                !
 ! D14   D(6,5,11,10)            0.0001         estimate D2E/DX2                !
 ! D15   D(6,5,11,12)          180.0            estimate D2E/DX2                !
 ! D16   D(5,6,7,8)           -179.9982         estimate D2E/DX2                !
 ! D17   D(5,6,7,9)              0.0005         estimate D2E/DX2                !
 ! D18   D(6,7,8,16)           120.1442         estimate D2E/DX2                !
 ! D19   D(6,7,8,17)          -120.1902         estimate D2E/DX2                !
 ! D20   D(6,7,8,18)            -0.0221         estimate D2E/DX2                !
 ! D21   D(9,7,8,16)           -59.8545         estimate D2E/DX2                !
 ! D22   D(9,7,8,17)            59.8111         estimate D2E/DX2                !
 ! D23   D(9,7,8,18)           179.9792         estimate D2E/DX2                !
 ! D24   D(6,7,9,10)             0.0            estimate D2E/DX2                !
 ! D25   D(6,7,9,19)           179.9994         estimate D2E/DX2                !
 ! D26   D(8,7,9,10)           179.9987         estimate D2E/DX2                !
 ! D27   D(8,7,9,19)            -0.0019         estimate D2E/DX2                !
 ! D28   D(7,9,10,11)           -0.0005         estimate D2E/DX2                !
 ! D29   D(7,9,10,20)          180.0            estimate D2E/DX2                !
 ! D30   D(19,9,10,11)        -179.9999         estimate D2E/DX2                !
 ! D31   D(19,9,10,20)           0.0006         estimate D2E/DX2                !
 ! D32   D(9,10,11,5)            0.0004         estimate D2E/DX2                !
 ! D33   D(9,10,11,12)        -179.9995         estimate D2E/DX2                !
 ! D34   D(20,10,11,5)         180.0            estimate D2E/DX2                !
 ! D35   D(20,10,11,12)          0.0            estimate D2E/DX2                !
 ! D36   D(5,11,12,21)           0.0004         estimate D2E/DX2                !
 ! D37   D(10,11,12,21)       -179.9996         estimate D2E/DX2                !
 --------------------------------------------------------------------------------
 Trust Radius=3.00D-01 FncErr=1.00D-07 GrdErr=1.00D-06 EigMax=2.50D+02 EigMin=1.00D-04
 Number of steps in this run=    101 maximum allowed number of steps=    126.
 GradGradGradGradGradGradGradGradGradGradGradGradGradGradGradGradGradGrad

                          Input orientation:                          
 ---------------------------------------------------------------------
 Center     Atomic      Atomic             Coordinates (Angstroms)
 Number     Number       Type             X           Y           Z
 ---------------------------------------------------------------------
      1          6           0        3.404670   -1.381570    0.000000
      2          8           0        1.995170   -1.216470   -0.000010
      3          6           0        1.545650    0.021520    0.000000
      4          8           0        2.288030    0.993170    0.000010
      5          6           0        0.065820    0.149930    0.000000
      6          7           0       -0.675340   -0.963950   -0.000010
      7          6           0       -1.993320   -0.883290   -0.000010
      8          6           0       -2.785650   -2.163170    0.000020
      9          6           0       -2.640330    0.372870   -0.000010
     10          6           0       -1.895670    1.532760   -0.000010
     11          6           0       -0.491650    1.445770    0.000000
     12          8           0        0.225340    2.563160    0.000010
     13          1           0        3.582360   -2.462110   -0.000010
     14          1           0        3.851460   -0.921160   -0.892720
     15          1           0        3.851460   -0.921170    0.892720
     16          1           0       -3.433540   -2.230230    0.887840
     17          1           0       -3.434150   -2.229910   -0.887370
     18          1           0       -2.098260   -3.017810   -0.000360
     19          1           0       -3.731930    0.421530   -0.000020
     20          1           0       -2.358670    2.521040   -0.000010
     21          1           0        1.173050    2.299690    0.000010
 ---------------------------------------------------------------------
                    Distance matrix (angstroms):
                    1          2          3          4          5
     1  C    0.000000
     2  O    1.419136   0.000000
     3  C    2.329081   1.317075   0.000000
     4  O    2.624171   2.228963   1.222797   0.000000
     5  C    3.673338   2.364200   1.485391   2.376820   0.000000
     6  N    4.101328   2.682422   2.429804   3.551321   1.337926
     7  C    5.420939   4.002382   3.652806   4.674512   2.303823
     8  C    6.239468   4.873652   4.851085   5.975342   3.671691
     9  C    6.294449   4.900394   4.200699   4.967243   2.715318
    10  C    6.048713   4.764127   3.758528   4.218353   2.399930
    11  C    4.814059   3.643048   2.485775   2.816286   1.410664
    12  O    5.066462   4.173476   2.864115   2.592211   2.418497
    13  H    1.095053   2.017620   3.211947   3.689749   4.380503
    14  H    1.099340   2.080854   2.646196   2.627915   4.034260
    15  H    1.099335   2.080861   2.646200   2.627916   4.034263
    16  H    6.947633   5.593468   5.536332   6.626833   4.324227
    17  H    6.948134   5.593924   5.536675   6.627144   4.324448
    18  H    5.741038   4.472247   4.745061   5.943694   3.836381
    19  H    7.360858   5.956737   5.292718   6.047040   3.807449
    20  H    6.960349   5.738023   4.635873   4.891442   3.391211
    21  H    4.304858   3.610992   2.308439   1.717607   2.418145
                    6          7          8          9         10
     6  N    0.000000
     7  C    1.320446   0.000000
     8  C    2.427249   1.505284   0.000000
     9  C    2.376610   1.412997   2.540200   0.000000
    10  C    2.778987   2.418023   3.801574   1.378355   0.000000
    11  C    2.416711   2.771197   4.276317   2.401654   1.406712
    12  O    3.640292   4.098838   5.603950   3.606859   2.358052
    13  H    4.513590   5.794901   6.375023   6.838054   6.779956
    14  H    4.614183   5.912683   6.811079   6.679430   6.312540
    15  H    4.614186   5.912686   6.811072   6.679434   6.312546
    16  H    3.162184   2.162581   1.101128   2.862445   4.160939
    17  H    3.162451   2.162587   1.101121   2.862171   4.160771
    18  H    2.498608   2.137098   1.096775   3.433737   4.555077
    19  H    3.355935   2.173780   2.752475   1.092684   2.146318
    20  H    3.870240   3.423878   4.703630   2.166556   1.091360
    21  H    3.750719   4.489684   5.965603   4.272529   3.163104
                   11         12         13         14         15
    11  C    0.000000
    12  O    1.327643   0.000000
    13  H    5.645271   6.043420   0.000000
    14  H    5.026123   5.107465   1.801075   0.000000
    15  H    5.026128   5.107468   1.801077   1.785440   0.000000
    16  H    4.791237   6.095263   7.075655   7.612837   7.401681
    17  H    4.791279   6.095312   7.076209   7.402227   7.613254
    18  H    4.743916   6.045357   5.707736   6.371139   6.371237
    19  H    3.398306   4.499618   7.862202   7.752905   7.752911
    20  H    2.154523   2.584353   7.754200   7.156213   7.156220
    21  H    1.870937   0.983652   5.336620   4.283074   4.283077
                   16         17         18         19         20
    16  H    0.000000
    17  H    1.775210   0.000000
    18  H    1.786660   1.786666   0.000000
    19  H    2.812323   2.811796   3.807616   0.000000
    20  H    4.951585   4.951322   5.544968   2.508742   0.000000
    21  H    6.521433   6.521580   6.243178   5.252267   3.538650
                   21
    21  H    0.000000
 Stoichiometry    C8H9NO3
 Framework group  C1[X(C8H9NO3)]
 Deg. of freedom    57
 Full point group                 C1      NOp   1
 Largest Abelian subgroup         C1      NOp   1
 Largest concise Abelian subgroup C1      NOp   1
                         Standard orientation:                         
 ---------------------------------------------------------------------
 Center     Atomic      Atomic             Coordinates (Angstroms)
 Number     Number       Type             X           Y           Z
 ---------------------------------------------------------------------
      1          6           0        3.404672   -1.381569   -0.000000
      2          8           0        1.995172   -1.216469   -0.000010
      3          6           0        1.545652    0.021520   -0.000000
      4          8           0        2.288031    0.993171    0.000010
      5          6           0        0.065822    0.149930   -0.000000
      6          7           0       -0.675338   -0.963951   -0.000010
      7          6           0       -1.993318   -0.883291   -0.000010
      8          6           0       -2.785647   -2.163171    0.000020
      9          6           0       -2.640328    0.372869   -0.000010
     10          6           0       -1.895669    1.532759   -0.000010
     11          6           0       -0.491649    1.445770   -0.000000
     12          8           0        0.225341    2.563160    0.000010
     13          1           0        3.582363   -2.462109   -0.000010
     14          1           0        3.851462   -0.921159   -0.892720
     15          1           0        3.851462   -0.921169    0.892720
     16          1           0       -3.433537   -2.230232    0.887840
     17          1           0       -3.434147   -2.229912   -0.887370
     18          1           0       -2.098257   -3.017811   -0.000360
     19          1           0       -3.731928    0.421528   -0.000020
     20          1           0       -2.358669    2.521039   -0.000010
     21          1           0        1.173051    2.299690    0.000010
 ---------------------------------------------------------------------
 Rotational constants (GHZ):           1.4731650           0.7344241           0.4931501
 Standard basis: def2SVP (5D, 7F)
 There are   225 symmetry adapted cartesian basis functions of A   symmetry.
 There are   213 symmetry adapted basis functions of A   symmetry.
   213 basis functions,   363 primitive gaussians,   225 cartesian basis functions
    44 alpha electrons       44 beta electrons
       nuclear repulsion energy       694.6216425835 Hartrees.
 NAtoms=   21 NActive=   21 NUniq=   21 SFac= 1.00D+00 NAtFMM=   60 NAOKFM=F Big=F
 Integral buffers will be    131072 words long.
 Raffenetti 2 integral format.
 Two-electron integral symmetry is turned on.
 Nuclear repulsion after empirical dispersion term =      694.6120120023 Hartrees.
 One-electron integrals computed using PRISM.
   1 Symmetry operations used in ECPInt.
 ECPInt:  NShTT=    4950 NPrTT=   18138 LenC2=    4758 LenP2D=   12895.
 LDataN:  DoStor=T MaxTD1= 4 Len=   56
 NBasis=   213 RedAO= T EigKep=  5.15D-04  NBF=   213
 NBsUse=   213 1.00D-06 EigRej= -1.00D+00 NBFU=   213
 ExpMin= 1.22D-01 ExpMax= 2.27D+03 ExpMxC= 3.41D+02 IAcc=3 IRadAn=         5 AccDes= 0.00D+00
 Harris functional with IExCor= 4639 and IRadAn=       5 diagonalized for initial guess.
 HarFok:  IExCor= 4639 AccDes= 0.00D+00 IRadAn=         5 IDoV= 1 UseB2=F ITyADJ=14
 ICtDFT=  3500011 ScaDFX=  1.000000  1.000000  1.000000  1.000000
 FoFCou: FMM=F IPFlag=           0 FMFlag=      100000 FMFlg1=           0
         NFxFlg=           0 DoJE=T BraDBF=F KetDBF=T FulRan=T
         wScrn=  0.000000 ICntrl=       500 IOpCl=  0 I1Cent=   200000004 NGrid=           0
         NMat0=    1 NMatS0=      1 NMatT0=    0 NMatD0=    1 NMtDS0=    0 NMtDT0=    0
 Petite list used in FoFCou.
 Requested convergence on RMS density matrix=1.00D-08 within 128 cycles.
 Requested convergence on MAX density matrix=1.00D-06.
 Requested convergence on             energy=1.00D-06.
 No special actions if energy rises.
 Integral accuracy reduced to 1.0D-05 until final iterations.
 Initial convergence to 1.0D-05 achieved.  Increase integral accuracy.
 SCF Done:  E(RwB97XD) =  -590.092628152     A.U. after   16 cycles
            NFock= 16  Conv=0.66D-08     -V/T= 2.0093

 **********************************************************************

            Population analysis using the SCF Density.

 **********************************************************************

 Orbital symmetries:
       Occupied  (A) (A) (A) (A) (A) (A) (A) (A) (A) (A) (A) (A)
                 (A) (A) (A) (A) (A) (A) (A) (A) (A) (A) (A) (A)
                 (A) (A) (A) (A) (A) (A) (A) (A) (A) (A) (A) (A)
                 (A) (A) (A) (A) (A) (A) (A) (A)
       Virtual   (A) (A) (A) (A) (A) (A) (A) (A) (A) (A) (A) (A)
                 (A) (A) (A) (A) (A) (A) (A) (A) (A) (A) (A) (A)
                 (A) (A) (A) (A) (A) (A) (A) (A) (A) (A) (A) (A)
                 (A) (A) (A) (A) (A) (A) (A) (A) (A) (A) (A) (A)
                 (A) (A) (A) (A) (A) (A) (A) (A) (A) (A) (A) (A)
                 (A) (A) (A) (A) (A) (A) (A) (A) (A) (A) (A) (A)
                 (A) (A) (A) (A) (A) (A) (A) (A) (A) (A) (A) (A)
                 (A) (A) (A) (A) (A) (A) (A) (A) (A) (A) (A) (A)
                 (A) (A) (A) (A) (A) (A) (A) (A) (A) (A) (A) (A)
                 (A) (A) (A) (A) (A) (A) (A) (A) (A) (A) (A) (A)
                 (A) (A) (A) (A) (A) (A) (A) (A) (A) (A) (A) (A)
                 (A) (A) (A) (A) (A) (A) (A) (A) (A) (A) (A) (A)
                 (A) (A) (A) (A) (A) (A) (A) (A) (A) (A) (A) (A)
                 (A) (A) (A) (A) (A) (A) (A) (A) (A) (A) (A) (A)
                 (A)
 The electronic state is 1-A.
 Alpha  occ. eigenvalues --  -19.31331 -19.28327 -19.26183 -14.44610 -10.44124
 Alpha  occ. eigenvalues --  -10.37975 -10.36110 -10.34223 -10.34061 -10.32079
 Alpha  occ. eigenvalues --  -10.31945 -10.29606  -1.22181  -1.16499  -1.12005
 Alpha  occ. eigenvalues --   -1.04803  -0.90282  -0.88858  -0.83778  -0.79350
 Alpha  occ. eigenvalues --   -0.75811  -0.70200  -0.67972  -0.64236  -0.63657
 Alpha  occ. eigenvalues --   -0.59387  -0.59198  -0.57481  -0.55201  -0.53663
 Alpha  occ. eigenvalues --   -0.51927  -0.50676  -0.50467  -0.48716  -0.47801
 Alpha  occ. eigenvalues --   -0.47570  -0.46316  -0.44662  -0.44395  -0.40119
 Alpha  occ. eigenvalues --   -0.38783  -0.36965  -0.33833  -0.30927
 Alpha virt. eigenvalues --    0.00628   0.05906   0.11638   0.14843   0.15569
 Alpha virt. eigenvalues --    0.17062   0.19956   0.20539   0.20977   0.20997
 Alpha virt. eigenvalues --    0.21853   0.22272   0.22294   0.26304   0.29123
 Alpha virt. eigenvalues --    0.29665   0.30882   0.33525   0.34899   0.36136
 Alpha virt. eigenvalues --    0.39957   0.42257   0.44362   0.46511   0.48132
 Alpha virt. eigenvalues --    0.50979   0.51671   0.51861   0.53940   0.54321
 Alpha virt. eigenvalues --    0.54991   0.55890   0.56645   0.57731   0.58188
 Alpha virt. eigenvalues --    0.60226   0.63314   0.65572   0.66245   0.67072
 Alpha virt. eigenvalues --    0.67942   0.70912   0.71843   0.72100   0.72650
 Alpha virt. eigenvalues --    0.73160   0.73188   0.74374   0.76064   0.76265
 Alpha virt. eigenvalues --    0.76637   0.77810   0.77832   0.78300   0.79971
 Alpha virt. eigenvalues --    0.84241   0.84728   0.86344   0.88541   0.90608
 Alpha virt. eigenvalues --    0.96255   0.97493   0.99704   1.01079   1.05828
 Alpha virt. eigenvalues --    1.08252   1.09515   1.10961   1.15196   1.15270
 Alpha virt. eigenvalues --    1.17024   1.20439   1.24067   1.24365   1.30942
 Alpha virt. eigenvalues --    1.32373   1.32577   1.34264   1.36019   1.37889
 Alpha virt. eigenvalues --    1.41674   1.43320   1.45122   1.47355   1.51630
 Alpha virt. eigenvalues --    1.53839   1.54285   1.58884   1.60235   1.61557
 Alpha virt. eigenvalues --    1.61900   1.65772   1.67009   1.68387   1.70793
 Alpha virt. eigenvalues --    1.75616   1.77433   1.79410   1.80137   1.80468
 Alpha virt. eigenvalues --    1.81196   1.84341   1.85343   1.86361   1.87720
 Alpha virt. eigenvalues --    1.88009   1.90981   1.92314   1.92477   1.93775
 Alpha virt. eigenvalues --    1.97519   1.99009   2.00317   2.02622   2.04538
 Alpha virt. eigenvalues --    2.07954   2.09367   2.09713   2.16820   2.19001
 Alpha virt. eigenvalues --    2.23163   2.24846   2.26180   2.27639   2.32314
 Alpha virt. eigenvalues --    2.33799   2.35188   2.39125   2.39874   2.41888
 Alpha virt. eigenvalues --    2.45244   2.46236   2.48236   2.50177   2.51173
 Alpha virt. eigenvalues --    2.52882   2.61644   2.68383   2.70016   2.71430
 Alpha virt. eigenvalues --    2.72392   2.73982   2.76980   2.81638   2.87803
 Alpha virt. eigenvalues --    2.88681   2.88854   2.90670   2.93956   2.98036
 Alpha virt. eigenvalues --    2.98969   3.01502   3.02615   3.03589   3.05290
 Alpha virt. eigenvalues --    3.07951   3.09158   3.13401   3.20218   3.26185
 Alpha virt. eigenvalues --    3.29064   3.33678   3.43339   3.51196   3.55273
 Alpha virt. eigenvalues --    3.62620   3.74986   3.81216   3.93537
          Condensed to atoms (all electrons):
               1          2          3          4          5          6
     1  C    4.413718   0.267950  -0.034840  -0.000242   0.010210  -0.000445
     2  O    0.267950   7.818265   0.464714  -0.076310  -0.124834   0.004191
     3  C   -0.034840   0.464714   4.633159   0.644456   0.146107  -0.060900
     4  O   -0.000242  -0.076310   0.644456   7.814274  -0.114587   0.001306
     5  C    0.010210  -0.124834   0.146107  -0.114587   5.725443   0.502174
     6  N   -0.000445   0.004191  -0.060900   0.001306   0.502174   6.234178
     7  C    0.000022   0.000037   0.007432  -0.000044  -0.063118   0.587038
     8  C    0.000000  -0.000024   0.000312  -0.000000   0.009314  -0.080106
     9  C    0.000002  -0.000071  -0.000660  -0.000079  -0.074923  -0.053656
    10  C    0.000002   0.000075   0.008375   0.001388  -0.057530  -0.035477
    11  C   -0.000089  -0.000039  -0.092524   0.006037   0.276767  -0.037660
    12  O    0.000015  -0.000040   0.002975  -0.031530  -0.094536   0.001116
    13  H    0.400502  -0.021428   0.003795   0.000612   0.000282  -0.000032
    14  H    0.405613  -0.025909  -0.004933   0.007015   0.000190  -0.000023
    15  H    0.405613  -0.025909  -0.004933   0.007015   0.000190  -0.000023
    16  H    0.000000  -0.000000   0.000006  -0.000000  -0.000206   0.001378
    17  H    0.000000  -0.000000   0.000006  -0.000000  -0.000206   0.001383
    18  H   -0.000001   0.000018  -0.000211   0.000000   0.000159   0.010845
    19  H    0.000000  -0.000000   0.000055  -0.000000  -0.000291   0.005744
    20  H   -0.000000   0.000001  -0.000444   0.000024   0.018912  -0.000173
    21  H   -0.000005   0.001007   0.003143   0.057995  -0.032066  -0.000095
               7          8          9         10         11         12
     1  C    0.000022   0.000000   0.000002   0.000002  -0.000089   0.000015
     2  O    0.000037  -0.000024  -0.000071   0.000075  -0.000039  -0.000040
     3  C    0.007432   0.000312  -0.000660   0.008375  -0.092524   0.002975
     4  O   -0.000044  -0.000000  -0.000079   0.001388   0.006037  -0.031530
     5  C   -0.063118   0.009314  -0.074923  -0.057530   0.276767  -0.094536
     6  N    0.587038  -0.080106  -0.053656  -0.035477  -0.037660   0.001116
     7  C    4.985384   0.387179   0.388175   0.011539  -0.080584   0.000351
     8  C    0.387179   4.608805  -0.096681   0.002793   0.002389   0.000006
     9  C    0.388175  -0.096681   5.010824   0.404502   0.057815   0.004192
    10  C    0.011539   0.002793   0.404502   4.978560   0.386620  -0.077373
    11  C   -0.080584   0.002389   0.057815   0.386620   4.922124   0.484251
    12  O    0.000351   0.000006   0.004192  -0.077373   0.484251   7.568548
    13  H   -0.000000  -0.000000   0.000000  -0.000001   0.000023   0.000000
    14  H    0.000002   0.000000  -0.000000   0.000000  -0.000007   0.000000
    15  H    0.000002   0.000000  -0.000000   0.000000  -0.000007   0.000000
    16  H   -0.017541   0.386144  -0.002835   0.000779  -0.000116  -0.000000
    17  H   -0.017546   0.386147  -0.002838   0.000781  -0.000116  -0.000000
    18  H   -0.010357   0.368545   0.010564  -0.000284   0.000062  -0.000001
    19  H   -0.046215  -0.005354   0.421665  -0.052230   0.012418  -0.000053
    20  H    0.009037  -0.000264  -0.062879   0.430295  -0.054065   0.001183
    21  H   -0.000081  -0.000000  -0.000150   0.006590  -0.005893   0.335629
              13         14         15         16         17         18
     1  C    0.400502   0.405613   0.405613   0.000000   0.000000  -0.000001
     2  O   -0.021428  -0.025909  -0.025909  -0.000000  -0.000000   0.000018
     3  C    0.003795  -0.004933  -0.004933   0.000006   0.000006  -0.000211
     4  O    0.000612   0.007015   0.007015  -0.000000  -0.000000   0.000000
     5  C    0.000282   0.000190   0.000190  -0.000206  -0.000206   0.000159
     6  N   -0.000032  -0.000023  -0.000023   0.001378   0.001383   0.010845
     7  C   -0.000000   0.000002   0.000002  -0.017541  -0.017546  -0.010357
     8  C   -0.000000   0.000000   0.000000   0.386144   0.386147   0.368545
     9  C    0.000000  -0.000000  -0.000000  -0.002835  -0.002838   0.010564
    10  C   -0.000001   0.000000   0.000000   0.000779   0.000781  -0.000284
    11  C    0.000023  -0.000007  -0.000007  -0.000116  -0.000116   0.000062
    12  O    0.000000   0.000000   0.000000  -0.000000  -0.000000  -0.000001
    13  H    0.600245  -0.022767  -0.022767   0.000000   0.000000   0.000001
    14  H   -0.022767   0.615263  -0.029532  -0.000000  -0.000000  -0.000000
    15  H   -0.022767  -0.029532   0.615261  -0.000000  -0.000000  -0.000000
    16  H    0.000000  -0.000000  -0.000000   0.619495  -0.021800  -0.014711
    17  H    0.000000  -0.000000  -0.000000  -0.021800   0.619520  -0.014716
    18  H    0.000001  -0.000000  -0.000000  -0.014711  -0.014716   0.598539
    19  H   -0.000000   0.000000   0.000000   0.000865   0.000867  -0.000175
    20  H    0.000000  -0.000000  -0.000000   0.000007   0.000007   0.000010
    21  H   -0.000001  -0.000011  -0.000011   0.000000   0.000000   0.000000
              19         20         21
     1  C    0.000000  -0.000000  -0.000005
     2  O   -0.000000   0.000001   0.001007
     3  C    0.000055  -0.000444   0.003143
     4  O   -0.000000   0.000024   0.057995
     5  C   -0.000291   0.018912  -0.032066
     6  N    0.005744  -0.000173  -0.000095
     7  C   -0.046215   0.009037  -0.000081
     8  C   -0.005354  -0.000264  -0.000000
     9  C    0.421665  -0.062879  -0.000150
    10  C   -0.052230   0.430295   0.006590
    11  C    0.012418  -0.054065  -0.005893
    12  O   -0.000053   0.001183   0.335629
    13  H   -0.000000   0.000000  -0.000001
    14  H    0.000000  -0.000000  -0.000011
    15  H    0.000000  -0.000000  -0.000011
    16  H    0.000865   0.000007   0.000000
    17  H    0.000867   0.000007   0.000000
    18  H   -0.000175   0.000010   0.000000
    19  H    0.650069  -0.010664   0.000009
    20  H   -0.010664   0.636544  -0.000089
    21  H    0.000009  -0.000089   0.425595
 Mulliken charges:
               1
     1  C    0.131976
     2  O   -0.281694
     3  C    0.284909
     4  O   -0.317328
     5  C   -0.127452
     6  N   -0.080763
     7  C   -0.140710
     8  C    0.030794
     9  C   -0.002964
    10  C   -0.009406
    11  C    0.122591
    12  O   -0.194734
    13  H    0.061537
    14  H    0.055099
    15  H    0.055099
    16  H    0.048534
    17  H    0.048512
    18  H    0.051714
    19  H    0.023290
    20  H    0.032560
    21  H    0.208435
 Sum of Mulliken charges =  -0.00000
 Mulliken charges with hydrogens summed into heavy atoms:
               1
     1  C    0.303711
     2  O   -0.281694
     3  C    0.284909
     4  O   -0.317328
     5  C   -0.127452
     6  N   -0.080763
     7  C   -0.140710
     8  C    0.179554
     9  C    0.020326
    10  C    0.023154
    11  C    0.122591
    12  O    0.013701
 Electronic spatial extent (au):  <R**2>=           2217.3684
 Charge=             -0.0000 electrons
 Dipole moment (field-independent basis, Debye):
    X=             -0.5636    Y=             -1.1624    Z=              0.0001  Tot=              1.2918
 Quadrupole moment (field-independent basis, Debye-Ang):
   XX=            -54.2424   YY=            -71.8176   ZZ=            -69.3518
   XY=             -5.2838   XZ=             -0.0002   YZ=             -0.0002
 Traceless Quadrupole moment (field-independent basis, Debye-Ang):
   XX=             10.8948   YY=             -6.6803   ZZ=             -4.2145
   XY=             -5.2838   XZ=             -0.0002   YZ=             -0.0002
 Octapole moment (field-independent basis, Debye-Ang**2):
  XXX=             22.5089  YYY=             -7.2690  ZZZ=              0.0009  XYY=              5.8405
  XXY=            -19.3964  XXZ=              0.0000  XZZ=             11.9012  YZZ=              0.4492
  YYZ=             -0.0000  XYZ=              0.0006
 Hexadecapole moment (field-independent basis, Debye-Ang**3):
 XXXX=          -1670.1178 YYYY=           -930.4201 ZZZZ=            -79.1864 XXXY=            -81.9667
 XXXZ=              0.0032 YYYX=            -17.0217 YYYZ=              0.0013 ZZZX=             -0.0023
 ZZZY=             -0.0015 XXYY=           -413.7886 XXZZ=           -321.4645 YYZZ=           -168.8396
 XXYZ=             -0.0016 YYXZ=             -0.0015 ZZXY=              4.9396
 N-N= 6.946120120023D+02 E-N=-2.765757784032D+03  KE= 5.846340638587D+02
   1 Symmetry operations used in ECPInt.
 ECPInt:  NShTT=    4950 NPrTT=   18138 LenC2=    4758 LenP2D=   12895.
 LDataN:  DoStor=T MaxTD1= 5 Len=  102
 Calling FoFJK, ICntrl=      2127 FMM=F ISym2X=0 I1Cent= 0 IOpClX= 0 NMat=1 NMatS=1 NMatT=0.
 ***** Axes restored to original set *****
 -------------------------------------------------------------------
 Center     Atomic                   Forces (Hartrees/Bohr)
 Number     Number              X              Y              Z
 -------------------------------------------------------------------
      1        6           0.000001287    0.000000427   -0.000004090
      2        8           0.000001373    0.000000548    0.000001147
      3        6          -0.000002834    0.000002429    0.000000115
      4        8           0.000000356   -0.000001431   -0.000000005
      5        6           0.000005995   -0.000002741   -0.000000895
      6        7           0.000003836   -0.000002879    0.000000421
      7        6          -0.000006485   -0.000003154    0.000000347
      8        6           0.000003428    0.000000616    0.000001115
      9        6           0.000000517    0.000006781   -0.000000929
     10        6           0.000000776   -0.000007845    0.000000954
     11        6          -0.000004192    0.000005464    0.000000522
     12        8           0.000005616   -0.000000111   -0.000000383
     13        1          -0.000000030   -0.000001938    0.000000385
     14        1          -0.000000796   -0.000000785    0.000002634
     15        1          -0.000000944    0.000000310   -0.000000050
     16        1          -0.000000486    0.000000503   -0.000000328
     17        1          -0.000002492    0.000000521   -0.000001757
     18        1          -0.000000563    0.000000570    0.000000679
     19        1           0.000000704   -0.000000563    0.000000240
     20        1          -0.000000983    0.000002325   -0.000000276
     21        1          -0.000004084    0.000000952    0.000000154
 -------------------------------------------------------------------
 Cartesian Forces:  Max     0.000007845 RMS     0.000002551

 GradGradGradGradGradGradGradGradGradGradGradGradGradGradGradGradGradGrad
 Berny optimization.
 FormGI is forming the generalized inverse of G from B-inverse, IUseBI=4.
 Internal  Forces:  Max     0.000006086 RMS     0.000001410
 Search for a local minimum.
 Step number   1 out of a maximum of  101
 All quantities printed in internal units (Hartrees-Bohrs-Radians)
 Mixed Optimization -- En-DIIS/RFO-DIIS
 Second derivative matrix not updated -- first step.
 ITU=  0
     Eigenvalues ---    0.00696   0.00959   0.01439   0.01500   0.01571
     Eigenvalues ---    0.01731   0.02001   0.02081   0.02151   0.02156
     Eigenvalues ---    0.02231   0.02506   0.02649   0.02789   0.07202
     Eigenvalues ---    0.07345   0.10221   0.10649   0.16000   0.16000
     Eigenvalues ---    0.16000   0.16000   0.16000   0.16000   0.16000
     Eigenvalues ---    0.16000   0.16000   0.22474   0.24505   0.25000
     Eigenvalues ---    0.25000   0.25000   0.25000   0.25000   0.25000
     Eigenvalues ---    0.25000   0.31829   0.33558   0.33558   0.33755
     Eigenvalues ---    0.33756   0.33960   0.34041   0.34235   0.34504
     Eigenvalues ---    0.34656   0.40762   0.42591   0.43293   0.43720
     Eigenvalues ---    0.47962   0.50682   0.56071   0.60066   0.60167
     Eigenvalues ---    0.62666   0.94155
 RFO step:  Lambda= 0.00000000D+00 EMin= 6.96051551D-03
 Linear search not attempted -- first point.
 Iteration  1 RMS(Cart)=  0.00001209 RMS(Int)=  0.00000000
 Iteration  2 RMS(Cart)=  0.00000000 RMS(Int)=  0.00000000
 Variable       Old X    -DE/DX   Delta X   Delta X   Delta X     New X
                                 (Linear)    (Quad)   (Total)
    R1        2.68178  -0.00000   0.00000  -0.00000  -0.00000   2.68178
    R2        2.06935   0.00000   0.00000   0.00000   0.00000   2.06935
    R3        2.07745  -0.00000   0.00000  -0.00001  -0.00001   2.07744
    R4        2.07744  -0.00000   0.00000  -0.00000  -0.00000   2.07744
    R5        2.48891   0.00000   0.00000   0.00000   0.00000   2.48891
    R6        2.31075  -0.00000   0.00000  -0.00000  -0.00000   2.31075
    R7        2.80698  -0.00000   0.00000  -0.00000  -0.00000   2.80698
    R8        2.52831   0.00000   0.00000   0.00001   0.00001   2.52832
    R9        2.66577   0.00001   0.00000   0.00001   0.00001   2.66578
   R10        2.49528   0.00001   0.00000   0.00001   0.00001   2.49529
   R11        2.84457  -0.00000   0.00000  -0.00000  -0.00000   2.84457
   R12        2.67018   0.00000   0.00000   0.00000   0.00000   2.67018
   R13        2.08083  -0.00000   0.00000  -0.00000  -0.00000   2.08083
   R14        2.08082   0.00000   0.00000   0.00001   0.00001   2.08083
   R15        2.07260  -0.00000   0.00000  -0.00000  -0.00000   2.07260
   R16        2.60471  -0.00000   0.00000  -0.00001  -0.00001   2.60471
   R17        2.06487  -0.00000   0.00000  -0.00000  -0.00000   2.06487
   R18        2.65830  -0.00000   0.00000  -0.00000  -0.00000   2.65830
   R19        2.06237   0.00000   0.00000   0.00001   0.00001   2.06238
   R20        2.50888   0.00000   0.00000   0.00000   0.00000   2.50888
   R21        1.85883  -0.00000   0.00000  -0.00001  -0.00001   1.85882
    A1        1.85039   0.00000   0.00000   0.00000   0.00000   1.85039
    A2        1.93363   0.00000   0.00000   0.00000   0.00000   1.93364
    A3        1.93365  -0.00000   0.00000  -0.00001  -0.00001   1.93363
    A4        1.92549   0.00000   0.00000   0.00001   0.00001   1.92549
    A5        1.92549   0.00000   0.00000   0.00000   0.00000   1.92550
    A6        1.89532  -0.00000   0.00000  -0.00000  -0.00000   1.89532
    A7        2.03570   0.00000   0.00000   0.00001   0.00001   2.03571
    A8        2.14086  -0.00000   0.00000  -0.00000  -0.00000   2.14086
    A9        2.00565  -0.00000   0.00000  -0.00000  -0.00000   2.00565
   A10        2.13667   0.00000   0.00000   0.00000   0.00000   2.13667
   A11        2.07136   0.00000   0.00000   0.00000   0.00000   2.07136
   A12        2.06362  -0.00000   0.00000  -0.00000  -0.00000   2.06362
   A13        2.14821  -0.00000   0.00000  -0.00000  -0.00000   2.14821
   A14        2.09679  -0.00000   0.00000  -0.00000  -0.00000   2.09679
   A15        2.06399   0.00000   0.00000   0.00001   0.00001   2.06400
   A16        2.10755  -0.00000   0.00000  -0.00000  -0.00000   2.10755
   A17        2.11164  -0.00000   0.00000  -0.00000  -0.00000   2.11164
   A18        1.94068  -0.00000   0.00000  -0.00000  -0.00000   1.94067
   A19        1.94069  -0.00000   0.00000  -0.00000  -0.00000   1.94069
   A20        1.90991   0.00000   0.00000   0.00000   0.00000   1.90992
   A21        1.87503  -0.00000   0.00000  -0.00001  -0.00001   1.87502
   A22        1.89820  -0.00000   0.00000  -0.00000  -0.00000   1.89820
   A23        1.89822   0.00000   0.00000   0.00001   0.00001   1.89823
   A24        2.09522   0.00000   0.00000   0.00000   0.00000   2.09523
   A25        2.09097  -0.00000   0.00000  -0.00001  -0.00001   2.09097
   A26        2.09699   0.00000   0.00000   0.00000   0.00000   2.09699
   A27        2.07965   0.00000   0.00000   0.00001   0.00001   2.07966
   A28        2.13273  -0.00000   0.00000  -0.00000  -0.00000   2.13273
   A29        2.07080  -0.00000   0.00000  -0.00000  -0.00000   2.07080
   A30        2.03894  -0.00000   0.00000  -0.00000  -0.00000   2.03894
   A31        2.16483  -0.00000   0.00000  -0.00000  -0.00000   2.16483
   A32        2.07941   0.00000   0.00000   0.00000   0.00000   2.07942
   A33        1.87013  -0.00000   0.00000  -0.00000  -0.00000   1.87013
    D1        3.14159  -0.00000   0.00000  -0.00001  -0.00001   3.14158
    D2       -1.05239   0.00000   0.00000   0.00001   0.00001  -1.05239
    D3        1.05237  -0.00000   0.00000  -0.00000  -0.00000   1.05237
    D4        0.00001  -0.00000   0.00000  -0.00000  -0.00000   0.00000
    D5       -3.14158  -0.00000   0.00000  -0.00001  -0.00001   3.14159
    D6       -0.00000   0.00000   0.00000   0.00000   0.00000   0.00000
    D7       -3.14158  -0.00000   0.00000  -0.00000  -0.00000  -3.14159
    D8       -3.14159  -0.00000   0.00000  -0.00000  -0.00000   3.14159
    D9        0.00001  -0.00000   0.00000  -0.00001  -0.00001   0.00000
   D10        3.14159   0.00000   0.00000   0.00001   0.00001  -3.14159
   D11       -0.00001   0.00000   0.00000   0.00001   0.00001   0.00000
   D12        3.14158  -0.00000   0.00000  -0.00000  -0.00000   3.14158
   D13       -0.00001   0.00000   0.00000   0.00000   0.00000  -0.00000
   D14        0.00000  -0.00000   0.00000  -0.00001  -0.00001  -0.00001
   D15        3.14159  -0.00000   0.00000  -0.00000  -0.00000   3.14159
   D16       -3.14156  -0.00000   0.00000  -0.00001  -0.00001  -3.14157
   D17        0.00001  -0.00000   0.00000  -0.00000  -0.00000   0.00001
   D18        2.09691   0.00000   0.00000   0.00002   0.00002   2.09693
   D19       -2.09772  -0.00000   0.00000   0.00000   0.00000  -2.09771
   D20       -0.00039   0.00000   0.00000   0.00002   0.00002  -0.00037
   D21       -1.04466   0.00000   0.00000   0.00001   0.00001  -1.04464
   D22        1.04390  -0.00000   0.00000   0.00000   0.00000   1.04390
   D23        3.14123   0.00000   0.00000   0.00001   0.00001   3.14124
   D24        0.00000  -0.00000   0.00000  -0.00001  -0.00001  -0.00001
   D25        3.14158   0.00000   0.00000   0.00000   0.00000   3.14158
   D26        3.14157  -0.00000   0.00000  -0.00001  -0.00001   3.14156
   D27       -0.00003   0.00000   0.00000   0.00001   0.00001  -0.00003
   D28       -0.00001   0.00000   0.00000   0.00001   0.00001   0.00001
   D29        3.14159  -0.00000   0.00000  -0.00000  -0.00000   3.14159
   D30       -3.14159   0.00000   0.00000   0.00000   0.00000  -3.14159
   D31        0.00001  -0.00000   0.00000  -0.00001  -0.00001  -0.00000
   D32        0.00001  -0.00000   0.00000  -0.00000  -0.00000   0.00000
   D33       -3.14158  -0.00000   0.00000  -0.00001  -0.00001   3.14159
   D34        3.14159   0.00000   0.00000   0.00001   0.00001  -3.14158
   D35        0.00000   0.00000   0.00000   0.00000   0.00000   0.00000
   D36        0.00001  -0.00000   0.00000  -0.00001  -0.00001  -0.00000
   D37       -3.14159  -0.00000   0.00000  -0.00000  -0.00000  -3.14159
         Item               Value     Threshold  Converged?
 Maximum Force            0.000006     0.000450     YES
 RMS     Force            0.000001     0.000300     YES
 Maximum Displacement     0.000045     0.001800     YES
 RMS     Displacement     0.000012     0.001200     YES
 Predicted change in Energy=-2.571480D-10
 Optimization completed.
    -- Stationary point found.
                           ----------------------------
                           !   Optimized Parameters   !
                           ! (Angstroms and Degrees)  !
 --------------------------                            --------------------------
 ! Name  Definition              Value          Derivative Info.                !
 --------------------------------------------------------------------------------
 ! R1    R(1,2)                  1.4191         -DE/DX =    0.0                 !
 ! R2    R(1,13)                 1.0951         -DE/DX =    0.0                 !
 ! R3    R(1,14)                 1.0993         -DE/DX =    0.0                 !
 ! R4    R(1,15)                 1.0993         -DE/DX =    0.0                 !
 ! R5    R(2,3)                  1.3171         -DE/DX =    0.0                 !
 ! R6    R(3,4)                  1.2228         -DE/DX =    0.0                 !
 ! R7    R(3,5)                  1.4854         -DE/DX =    0.0                 !
 ! R8    R(5,6)                  1.3379         -DE/DX =    0.0                 !
 ! R9    R(5,11)                 1.4107         -DE/DX =    0.0                 !
 ! R10   R(6,7)                  1.3204         -DE/DX =    0.0                 !
 ! R11   R(7,8)                  1.5053         -DE/DX =    0.0                 !
 ! R12   R(7,9)                  1.413          -DE/DX =    0.0                 !
 ! R13   R(8,16)                 1.1011         -DE/DX =    0.0                 !
 ! R14   R(8,17)                 1.1011         -DE/DX =    0.0                 !
 ! R15   R(8,18)                 1.0968         -DE/DX =    0.0                 !
 ! R16   R(9,10)                 1.3784         -DE/DX =    0.0                 !
 ! R17   R(9,19)                 1.0927         -DE/DX =    0.0                 !
 ! R18   R(10,11)                1.4067         -DE/DX =    0.0                 !
 ! R19   R(10,20)                1.0914         -DE/DX =    0.0                 !
 ! R20   R(11,12)                1.3276         -DE/DX =    0.0                 !
 ! R21   R(12,21)                0.9837         -DE/DX =    0.0                 !
 ! A1    A(2,1,13)             106.0193         -DE/DX =    0.0                 !
 ! A2    A(2,1,14)             110.789          -DE/DX =    0.0                 !
 ! A3    A(2,1,15)             110.7899         -DE/DX =    0.0                 !
 ! A4    A(13,1,14)            110.3223         -DE/DX =    0.0                 !
 ! A5    A(13,1,15)            110.3227         -DE/DX =    0.0                 !
 ! A6    A(14,1,15)            108.5939         -DE/DX =    0.0                 !
 ! A7    A(1,2,3)              116.637          -DE/DX =    0.0                 !
 ! A8    A(2,3,4)              122.6625         -DE/DX =    0.0                 !
 ! A9    A(2,3,5)              114.9155         -DE/DX =    0.0                 !
 ! A10   A(4,3,5)              122.422          -DE/DX =    0.0                 !
 ! A11   A(3,5,6)              118.6799         -DE/DX =    0.0                 !
 ! A12   A(3,5,11)             118.2367         -DE/DX =    0.0                 !
 ! A13   A(6,5,11)             123.0834         -DE/DX =    0.0                 !
 ! A14   A(5,6,7)              120.1371         -DE/DX =    0.0                 !
 ! A15   A(6,7,8)              118.2581         -DE/DX =    0.0                 !
 ! A16   A(6,7,9)              120.7537         -DE/DX =    0.0                 !
 ! A17   A(8,7,9)              120.9881         -DE/DX =    0.0                 !
 ! A18   A(7,8,16)             111.1926         -DE/DX =    0.0                 !
 ! A19   A(7,8,17)             111.1935         -DE/DX =    0.0                 !
 ! A20   A(7,8,18)             109.4299         -DE/DX =    0.0                 !
 ! A21   A(16,8,17)            107.4312         -DE/DX =    0.0                 !
 ! A22   A(16,8,18)            108.759          -DE/DX =    0.0                 !
 ! A23   A(17,8,18)            108.76           -DE/DX =    0.0                 !
 ! A24   A(7,9,10)             120.0475         -DE/DX =    0.0                 !
 ! A25   A(7,9,19)             119.804          -DE/DX =    0.0                 !
 ! A26   A(10,9,19)            120.1485         -DE/DX =    0.0                 !
 ! A27   A(9,10,11)            119.1554         -DE/DX =    0.0                 !
 ! A28   A(9,10,20)            122.1965         -DE/DX =    0.0                 !
 ! A29   A(11,10,20)           118.648          -DE/DX =    0.0                 !
 ! A30   A(5,11,10)            116.8228         -DE/DX =    0.0                 !
 ! A31   A(5,11,12)            124.0358         -DE/DX =    0.0                 !
 ! A32   A(10,11,12)           119.1415         -DE/DX =    0.0                 !
 ! A33   A(11,12,21)           107.1506         -DE/DX =    0.0                 !
 ! D1    D(13,1,2,3)           180.0            -DE/DX =    0.0                 !
 ! D2    D(14,1,2,3)           -60.2977         -DE/DX =    0.0                 !
 ! D3    D(15,1,2,3)            60.2966         -DE/DX =    0.0                 !
 ! D4    D(1,2,3,4)              0.0004         -DE/DX =    0.0                 !
 ! D5    D(1,2,3,5)            180.0005         -DE/DX =    0.0                 !
 ! D6    D(2,3,5,6)              0.0            -DE/DX =    0.0                 !
 ! D7    D(2,3,5,11)          -179.9995         -DE/DX =    0.0                 !
 ! D8    D(4,3,5,6)            180.0001         -DE/DX =    0.0                 !
 ! D9    D(4,3,5,11)             0.0006         -DE/DX =    0.0                 !
 ! D10   D(3,5,6,7)           -180.0            -DE/DX =    0.0                 !
 ! D11   D(11,5,6,7)            -0.0005         -DE/DX =    0.0                 !
 ! D12   D(3,5,11,10)          179.9995         -DE/DX =    0.0                 !
 ! D13   D(3,5,11,12)           -0.0005         -DE/DX =    0.0                 !
 ! D14   D(6,5,11,10)            0.0001         -DE/DX =    0.0                 !
 ! D15   D(6,5,11,12)          180.0            -DE/DX =    0.0                 !
 ! D16   D(5,6,7,8)           -179.9982         -DE/DX =    0.0                 !
 ! D17   D(5,6,7,9)              0.0005         -DE/DX =    0.0                 !
 ! D18   D(6,7,8,16)           120.1442         -DE/DX =    0.0                 !
 ! D19   D(6,7,8,17)          -120.1902         -DE/DX =    0.0                 !
 ! D20   D(6,7,8,18)            -0.0221         -DE/DX =    0.0                 !
 ! D21   D(9,7,8,16)           -59.8545         -DE/DX =    0.0                 !
 ! D22   D(9,7,8,17)            59.8111         -DE/DX =    0.0                 !
 ! D23   D(9,7,8,18)           179.9792         -DE/DX =    0.0                 !
 ! D24   D(6,7,9,10)             0.0            -DE/DX =    0.0                 !
 ! D25   D(6,7,9,19)           179.9994         -DE/DX =    0.0                 !
 ! D26   D(8,7,9,10)           179.9987         -DE/DX =    0.0                 !
 ! D27   D(8,7,9,19)            -0.0019         -DE/DX =    0.0                 !
 ! D28   D(7,9,10,11)           -0.0005         -DE/DX =    0.0                 !
 ! D29   D(7,9,10,20)          180.0            -DE/DX =    0.0                 !
 ! D30   D(19,9,10,11)        -179.9999         -DE/DX =    0.0                 !
 ! D31   D(19,9,10,20)           0.0006         -DE/DX =    0.0                 !
 ! D32   D(9,10,11,5)            0.0004         -DE/DX =    0.0                 !
 ! D33   D(9,10,11,12)         180.0005         -DE/DX =    0.0                 !
 ! D34   D(20,10,11,5)        -180.0            -DE/DX =    0.0                 !
 ! D35   D(20,10,11,12)          0.0            -DE/DX =    0.0                 !
 ! D36   D(5,11,12,21)           0.0004         -DE/DX =    0.0                 !
 ! D37   D(10,11,12,21)       -179.9996         -DE/DX =    0.0                 !
 --------------------------------------------------------------------------------
 GradGradGradGradGradGradGradGradGradGradGradGradGradGradGradGradGradGrad

                          Input orientation:                          
 ---------------------------------------------------------------------
 Center     Atomic      Atomic             Coordinates (Angstroms)
 Number     Number       Type             X           Y           Z
 ---------------------------------------------------------------------
      1          6           0        3.404670   -1.381570    0.000000
      2          8           0        1.995170   -1.216470   -0.000010
      3          6           0        1.545650    0.021520    0.000000
      4          8           0        2.288030    0.993170    0.000010
      5          6           0        0.065820    0.149930    0.000000
      6          7           0       -0.675340   -0.963950   -0.000010
      7          6           0       -1.993320   -0.883290   -0.000010
      8          6           0       -2.785650   -2.163170    0.000020
      9          6           0       -2.640330    0.372870   -0.000010
     10          6           0       -1.895670    1.532760   -0.000010
     11          6           0       -0.491650    1.445770    0.000000
     12          8           0        0.225340    2.563160    0.000010
     13          1           0        3.582360   -2.462110   -0.000010
     14          1           0        3.851460   -0.921160   -0.892720
     15          1           0        3.851460   -0.921170    0.892720
     16          1           0       -3.433540   -2.230230    0.887840
     17          1           0       -3.434150   -2.229910   -0.887370
     18          1           0       -2.098260   -3.017810   -0.000360
     19          1           0       -3.731930    0.421530   -0.000020
     20          1           0       -2.358670    2.521040   -0.000010
     21          1           0        1.173050    2.299690    0.000010
 ---------------------------------------------------------------------
                    Distance matrix (angstroms):
                    1          2          3          4          5
     1  C    0.000000
     2  O    1.419136   0.000000
     3  C    2.329081   1.317075   0.000000
     4  O    2.624171   2.228963   1.222797   0.000000
     5  C    3.673338   2.364200   1.485391   2.376820   0.000000
     6  N    4.101328   2.682422   2.429804   3.551321   1.337926
     7  C    5.420939   4.002382   3.652806   4.674512   2.303823
     8  C    6.239468   4.873652   4.851085   5.975342   3.671691
     9  C    6.294449   4.900394   4.200699   4.967243   2.715318
    10  C    6.048713   4.764127   3.758528   4.218353   2.399930
    11  C    4.814059   3.643048   2.485775   2.816286   1.410664
    12  O    5.066462   4.173476   2.864115   2.592211   2.418497
    13  H    1.095053   2.017620   3.211947   3.689749   4.380503
    14  H    1.099340   2.080854   2.646196   2.627915   4.034260
    15  H    1.099335   2.080861   2.646200   2.627916   4.034263
    16  H    6.947633   5.593468   5.536332   6.626833   4.324227
    17  H    6.948134   5.593924   5.536675   6.627144   4.324448
    18  H    5.741038   4.472247   4.745061   5.943694   3.836381
    19  H    7.360858   5.956737   5.292718   6.047040   3.807449
    20  H    6.960349   5.738023   4.635873   4.891442   3.391211
    21  H    4.304858   3.610992   2.308439   1.717607   2.418145
                    6          7          8          9         10
     6  N    0.000000
     7  C    1.320446   0.000000
     8  C    2.427249   1.505284   0.000000
     9  C    2.376610   1.412997   2.540200   0.000000
    10  C    2.778987   2.418023   3.801574   1.378355   0.000000
    11  C    2.416711   2.771197   4.276317   2.401654   1.406712
    12  O    3.640292   4.098838   5.603950   3.606859   2.358052
    13  H    4.513590   5.794901   6.375023   6.838054   6.779956
    14  H    4.614183   5.912683   6.811079   6.679430   6.312540
    15  H    4.614186   5.912686   6.811072   6.679434   6.312546
    16  H    3.162184   2.162581   1.101128   2.862445   4.160939
    17  H    3.162451   2.162587   1.101121   2.862171   4.160771
    18  H    2.498608   2.137098   1.096775   3.433737   4.555077
    19  H    3.355935   2.173780   2.752475   1.092684   2.146318
    20  H    3.870240   3.423878   4.703630   2.166556   1.091360
    21  H    3.750719   4.489684   5.965603   4.272529   3.163104
                   11         12         13         14         15
    11  C    0.000000
    12  O    1.327643   0.000000
    13  H    5.645271   6.043420   0.000000
    14  H    5.026123   5.107465   1.801075   0.000000
    15  H    5.026128   5.107468   1.801077   1.785440   0.000000
    16  H    4.791237   6.095263   7.075655   7.612837   7.401681
    17  H    4.791279   6.095312   7.076209   7.402227   7.613254
    18  H    4.743916   6.045357   5.707736   6.371139   6.371237
    19  H    3.398306   4.499618   7.862202   7.752905   7.752911
    20  H    2.154523   2.584353   7.754200   7.156213   7.156220
    21  H    1.870937   0.983652   5.336620   4.283074   4.283077
                   16         17         18         19         20
    16  H    0.000000
    17  H    1.775210   0.000000
    18  H    1.786660   1.786666   0.000000
    19  H    2.812323   2.811796   3.807616   0.000000
    20  H    4.951585   4.951322   5.544968   2.508742   0.000000
    21  H    6.521433   6.521580   6.243178   5.252267   3.538650
                   21
    21  H    0.000000
 Stoichiometry    C8H9NO3
 Framework group  C1[X(C8H9NO3)]
 Deg. of freedom    57
 Full point group                 C1      NOp   1
 Largest Abelian subgroup         C1      NOp   1
 Largest concise Abelian subgroup C1      NOp   1
                         Standard orientation:                         
 ---------------------------------------------------------------------
 Center     Atomic      Atomic             Coordinates (Angstroms)
 Number     Number       Type             X           Y           Z
 ---------------------------------------------------------------------
      1          6           0        3.404672   -1.381569   -0.000000
      2          8           0        1.995172   -1.216469   -0.000010
      3          6           0        1.545652    0.021520   -0.000000
      4          8           0        2.288031    0.993171    0.000010
      5          6           0        0.065822    0.149930   -0.000000
      6          7           0       -0.675338   -0.963951   -0.000010
      7          6           0       -1.993318   -0.883291   -0.000010
      8          6           0       -2.785647   -2.163171    0.000020
      9          6           0       -2.640328    0.372869   -0.000010
     10          6           0       -1.895669    1.532759   -0.000010
     11          6           0       -0.491649    1.445770   -0.000000
     12          8           0        0.225341    2.563160    0.000010
     13          1           0        3.582363   -2.462109   -0.000010
     14          1           0        3.851462   -0.921159   -0.892720
     15          1           0        3.851462   -0.921169    0.892720
     16          1           0       -3.433537   -2.230232    0.887840
     17          1           0       -3.434147   -2.229912   -0.887370
     18          1           0       -2.098257   -3.017811   -0.000360
     19          1           0       -3.731928    0.421528   -0.000020
     20          1           0       -2.358669    2.521039   -0.000010
     21          1           0        1.173051    2.299690    0.000010
 ---------------------------------------------------------------------
 Rotational constants (GHZ):           1.4731650           0.7344241           0.4931501
 Unable to Open any file for archive entry.
 1\1\GINC-NOTCH164\FOpt\RwB97XD\def2SVP\C8H9N1O3\U6053008\12-Jul-2024\0
 \\#N OPT FREQ=NORAMAN Integral(Ultrafine) wB97XD def2SVP\\12318939_2\\
 0,1\C,3.40467,-1.38157,0.\O,1.99517,-1.21647,-0.00001\C,1.54565,0.0215
 2,0.\O,2.28803,0.99317,0.00001\C,0.06582,0.14993,0.\N,-0.67534,-0.9639
 5,-0.00001\C,-1.99332,-0.88329,-0.00001\C,-2.78565,-2.16317,0.00002\C,
 -2.64033,0.37287,-0.00001\C,-1.89567,1.53276,-0.00001\C,-0.49165,1.445
 77,0.\O,0.22534,2.56316,0.00001\H,3.58236,-2.46211,-0.00001\H,3.85146,
 -0.92116,-0.89272\H,3.85146,-0.92117,0.89272\H,-3.43354,-2.23023,0.887
 84\H,-3.43415,-2.22991,-0.88737\H,-2.09826,-3.01781,-0.00036\H,-3.7319
 3,0.42153,-0.00002\H,-2.35867,2.52104,-0.00001\H,1.17305,2.29969,0.000
 01\\Version=ES64L-G16RevC.01\State=1-A\HF=-590.0926282\RMSD=6.565e-09\
 RMSF=2.551e-06\Dipole=-0.2217189,-0.4573146,0.0000235\Quadrupole=8.100
 0461,-4.9666602,-3.133386,-3.9283909,-0.000122,-0.000142\PG=C01 [X(C8H
 9N1O3)]\\@
 The archive entry for this job was punched.


 HE THAT RISETH LATE MUST TROT ALL DAY.

                  -- BENJAMIN FRANKLIN
 Job cpu time:       0 days  0 hours  7 minutes 39.1 seconds.
 Elapsed time:       0 days  0 hours  0 minutes 29.4 seconds.
 File lengths (MBytes):  RWF=     44 Int=      0 D2E=      0 Chk=      5 Scr=      2
 Normal termination of Gaussian 16 at Fri Jul 12 13:08:33 2024.
 Link1:  Proceeding to internal job step number  2.
 --------------------------------------------------------------------
 #N Geom=AllCheck Guess=TCheck SCRF=Check GenChk RwB97XD/def2SVP Freq
 --------------------------------------------------------------------
 1/10=4,29=7,30=1,38=1,40=1/1,3;
 2/12=2,40=1/2;
 3/5=43,7=101,11=2,14=-4,25=1,30=1,70=2,71=2,74=-58,75=-5,116=1,140=1/1,2,3;
 4/5=101/1;
 5/5=2,38=6,98=1/2;
 8/6=4,10=90,11=11/1;
 11/6=1,8=1,9=11,15=111,16=1/1,2,10;
 10/6=1/2;
 6/7=2,8=2,9=2,10=2,28=1/1;
 7/8=1,10=1,25=1/1,2,3,16;
 1/10=4,30=1/3;
 99//99;
 Structure from the checkpoint file:  "12318939_2.chk"
 ----------
 12318939_2
 ----------
 Charge =  0 Multiplicity = 1
 Redundant internal coordinates found in file.  (old form).
 C,0,3.40467,-1.38157,0.
 O,0,1.99517,-1.21647,-0.00001
 C,0,1.54565,0.02152,0.
 O,0,2.28803,0.99317,0.00001
 C,0,0.06582,0.14993,0.
 N,0,-0.67534,-0.96395,-0.00001
 C,0,-1.99332,-0.88329,-0.00001
 C,0,-2.78565,-2.16317,0.00002
 C,0,-2.64033,0.37287,-0.00001
 C,0,-1.89567,1.53276,-0.00001
 C,0,-0.49165,1.44577,0.
 O,0,0.22534,2.56316,0.00001
 H,0,3.58236,-2.46211,-0.00001
 H,0,3.85146,-0.92116,-0.89272
 H,0,3.85146,-0.92117,0.89272
 H,0,-3.43354,-2.23023,0.88784
 H,0,-3.43415,-2.22991,-0.88737
 H,0,-2.09826,-3.01781,-0.00036
 H,0,-3.73193,0.42153,-0.00002
 H,0,-2.35867,2.52104,-0.00001
 H,0,1.17305,2.29969,0.00001
 Recover connectivity data from disk.

 GradGradGradGradGradGradGradGradGradGradGradGradGradGradGradGradGradGrad
 Berny optimization.
 Initialization pass.
                           ----------------------------
                           !    Initial Parameters    !
                           ! (Angstroms and Degrees)  !
 --------------------------                            --------------------------
 ! Name  Definition              Value          Derivative Info.                !
 --------------------------------------------------------------------------------
 ! R1    R(1,2)                  1.4191         calculate D2E/DX2 analytically  !
 ! R2    R(1,13)                 1.0951         calculate D2E/DX2 analytically  !
 ! R3    R(1,14)                 1.0993         calculate D2E/DX2 analytically  !
 ! R4    R(1,15)                 1.0993         calculate D2E/DX2 analytically  !
 ! R5    R(2,3)                  1.3171         calculate D2E/DX2 analytically  !
 ! R6    R(3,4)                  1.2228         calculate D2E/DX2 analytically  !
 ! R7    R(3,5)                  1.4854         calculate D2E/DX2 analytically  !
 ! R8    R(5,6)                  1.3379         calculate D2E/DX2 analytically  !
 ! R9    R(5,11)                 1.4107         calculate D2E/DX2 analytically  !
 ! R10   R(6,7)                  1.3204         calculate D2E/DX2 analytically  !
 ! R11   R(7,8)                  1.5053         calculate D2E/DX2 analytically  !
 ! R12   R(7,9)                  1.413          calculate D2E/DX2 analytically  !
 ! R13   R(8,16)                 1.1011         calculate D2E/DX2 analytically  !
 ! R14   R(8,17)                 1.1011         calculate D2E/DX2 analytically  !
 ! R15   R(8,18)                 1.0968         calculate D2E/DX2 analytically  !
 ! R16   R(9,10)                 1.3784         calculate D2E/DX2 analytically  !
 ! R17   R(9,19)                 1.0927         calculate D2E/DX2 analytically  !
 ! R18   R(10,11)                1.4067         calculate D2E/DX2 analytically  !
 ! R19   R(10,20)                1.0914         calculate D2E/DX2 analytically  !
 ! R20   R(11,12)                1.3276         calculate D2E/DX2 analytically  !
 ! R21   R(12,21)                0.9837         calculate D2E/DX2 analytically  !
 ! A1    A(2,1,13)             106.0193         calculate D2E/DX2 analytically  !
 ! A2    A(2,1,14)             110.789          calculate D2E/DX2 analytically  !
 ! A3    A(2,1,15)             110.7899         calculate D2E/DX2 analytically  !
 ! A4    A(13,1,14)            110.3223         calculate D2E/DX2 analytically  !
 ! A5    A(13,1,15)            110.3227         calculate D2E/DX2 analytically  !
 ! A6    A(14,1,15)            108.5939         calculate D2E/DX2 analytically  !
 ! A7    A(1,2,3)              116.637          calculate D2E/DX2 analytically  !
 ! A8    A(2,3,4)              122.6625         calculate D2E/DX2 analytically  !
 ! A9    A(2,3,5)              114.9155         calculate D2E/DX2 analytically  !
 ! A10   A(4,3,5)              122.422          calculate D2E/DX2 analytically  !
 ! A11   A(3,5,6)              118.6799         calculate D2E/DX2 analytically  !
 ! A12   A(3,5,11)             118.2367         calculate D2E/DX2 analytically  !
 ! A13   A(6,5,11)             123.0834         calculate D2E/DX2 analytically  !
 ! A14   A(5,6,7)              120.1371         calculate D2E/DX2 analytically  !
 ! A15   A(6,7,8)              118.2581         calculate D2E/DX2 analytically  !
 ! A16   A(6,7,9)              120.7537         calculate D2E/DX2 analytically  !
 ! A17   A(8,7,9)              120.9881         calculate D2E/DX2 analytically  !
 ! A18   A(7,8,16)             111.1926         calculate D2E/DX2 analytically  !
 ! A19   A(7,8,17)             111.1935         calculate D2E/DX2 analytically  !
 ! A20   A(7,8,18)             109.4299         calculate D2E/DX2 analytically  !
 ! A21   A(16,8,17)            107.4312         calculate D2E/DX2 analytically  !
 ! A22   A(16,8,18)            108.759          calculate D2E/DX2 analytically  !
 ! A23   A(17,8,18)            108.76           calculate D2E/DX2 analytically  !
 ! A24   A(7,9,10)             120.0475         calculate D2E/DX2 analytically  !
 ! A25   A(7,9,19)             119.804          calculate D2E/DX2 analytically  !
 ! A26   A(10,9,19)            120.1485         calculate D2E/DX2 analytically  !
 ! A27   A(9,10,11)            119.1554         calculate D2E/DX2 analytically  !
 ! A28   A(9,10,20)            122.1965         calculate D2E/DX2 analytically  !
 ! A29   A(11,10,20)           118.648          calculate D2E/DX2 analytically  !
 ! A30   A(5,11,10)            116.8228         calculate D2E/DX2 analytically  !
 ! A31   A(5,11,12)            124.0358         calculate D2E/DX2 analytically  !
 ! A32   A(10,11,12)           119.1415         calculate D2E/DX2 analytically  !
 ! A33   A(11,12,21)           107.1506         calculate D2E/DX2 analytically  !
 ! D1    D(13,1,2,3)           180.0            calculate D2E/DX2 analytically  !
 ! D2    D(14,1,2,3)           -60.2977         calculate D2E/DX2 analytically  !
 ! D3    D(15,1,2,3)            60.2966         calculate D2E/DX2 analytically  !
 ! D4    D(1,2,3,4)              0.0004         calculate D2E/DX2 analytically  !
 ! D5    D(1,2,3,5)           -179.9995         calculate D2E/DX2 analytically  !
 ! D6    D(2,3,5,6)              0.0            calculate D2E/DX2 analytically  !
 ! D7    D(2,3,5,11)          -179.9995         calculate D2E/DX2 analytically  !
 ! D8    D(4,3,5,6)           -179.9999         calculate D2E/DX2 analytically  !
 ! D9    D(4,3,5,11)             0.0006         calculate D2E/DX2 analytically  !
 ! D10   D(3,5,6,7)            180.0            calculate D2E/DX2 analytically  !
 ! D11   D(11,5,6,7)            -0.0005         calculate D2E/DX2 analytically  !
 ! D12   D(3,5,11,10)          179.9995         calculate D2E/DX2 analytically  !
 ! D13   D(3,5,11,12)           -0.0005         calculate D2E/DX2 analytically  !
 ! D14   D(6,5,11,10)            0.0001         calculate D2E/DX2 analytically  !
 ! D15   D(6,5,11,12)          180.0            calculate D2E/DX2 analytically  !
 ! D16   D(5,6,7,8)           -179.9982         calculate D2E/DX2 analytically  !
 ! D17   D(5,6,7,9)              0.0005         calculate D2E/DX2 analytically  !
 ! D18   D(6,7,8,16)           120.1442         calculate D2E/DX2 analytically  !
 ! D19   D(6,7,8,17)          -120.1902         calculate D2E/DX2 analytically  !
 ! D20   D(6,7,8,18)            -0.0221         calculate D2E/DX2 analytically  !
 ! D21   D(9,7,8,16)           -59.8545         calculate D2E/DX2 analytically  !
 ! D22   D(9,7,8,17)            59.8111         calculate D2E/DX2 analytically  !
 ! D23   D(9,7,8,18)           179.9792         calculate D2E/DX2 analytically  !
 ! D24   D(6,7,9,10)             0.0            calculate D2E/DX2 analytically  !
 ! D25   D(6,7,9,19)           179.9994         calculate D2E/DX2 analytically  !
 ! D26   D(8,7,9,10)           179.9987         calculate D2E/DX2 analytically  !
 ! D27   D(8,7,9,19)            -0.0019         calculate D2E/DX2 analytically  !
 ! D28   D(7,9,10,11)           -0.0005         calculate D2E/DX2 analytically  !
 ! D29   D(7,9,10,20)          180.0            calculate D2E/DX2 analytically  !
 ! D30   D(19,9,10,11)        -179.9999         calculate D2E/DX2 analytically  !
 ! D31   D(19,9,10,20)           0.0006         calculate D2E/DX2 analytically  !
 ! D32   D(9,10,11,5)            0.0004         calculate D2E/DX2 analytically  !
 ! D33   D(9,10,11,12)        -179.9995         calculate D2E/DX2 analytically  !
 ! D34   D(20,10,11,5)         180.0            calculate D2E/DX2 analytically  !
 ! D35   D(20,10,11,12)          0.0            calculate D2E/DX2 analytically  !
 ! D36   D(5,11,12,21)           0.0004         calculate D2E/DX2 analytically  !
 ! D37   D(10,11,12,21)       -179.9996         calculate D2E/DX2 analytically  !
 --------------------------------------------------------------------------------
 Trust Radius=3.00D-01 FncErr=1.00D-07 GrdErr=1.00D-07 EigMax=2.50D+02 EigMin=1.00D-04
 Number of steps in this run=      2 maximum allowed number of steps=      2.
 GradGradGradGradGradGradGradGradGradGradGradGradGradGradGradGradGradGrad

                          Input orientation:                          
 ---------------------------------------------------------------------
 Center     Atomic      Atomic             Coordinates (Angstroms)
 Number     Number       Type             X           Y           Z
 ---------------------------------------------------------------------
      1          6           0        3.404670   -1.381570    0.000000
      2          8           0        1.995170   -1.216470   -0.000010
      3          6           0        1.545650    0.021520    0.000000
      4          8           0        2.288030    0.993170    0.000010
      5          6           0        0.065820    0.149930    0.000000
      6          7           0       -0.675340   -0.963950   -0.000010
      7          6           0       -1.993320   -0.883290   -0.000010
      8          6           0       -2.785650   -2.163170    0.000020
      9          6           0       -2.640330    0.372870   -0.000010
     10          6           0       -1.895670    1.532760   -0.000010
     11          6           0       -0.491650    1.445770    0.000000
     12          8           0        0.225340    2.563160    0.000010
     13          1           0        3.582360   -2.462110   -0.000010
     14          1           0        3.851460   -0.921160   -0.892720
     15          1           0        3.851460   -0.921170    0.892720
     16          1           0       -3.433540   -2.230230    0.887840
     17          1           0       -3.434150   -2.229910   -0.887370
     18          1           0       -2.098260   -3.017810   -0.000360
     19          1           0       -3.731930    0.421530   -0.000020
     20          1           0       -2.358670    2.521040   -0.000010
     21          1           0        1.173050    2.299690    0.000010
 ---------------------------------------------------------------------
                    Distance matrix (angstroms):
                    1          2          3          4          5
     1  C    0.000000
     2  O    1.419136   0.000000
     3  C    2.329081   1.317075   0.000000
     4  O    2.624171   2.228963   1.222797   0.000000
     5  C    3.673338   2.364200   1.485391   2.376820   0.000000
     6  N    4.101328   2.682422   2.429804   3.551321   1.337926
     7  C    5.420939   4.002382   3.652806   4.674512   2.303823
     8  C    6.239468   4.873652   4.851085   5.975342   3.671691
     9  C    6.294449   4.900394   4.200699   4.967243   2.715318
    10  C    6.048713   4.764127   3.758528   4.218353   2.399930
    11  C    4.814059   3.643048   2.485775   2.816286   1.410664
    12  O    5.066462   4.173476   2.864115   2.592211   2.418497
    13  H    1.095053   2.017620   3.211947   3.689749   4.380503
    14  H    1.099340   2.080854   2.646196   2.627915   4.034260
    15  H    1.099335   2.080861   2.646200   2.627916   4.034263
    16  H    6.947633   5.593468   5.536332   6.626833   4.324227
    17  H    6.948134   5.593924   5.536675   6.627144   4.324448
    18  H    5.741038   4.472247   4.745061   5.943694   3.836381
    19  H    7.360858   5.956737   5.292718   6.047040   3.807449
    20  H    6.960349   5.738023   4.635873   4.891442   3.391211
    21  H    4.304858   3.610992   2.308439   1.717607   2.418145
                    6          7          8          9         10
     6  N    0.000000
     7  C    1.320446   0.000000
     8  C    2.427249   1.505284   0.000000
     9  C    2.376610   1.412997   2.540200   0.000000
    10  C    2.778987   2.418023   3.801574   1.378355   0.000000
    11  C    2.416711   2.771197   4.276317   2.401654   1.406712
    12  O    3.640292   4.098838   5.603950   3.606859   2.358052
    13  H    4.513590   5.794901   6.375023   6.838054   6.779956
    14  H    4.614183   5.912683   6.811079   6.679430   6.312540
    15  H    4.614186   5.912686   6.811072   6.679434   6.312546
    16  H    3.162184   2.162581   1.101128   2.862445   4.160939
    17  H    3.162451   2.162587   1.101121   2.862171   4.160771
    18  H    2.498608   2.137098   1.096775   3.433737   4.555077
    19  H    3.355935   2.173780   2.752475   1.092684   2.146318
    20  H    3.870240   3.423878   4.703630   2.166556   1.091360
    21  H    3.750719   4.489684   5.965603   4.272529   3.163104
                   11         12         13         14         15
    11  C    0.000000
    12  O    1.327643   0.000000
    13  H    5.645271   6.043420   0.000000
    14  H    5.026123   5.107465   1.801075   0.000000
    15  H    5.026128   5.107468   1.801077   1.785440   0.000000
    16  H    4.791237   6.095263   7.075655   7.612837   7.401681
    17  H    4.791279   6.095312   7.076209   7.402227   7.613254
    18  H    4.743916   6.045357   5.707736   6.371139   6.371237
    19  H    3.398306   4.499618   7.862202   7.752905   7.752911
    20  H    2.154523   2.584353   7.754200   7.156213   7.156220
    21  H    1.870937   0.983652   5.336620   4.283074   4.283077
                   16         17         18         19         20
    16  H    0.000000
    17  H    1.775210   0.000000
    18  H    1.786660   1.786666   0.000000
    19  H    2.812323   2.811796   3.807616   0.000000
    20  H    4.951585   4.951322   5.544968   2.508742   0.000000
    21  H    6.521433   6.521580   6.243178   5.252267   3.538650
                   21
    21  H    0.000000
[...]
 Alpha virt. eigenvalues --    0.32213   0.33626   0.34541   0.36224   0.36798
 Alpha virt. eigenvalues --    0.37876   0.38150   0.38485   0.39189   0.40063
 Alpha virt. eigenvalues --    0.41315   0.42742   0.42823   0.43037   0.44493
 Alpha virt. eigenvalues --    0.45986   0.46344   0.47646   0.48164   0.49239
 Alpha virt. eigenvalues --    0.49799   0.50754   0.51175   0.51776   0.51845
 Alpha virt. eigenvalues --    0.54112   0.54242   0.55401   0.56266   0.56283
 Alpha virt. eigenvalues --    0.56875   0.57300   0.59267   0.59517   0.59980
 Alpha virt. eigenvalues --    0.61254   0.62128   0.64378   0.67107   0.68336
 Alpha virt. eigenvalues --    0.68394   0.70037   0.70378   0.71756   0.72849
 Alpha virt. eigenvalues --    0.73320   0.74359   0.74386   0.76065   0.78113
 Alpha virt. eigenvalues --    0.79010   0.80386   0.80623   0.84373   0.85943
 Alpha virt. eigenvalues --    0.85992   0.87284   0.88890   0.89253   0.90244
 Alpha virt. eigenvalues --    0.91761   0.92590   0.94282   0.94644   0.96747
 Alpha virt. eigenvalues --    0.98789   0.99841   1.00640   1.02125   1.04622
 Alpha virt. eigenvalues --    1.05267   1.06093   1.06385   1.10160   1.10775
 Alpha virt. eigenvalues --    1.12151   1.13134   1.13613   1.18075   1.19190
 Alpha virt. eigenvalues --    1.19903   1.21640   1.27041   1.28564   1.30205
 Alpha virt. eigenvalues --    1.32331   1.33771   1.36613   1.37894   1.38032
 Alpha virt. eigenvalues --    1.43418   1.45078   1.45893   1.46662   1.48282
 Alpha virt. eigenvalues --    1.49857   1.51851   1.54645   1.55687   1.55946
 Alpha virt. eigenvalues --    1.57031   1.58084   1.58325   1.60288   1.60525
 Alpha virt. eigenvalues --    1.61033   1.62873   1.63875   1.65036   1.65194
 Alpha virt. eigenvalues --    1.66027   1.67246   1.69695   1.69801   1.72034
 Alpha virt. eigenvalues --    1.73598   1.75002   1.76969   1.80184   1.80577
 Alpha virt. eigenvalues --    1.82989   1.85426   1.86422   1.87316   1.90224
 Alpha virt. eigenvalues --    1.90927   1.91847   1.93832   1.94871   1.99625
 Alpha virt. eigenvalues --    1.99802   2.01940   2.03859   2.05169   2.05666
 Alpha virt. eigenvalues --    2.07985   2.09686   2.09806   2.10507   2.11091
 Alpha virt. eigenvalues --    2.15894   2.16846   2.17803   2.18381   2.20509
 Alpha virt. eigenvalues --    2.21753   2.23840   2.26378   2.26947   2.27778
 Alpha virt. eigenvalues --    2.30347   2.31798   2.33675   2.34271   2.34546
 Alpha virt. eigenvalues --    2.38862   2.40361   2.40921   2.42900   2.45113
 Alpha virt. eigenvalues --    2.45482   2.47056   2.49433   2.50773   2.53519
 Alpha virt. eigenvalues --    2.53683   2.54570   2.57389   2.58565   2.60268
 Alpha virt. eigenvalues --    2.61639   2.61694   2.63573   2.63837   2.65155
 Alpha virt. eigenvalues --    2.67307   2.69693   2.71978   2.73120   2.75184
 Alpha virt. eigenvalues --    2.77075   2.77665   2.80959   2.81634   2.83905
 Alpha virt. eigenvalues --    2.84342   2.86057   2.87991   2.89529   2.93598
 Alpha virt. eigenvalues --    2.94062   2.95186   2.97412   2.98539   2.99988
 Alpha virt. eigenvalues --    3.00871   3.02786   3.03966   3.05580   3.06222
 Alpha virt. eigenvalues --    3.09929   3.11456   3.12197   3.13732   3.15305
 Alpha virt. eigenvalues --    3.16622   3.17457   3.17694   3.19066   3.19858
 Alpha virt. eigenvalues --    3.20130   3.22029   3.23034   3.23485   3.26543
 Alpha virt. eigenvalues --    3.26817   3.27851   3.29855   3.31159   3.32804
 Alpha virt. eigenvalues --    3.33489   3.35117   3.35255   3.36138   3.37649
 Alpha virt. eigenvalues --    3.38033   3.39235   3.41441   3.41468   3.42349
 Alpha virt. eigenvalues --    3.43221   3.44237   3.45193   3.46225   3.47791
 Alpha virt. eigenvalues --    3.51099   3.51568   3.51736   3.55584   3.56451
 Alpha virt. eigenvalues --    3.56980   3.59480   3.60990   3.63090   3.64258
 Alpha virt. eigenvalues --    3.64354   3.67317   3.69287   3.70573   3.75386
 Alpha virt. eigenvalues --    3.78218   3.79957   3.81929   3.83423   3.84000
 Alpha virt. eigenvalues --    3.87076   3.87301   3.92153   3.96660   3.99759
 Alpha virt. eigenvalues --    4.02546   4.04972   4.07094   4.10755   4.11821
 Alpha virt. eigenvalues --    4.15268   4.19116   4.23042   4.23219   4.23524
 Alpha virt. eigenvalues --    4.23900   4.29024   4.31624   4.35193   4.36914
 Alpha virt. eigenvalues --    4.41408   4.42894   4.44135   4.46091   4.48152
 Alpha virt. eigenvalues --    4.48572   4.51141   4.54446   4.61108   4.62455
 Alpha virt. eigenvalues --    4.65062   4.70169   4.71004   4.74921   4.80791
 Alpha virt. eigenvalues --    4.87415   4.90477   4.91512   5.01321   5.02257
 Alpha virt. eigenvalues --    5.06927   5.11994   5.17387   5.22783   5.22913
 Alpha virt. eigenvalues --    5.24813   5.28402   5.30312   5.35939   5.36796
 Alpha virt. eigenvalues --    5.38198   5.43968   5.44156   5.51545   5.57178
 Alpha virt. eigenvalues --    5.58538   5.60438   5.63935   5.70995   5.74772
 Alpha virt. eigenvalues --    5.76543   5.89786   5.93087   5.95638   5.98776
 Alpha virt. eigenvalues --    6.09621   6.10574   6.14667   6.24700   6.25451
 Alpha virt. eigenvalues --    6.30019   6.41754   6.44062   6.51721   6.54239
 Alpha virt. eigenvalues --    6.65883   6.73765   6.76276   6.82543   6.82606
 Alpha virt. eigenvalues --    6.84793   6.91652   6.97518   7.09505   7.10919
 Alpha virt. eigenvalues --    7.18524   7.26143   7.34801   7.54149   7.56892
 Alpha virt. eigenvalues --   22.43746  22.48511  22.55451  22.81880  22.94765
 Alpha virt. eigenvalues --   23.27074  23.32758  23.60185  32.81278  43.99193
 Alpha virt. eigenvalues --   44.12187  44.29503
          Condensed to atoms (all electrons):
               1          2          3          4          5          6
     1  C    4.780257   0.221044  -0.043478   0.003291   0.004640  -0.000228
     2  O    0.221044   7.842199   0.440923  -0.071723  -0.090947  -0.022042
     3  C   -0.043478   0.440923   4.499920   0.509116   0.269920  -0.024028
     4  O    0.003291  -0.071723   0.509116   8.063020  -0.077439   0.003102
     5  C    0.004640  -0.090947   0.269920  -0.077439   5.398448   0.433877
     6  N   -0.000228  -0.022042  -0.024028   0.003102   0.433877   6.472566
     7  C   -0.000014  -0.000674  -0.003994   0.000246  -0.115645   0.593700
     8  C   -0.000003  -0.000112  -0.002393  -0.000005   0.004493  -0.059001
     9  C    0.000034  -0.000290   0.001839  -0.000830  -0.045103  -0.082290
    10  C   -0.000062   0.000356  -0.000410   0.006738  -0.032538  -0.015521
    11  C    0.000575   0.004845  -0.043640   0.007811   0.291724  -0.045752
    12  O    0.000220  -0.000353  -0.002353  -0.052004  -0.071098   0.003496
    13  H    0.397984  -0.031306   0.003149   0.001265   0.003019  -0.000020
    14  H    0.417729  -0.033363  -0.008874   0.005574  -0.003101  -0.000125
    15  H    0.417728  -0.033362  -0.008873   0.005574  -0.003101  -0.000125
    16  H    0.000000  -0.000001   0.000029  -0.000000  -0.000341  -0.000104
    17  H    0.000000  -0.000001   0.000029  -0.000000  -0.000341  -0.000099
    18  H   -0.000002   0.000073   0.000066   0.000003  -0.000139   0.009547
    19  H    0.000000  -0.000001  -0.000000  -0.000005  -0.002060   0.006628
    20  H   -0.000002   0.000004  -0.000315   0.000119   0.013867  -0.001165
    21  H    0.000042   0.000584  -0.013167   0.053557  -0.015474   0.000099
               7          8          9         10         11         12
     1  C   -0.000014  -0.000003   0.000034  -0.000062   0.000575   0.000220
     2  O   -0.000674  -0.000112  -0.000290   0.000356   0.004845  -0.000353
     3  C   -0.003994  -0.002393   0.001839  -0.000410  -0.043640  -0.002353
     4  O    0.000246  -0.000005  -0.000830   0.006738   0.007811  -0.052004
     5  C   -0.115645   0.004493  -0.045103  -0.032538   0.291724  -0.071098
     6  N    0.593700  -0.059001  -0.082290  -0.015521  -0.045752   0.003496
     7  C    4.878553   0.276789   0.431187  -0.026858  -0.014276   0.001064
     8  C    0.276789   5.000135  -0.077578   0.005453   0.000160   0.000061
     9  C    0.431187  -0.077578   5.033594   0.493890   0.001815   0.001488
    10  C   -0.026858   0.005453   0.493890   4.954876   0.475450  -0.071137
    11  C   -0.014276   0.000160   0.001815   0.475450   4.774832   0.382011
    12  O    0.001064   0.000061   0.001488  -0.071137   0.382011   7.912196
    13  H   -0.000010   0.000001   0.000004  -0.000008  -0.000011   0.000003
    14  H   -0.000005  -0.000000  -0.000001   0.000001   0.000116  -0.000005
    15  H   -0.000005  -0.000000  -0.000001   0.000001   0.000116  -0.000005
    16  H   -0.039522   0.401296   0.003773   0.000042   0.000139  -0.000002
    17  H   -0.039566   0.401344   0.003774   0.000046   0.000138  -0.000002
    18  H   -0.061303   0.430174   0.007036   0.000114   0.000073  -0.000004
    19  H   -0.031979   0.002054   0.406696  -0.047399   0.010520  -0.000045
    20  H    0.004872  -0.000267  -0.045486   0.429806  -0.050695   0.005799
    21  H    0.000298   0.000008  -0.000685   0.007152  -0.014642   0.301856
              13         14         15         16         17         18
     1  C    0.397984   0.417729   0.417728   0.000000   0.000000  -0.000002
     2  O   -0.031306  -0.033363  -0.033362  -0.000001  -0.000001   0.000073
     3  C    0.003149  -0.008874  -0.008873   0.000029   0.000029   0.000066
     4  O    0.001265   0.005574   0.005574  -0.000000  -0.000000   0.000003
     5  C    0.003019  -0.003101  -0.003101  -0.000341  -0.000341  -0.000139
     6  N   -0.000020  -0.000125  -0.000125  -0.000104  -0.000099   0.009547
     7  C   -0.000010  -0.000005  -0.000005  -0.039522  -0.039566  -0.061303
     8  C    0.000001  -0.000000  -0.000000   0.401296   0.401344   0.430174
     9  C    0.000004  -0.000001  -0.000001   0.003773   0.003774   0.007036
    10  C   -0.000008   0.000001   0.000001   0.000042   0.000046   0.000114
    11  C   -0.000011   0.000116   0.000116   0.000139   0.000138   0.000073
    12  O    0.000003  -0.000005  -0.000005  -0.000002  -0.000002  -0.000004
    13  H    0.531054  -0.022608  -0.022607   0.000000   0.000000  -0.000000
    14  H   -0.022608   0.548642  -0.037232  -0.000000   0.000000  -0.000000
    15  H   -0.022607  -0.037232   0.548640   0.000000  -0.000000  -0.000000
    16  H    0.000000  -0.000000   0.000000   0.561262  -0.033176  -0.016907
    17  H    0.000000   0.000000  -0.000000  -0.033176   0.561260  -0.016912
    18  H   -0.000000  -0.000000  -0.000000  -0.016907  -0.016912   0.506069
    19  H    0.000000   0.000000   0.000000  -0.000770  -0.000772  -0.000415
    20  H    0.000000  -0.000000  -0.000000   0.000001   0.000001   0.000014
    21  H    0.000001  -0.000015  -0.000015  -0.000000  -0.000000   0.000000
              19         20         21
     1  C    0.000000  -0.000002   0.000042
     2  O   -0.000001   0.000004   0.000584
     3  C   -0.000000  -0.000315  -0.013167
     4  O   -0.000005   0.000119   0.053557
     5  C   -0.002060   0.013867  -0.015474
     6  N    0.006628  -0.001165   0.000099
     7  C   -0.031979   0.004872   0.000298
     8  C    0.002054  -0.000267   0.000008
     9  C    0.406696  -0.045486  -0.000685
    10  C   -0.047399   0.429806   0.007152
    11  C    0.010520  -0.050695  -0.014642
    12  O   -0.000045   0.005799   0.301856
    13  H    0.000000   0.000000   0.000001
    14  H    0.000000  -0.000000  -0.000015
    15  H    0.000000  -0.000000  -0.000015
    16  H   -0.000770   0.000001  -0.000000
    17  H   -0.000772   0.000001  -0.000000
    18  H   -0.000415   0.000014   0.000000
    19  H    0.530924  -0.007147   0.000017
    20  H   -0.007147   0.508938  -0.000216
    21  H    0.000017  -0.000216   0.321446
 Mulliken charges:
               1
     1  C   -0.199756
     2  O   -0.225855
     3  C    0.426534
     4  O   -0.457408
     5  C    0.037340
     6  N   -0.272515
     7  C    0.147140
     8  C   -0.382610
     9  C   -0.132868
    10  C   -0.179990
    11  C    0.218691
    12  O   -0.411185
    13  H    0.140090
    14  H    0.133268
    15  H    0.133269
    16  H    0.124281
    17  H    0.124277
    18  H    0.142515
    19  H    0.133753
    20  H    0.141873
    21  H    0.359155
 Sum of Mulliken charges =  -0.00000
 Mulliken charges with hydrogens summed into heavy atoms:
               1
     1  C    0.206870
     2  O   -0.225855
     3  C    0.426534
     4  O   -0.457408
     5  C    0.037340
     6  N   -0.272515
     7  C    0.147140
     8  C    0.008463
     9  C    0.000885
    10  C   -0.038117
    11  C    0.218691
    12  O   -0.052030
 Electronic spatial extent (au):  <R**2>=           2218.2848
 Charge=             -0.0000 electrons
 Dipole moment (field-independent basis, Debye):
    X=             -0.7870    Y=             -1.2587    Z=              0.0000  Tot=              1.4844
 Quadrupole moment (field-independent basis, Debye-Ang):
   XX=            -54.8027   YY=            -72.0437   ZZ=            -69.7980
   XY=             -5.4184   XZ=             -0.0001   YZ=             -0.0001
 Traceless Quadrupole moment (field-independent basis, Debye-Ang):
   XX=             10.7454   YY=             -6.4956   ZZ=             -4.2499
   XY=             -5.4184   XZ=             -0.0001   YZ=             -0.0001
 Octapole moment (field-independent basis, Debye-Ang**2):
  XXX=             18.4589  YYY=             -7.9863  ZZZ=              0.0010  XYY=              4.9968
  XXY=            -18.6117  XXZ=             -0.0004  XZZ=             11.4341  YZZ=              0.1757
  YYZ=             -0.0003  XYZ=              0.0004
 Hexadecapole moment (field-independent basis, Debye-Ang**3):
 XXXX=          -1697.2066 YYYY=           -943.1589 ZZZZ=            -83.0042 XXXY=            -83.3001
 XXXZ=              0.0055 YYYX=            -19.8703 YYYZ=              0.0022 ZZZX=             -0.0026
 ZZZY=             -0.0017 XXYY=           -417.7957 XXZZ=           -324.6109 YYZZ=           -173.0180
 XXYZ=             -0.0009 YYXZ=             -0.0011 ZZXY=              5.0953
 N-N= 6.946120120023D+02 E-N=-2.770228922695D+03  KE= 5.879358704946D+02
 Breneman (CHELPG) radii used.
 Read replacement radii for each type of atom:
 Atom Element Radius
    1     6    1.50
    2     8    1.70
    3     6    1.50
    4     8    1.70
    5     6    1.50
    6     7    1.70
    7     6    1.50
    8     6    1.50
    9     6    1.50
   10     6    1.50
   11     6    1.50
   12     8    1.70
   13     1    1.45
   14     1    1.45
   15     1    1.45
   16     1    1.45
   17     1    1.45
   18     1    1.45
   19     1    1.45
   20     1    1.45
   21     1    1.45
 Generate Potential Derived Charges using the Breneman model, NDens= 1.
 Grid spacing= 0.300 Box extension= 2.800
 NStep X,Y,Z=   45     39     26   Total possible points=       45630
 Number of Points to Fit=   14022

 **********************************************************************

            Electrostatic Properties Using The SCF Density.

 **********************************************************************

       Atomic Center    1 is at   3.404672 -1.381569 -0.000000
       Atomic Center    2 is at   1.995172 -1.216469 -0.000010
       Atomic Center    3 is at   1.545652  0.021520 -0.000000
       Atomic Center    4 is at   2.288031  0.993171  0.000010
       Atomic Center    5 is at   0.065822  0.149930 -0.000000
       Atomic Center    6 is at  -0.675338 -0.963951 -0.000010
       Atomic Center    7 is at  -1.993318 -0.883291 -0.000010
       Atomic Center    8 is at  -2.785647 -2.163171  0.000020
       Atomic Center    9 is at  -2.640328  0.372869 -0.000010
       Atomic Center   10 is at  -1.895669  1.532759 -0.000010
       Atomic Center   11 is at  -0.491649  1.445770 -0.000000
       Atomic Center   12 is at   0.225341  2.563160  0.000010
       Atomic Center   13 is at   3.582363 -2.462109 -0.000010
       Atomic Center   14 is at   3.851462 -0.921159 -0.892720
       Atomic Center   15 is at   3.851462 -0.921169  0.892720
       Atomic Center   16 is at  -3.433537 -2.230232  0.887840
       Atomic Center   17 is at  -3.434147 -2.229912 -0.887370
       Atomic Center   18 is at  -2.098257 -3.017811 -0.000360
       Atomic Center   19 is at  -3.731928  0.421528 -0.000020
       Atomic Center   20 is at  -2.358669  2.521039 -0.000010
       Atomic Center   21 is at   1.173051  2.299690  0.000010
   14022 points will be used for fitting atomic charges
 Fitting point charges to electrostatic potential
 Charges from ESP fit, RMS=   0.00308 RRMS=   0.24403:
 ESP charges:
               1
     1  C    0.017495
     2  O   -0.302131
     3  C    0.675306
     4  O   -0.555800
     5  C    0.107981
     6  N   -0.629267
     7  C    0.605069
     8  C   -0.317071
     9  C   -0.396740
    10  C    0.020009
    11  C    0.176689
    12  O   -0.525515
    13  H    0.075545
    14  H    0.064386
    15  H    0.064384
    16  H    0.073332
    17  H    0.073262
    18  H    0.094850
    19  H    0.153826
    20  H    0.117617
    21  H    0.406772
 Sum of ESP charges =   0.00000
 ESP charges with hydrogens summed into heavy atoms:
               1
     1  C    0.221811
     2  O   -0.302131
     3  C    0.675306
     4  O   -0.555800
     5  C    0.107981
     6  N   -0.629267
     7  C    0.605069
     8  C   -0.075627
     9  C   -0.242913
    10  C    0.137626
    11  C    0.176689
    12  O   -0.118743
 Charge=   0.00000 Dipole=    -0.8057    -1.1992     0.0002 Tot=     1.4447
 -----------------------------------------------------------------

              Electrostatic Properties (Atomic Units)

 -----------------------------------------------------------------
    Center     Electric         -------- Electric Field --------
               Potential          X             Y             Z
 -----------------------------------------------------------------
    1 Atom    -14.707309
    2 Atom    -22.302115
    3 Atom    -14.629528
    4 Atom    -22.362341
    5 Atom    -14.722797
    6 Atom    -18.393121
    7 Atom    -14.726357
    8 Atom    -14.770451
    9 Atom    -14.750660
   10 Atom    -14.751038
   11 Atom    -14.688224
   12 Atom    -22.331655
   13 Atom     -1.097142
   14 Atom     -1.099214
   15 Atom     -1.099213
   16 Atom     -1.109785
   17 Atom     -1.109786
   18 Atom     -1.116918
   19 Atom     -1.087170
   20 Atom     -1.085388
   21 Atom     -0.982147
 -----------------------------------------------------------------
 Unable to Open any file for archive entry.
 1\1\GINC-NOTCH164\SP\RwB97XD\def2TZVP\C8H9N1O3\U6053008\12-Jul-2024\0\
 \#N Guess=Read Geom=Check Integral(Ultrafine) Density Pop=(ChelpG,Read
 Radii) NMR wB97XD def2TZVP\\12318939_2\\0,1\C,0,3.40467,-1.38157,0.\O,
 0,1.99517,-1.21647,-0.00001\C,0,1.54565,0.02152,0.\O,0,2.28803,0.99317
 ,0.00001\C,0,0.06582,0.14993,0.\N,0,-0.67534,-0.96395,-0.00001\C,0,-1.
 99332,-0.88329,-0.00001\C,0,-2.78565,-2.16317,0.00002\C,0,-2.64033,0.3
 7287,-0.00001\C,0,-1.89567,1.53276,-0.00001\C,0,-0.49165,1.44577,0.\O,
 0,0.22534,2.56316,0.00001\H,0,3.58236,-2.46211,-0.00001\H,0,3.85146,-0
 .92116,-0.89272\H,0,3.85146,-0.92117,0.89272\H,0,-3.43354,-2.23023,0.8
 8784\H,0,-3.43415,-2.22991,-0.88737\H,0,-2.09826,-3.01781,-0.00036\H,0
 ,-3.73193,0.42153,-0.00002\H,0,-2.35867,2.52104,-0.00001\H,0,1.17305,2
 .29969,0.00001\\Version=ES64L-G16RevC.01\State=1-A\HF=-590.7451671\RMS
 D=1.281e-09\Dipole=-0.3096255,-0.495191,0.0000123\Quadrupole=7.9889675
 ,-4.8292812,-3.1596864,-4.0284852,-0.0000575,-0.0000845\PG=C01 [X(C8H9
 N1O3)]\\@
 The archive entry for this job was punched.


 A MAN IS NEVER SO BRILLIANT AS WHEN HE TAKES THE WORDS RIGHT OUT
 OF YOUR MOUTH. -- ARNOT SHEPPARD, JR.
 Job cpu time:       0 days  0 hours 47 minutes 50.2 seconds.
 Elapsed time:       0 days  0 hours  3 minutes  8.9 seconds.
 File lengths (MBytes):  RWF=    119 Int=      0 D2E=      0 Chk=     18 Scr=      2
 Normal termination of Gaussian 16 at Fri Jul 12 13:21:54 2024.
