 Entering Gaussian System, Link 0=g16
 Input=12326824_11.com
 Output=12326824_11.log
 Initial command:
 /uufs/chpc.utah.edu/sys/installdir/gaussian16/C01/AVX/g16/l1.exe "/scratch/general/vast/u6053008/1287110-notchpeak.peaks/Gau-3649327.inp" -scrdir="/scratch/general/vast/u6053008/1287110-notchpeak.peaks/"
 Entering Link 1 = /uufs/chpc.utah.edu/sys/installdir/gaussian16/C01/AVX/g16/l1.exe PID=   3649338.
  
 Copyright (c) 1988-2019, Gaussian, Inc.  All Rights Reserved.
  
 This is part of the Gaussian(R) 16 program.  It is based on
 the Gaussian(R) 09 system (copyright 2009, Gaussian, Inc.),
 the Gaussian(R) 03 system (copyright 2003, Gaussian, Inc.),
 the Gaussian(R) 98 system (copyright 1998, Gaussian, Inc.),
 the Gaussian(R) 94 system (copyright 1995, Gaussian, Inc.),
 the Gaussian 92(TM) system (copyright 1992, Gaussian, Inc.),
 the Gaussian 90(TM) system (copyright 1990, Gaussian, Inc.),
 the Gaussian 88(TM) system (copyright 1988, Gaussian, Inc.),
 the Gaussian 86(TM) system (copyright 1986, Carnegie Mellon
 University), and the Gaussian 82(TM) system (copyright 1983,
 Carnegie Mellon University). Gaussian is a federally registered
 trademark of Gaussian, Inc.
  
 This software contains proprietary and confidential information,
 including trade secrets, belonging to Gaussian, Inc.
  
 This software is provided under written license and may be
 used, copied, transmitted, or stored only in accord with that
 written license.
  
 The following legend is applicable only to US Government
 contracts under FAR:
  
                    RESTRICTED RIGHTS LEGEND
  
 Use, reproduction and disclosure by the US Government is
 subject to restrictions as set forth in subparagraphs (a)
 and (c) of the Commercial Computer Software - Restricted
 Rights clause in FAR 52.227-19.
  
 Gaussian, Inc.
 340 Quinnipiac St., Bldg. 40, Wallingford CT 06492
  
  
 ---------------------------------------------------------------
 Warning -- This program may not be used in any manner that
 competes with the business of Gaussian, Inc. or will provide
 assistance to any competitor of Gaussian, Inc.  The licensee
 of this program is prohibited from giving any competitor of
 Gaussian, Inc. access to this program.  By using this program,
 the user acknowledges that Gaussian, Inc. is engaged in the
 business of creating and licensing software in the field of
 computational chemistry and represents and warrants to the
 licensee that it is not a competitor of Gaussian, Inc. and that
 it will not use this program in any manner prohibited above.
 ---------------------------------------------------------------
  

 Cite this work as:
 Gaussian 16, Revision C.01,
 M. J. Frisch, G. W. Trucks, H. B. Schlegel, G. E. Scuseria, 
 M. A. Robb, J. R. Cheeseman, G. Scalmani, V. Barone, 
 G. A. Petersson, H. Nakatsuji, X. Li, M. Caricato, A. V. Marenich, 
 J. Bloino, B. G. Janesko, R. Gomperts, B. Mennucci, H. P. Hratchian, 
 J. V. Ortiz, A. F. Izmaylov, J. L. Sonnenberg, D. Williams-Young, 
 F. Ding, F. Lipparini, F. Egidi, J. Goings, B. Peng, A. Petrone, 
 T. Henderson, D. Ranasinghe, V. G. Zakrzewski, J. Gao, N. Rega, 
 G. Zheng, W. Liang, M. Hada, M. Ehara, K. Toyota, R. Fukuda, 
 J. Hasegawa, M. Ishida, T. Nakajima, Y. Honda, O. Kitao, H. Nakai, 
 T. Vreven, K. Throssell, J. A. Montgomery, Jr., J. E. Peralta, 
 F. Ogliaro, M. J. Bearpark, J. J. Heyd, E. N. Brothers, K. N. Kudin, 
 V. N. Staroverov, T. A. Keith, R. Kobayashi, J. Normand, 
 K. Raghavachari, A. P. Rendell, J. C. Burant, S. S. Iyengar, 
 J. Tomasi, M. Cossi, J. M. Millam, M. Klene, C. Adamo, R. Cammi, 
 J. W. Ochterski, R. L. Martin, K. Morokuma, O. Farkas, 
 J. B. Foresman, and D. J. Fox, Gaussian, Inc., Wallingford CT, 2019.
 
 ******************************************
 Gaussian 16:  ES64L-G16RevC.01  3-Jul-2019
                12-Jul-2024 
 ******************************************
 %NProcShared=16
 Will use up to   16 processors via shared memory.
 %Mem=32GB
 %chk=12326824_11.chk
 ------------------------------------------------------
 #N OPT FREQ=NORAMAN Integral(Ultrafine) wB97XD def2SVP
 ------------------------------------------------------
 1/18=20,19=15,26=4,38=1/1,3;
 2/9=110,12=2,17=6,18=5,40=1/2;
 3/5=43,7=101,11=2,25=1,30=1,71=1,74=-58,75=-5/1,2,3;
 4//1;
 5/5=2,38=5/2;
 6/7=2,8=2,9=2,10=2,28=1/1;
 7//1,2,3,16;
 1/18=20,19=15,26=4/3(2);
 2/9=110/2;
 99//99;
 2/9=110/2;
 3/5=43,7=101,11=2,25=1,30=1,71=1,74=-58,75=-5/1,2,3;
 4/5=5,16=3,69=1/1;
 5/5=2,38=5/2;
 7//1,2,3,16;
 1/18=20,19=15,26=4/3(-5);
 2/9=110/2;
 6/7=2,8=2,9=2,10=2,19=2,28=1/1;
 99/9=1/99;
 -----------
 12326824_11
 -----------
 Symbolic Z-matrix:
 Charge =  0 Multiplicity = 1
 C                    -3.86246   1.0007    0.23308 
 C                    -3.22459  -0.35913   0.06781 
 O                    -1.81044  -0.1814    0.09143 
 C                    -1.06816  -1.2706   -0.08981 
 O                    -1.53914  -2.3718   -0.23642 
 C                     0.40413  -1.01649  -0.04431 
 C                     1.2134   -2.13348   0.19268 
 N                     2.53794  -2.11059   0.28805 
 C                     3.12205  -0.92528   0.13321 
 C                     2.44003   0.2592   -0.12236 
 C                     1.0405    0.23269  -0.22592 
 O                     0.29439   1.29734  -0.5174 
 C                     0.86318   2.58951  -0.63043 
 C                     1.134     3.22198   0.72264 
 H                    -4.95775   0.90671   0.22049 
 H                    -3.56121   1.67354  -0.58255 
 H                    -3.56448   1.45899   1.18707 
 H                    -3.51546  -1.05084   0.87436 
 H                    -3.51317  -0.83619  -0.88193 
 H                     0.71713  -3.1014    0.31329 
 H                     4.21484  -0.90423   0.21251 
 H                     3.00531   1.1821   -0.2429 
 H                     0.11119   3.17207  -1.17956 
 H                     1.76984   2.55897  -1.25832 
 H                     0.20939   3.25505   1.31606 
 H                     1.50049   4.25046   0.59031 
 H                     1.88738   2.66122   1.29445 
 

 GradGradGradGradGradGradGradGradGradGradGradGradGradGradGradGradGradGrad
 Berny optimization.
 Initialization pass.
                           ----------------------------
                           !    Initial Parameters    !
                           ! (Angstroms and Degrees)  !
 --------------------------                            --------------------------
 ! Name  Definition              Value          Derivative Info.                !
 --------------------------------------------------------------------------------
 ! R1    R(1,2)                  1.5111         estimate D2E/DX2                !
 ! R2    R(1,15)                 1.0994         estimate D2E/DX2                !
 ! R3    R(1,16)                 1.0994         estimate D2E/DX2                !
 ! R4    R(1,17)                 1.0995         estimate D2E/DX2                !
 ! R5    R(2,3)                  1.4255         estimate D2E/DX2                !
 ! R6    R(2,18)                 1.1016         estimate D2E/DX2                !
 ! R7    R(2,19)                 1.1013         estimate D2E/DX2                !
 ! R8    R(3,4)                  1.3305         estimate D2E/DX2                !
 ! R9    R(4,5)                  1.2066         estimate D2E/DX2                !
 ! R10   R(4,6)                  1.4948         estimate D2E/DX2                !
 ! R11   R(6,7)                  1.3996         estimate D2E/DX2                !
 ! R12   R(6,11)                 1.4136         estimate D2E/DX2                !
 ! R13   R(7,8)                  1.3282         estimate D2E/DX2                !
 ! R14   R(7,20)                 1.0944         estimate D2E/DX2                !
 ! R15   R(8,9)                  1.3305         estimate D2E/DX2                !
 ! R16   R(9,10)                 1.3905         estimate D2E/DX2                !
 ! R17   R(9,21)                 1.0959         estimate D2E/DX2                !
 ! R18   R(10,11)                1.4036         estimate D2E/DX2                !
 ! R19   R(10,22)                1.089          estimate D2E/DX2                !
 ! R20   R(11,12)                1.3323         estimate D2E/DX2                !
 ! R21   R(12,13)                1.4163         estimate D2E/DX2                !
 ! R22   R(13,14)                1.5179         estimate D2E/DX2                !
 ! R23   R(13,23)                1.0984         estimate D2E/DX2                !
 ! R24   R(13,24)                1.1033         estimate D2E/DX2                !
 ! R25   R(14,25)                1.0992         estimate D2E/DX2                !
 ! R26   R(14,26)                1.0998         estimate D2E/DX2                !
 ! R27   R(14,27)                1.0995         estimate D2E/DX2                !
 ! A1    A(2,1,15)             110.0213         estimate D2E/DX2                !
 ! A2    A(2,1,16)             110.7282         estimate D2E/DX2                !
 ! A3    A(2,1,17)             110.8296         estimate D2E/DX2                !
 ! A4    A(15,1,16)            108.4703         estimate D2E/DX2                !
 ! A5    A(15,1,17)            108.3954         estimate D2E/DX2                !
 ! A6    A(16,1,17)            108.321          estimate D2E/DX2                !
 ! A7    A(1,2,3)              107.744          estimate D2E/DX2                !
 ! A8    A(1,2,18)             111.9327         estimate D2E/DX2                !
 ! A9    A(1,2,19)             111.9334         estimate D2E/DX2                !
 ! A10   A(3,2,18)             109.1532         estimate D2E/DX2                !
 ! A11   A(3,2,19)             109.1628         estimate D2E/DX2                !
 ! A12   A(18,2,19)            106.8703         estimate D2E/DX2                !
 ! A13   A(2,3,4)              116.6888         estimate D2E/DX2                !
 ! A14   A(3,4,5)              123.0867         estimate D2E/DX2                !
 ! A15   A(3,4,6)              113.9664         estimate D2E/DX2                !
 ! A16   A(5,4,6)              122.9091         estimate D2E/DX2                !
 ! A17   A(4,6,7)              116.0414         estimate D2E/DX2                !
 ! A18   A(4,6,11)             126.1364         estimate D2E/DX2                !
 ! A19   A(7,6,11)             117.8207         estimate D2E/DX2                !
 ! A20   A(6,7,8)              125.1038         estimate D2E/DX2                !
 ! A21   A(6,7,20)             117.5371         estimate D2E/DX2                !
 ! A22   A(8,7,20)             117.3585         estimate D2E/DX2                !
 ! A23   A(7,8,9)              116.4123         estimate D2E/DX2                !
 ! A24   A(8,9,10)             124.3997         estimate D2E/DX2                !
 ! A25   A(8,9,21)             116.5186         estimate D2E/DX2                !
 ! A26   A(10,9,21)            119.0813         estimate D2E/DX2                !
 ! A27   A(9,10,11)            119.1132         estimate D2E/DX2                !
 ! A28   A(9,10,22)            119.1881         estimate D2E/DX2                !
 ! A29   A(11,10,22)           121.6977         estimate D2E/DX2                !
 ! A30   A(6,11,10)            117.1335         estimate D2E/DX2                !
 ! A31   A(6,11,12)            118.8247         estimate D2E/DX2                !
 ! A32   A(10,11,12)           124.016          estimate D2E/DX2                !
 ! A33   A(11,12,13)           121.4396         estimate D2E/DX2                !
 ! A34   A(12,13,14)           112.3738         estimate D2E/DX2                !
 ! A35   A(12,13,23)           104.4089         estimate D2E/DX2                !
 ! A36   A(12,13,24)           110.4989         estimate D2E/DX2                !
 ! A37   A(14,13,23)           110.292          estimate D2E/DX2                !
 ! A38   A(14,13,24)           111.8523         estimate D2E/DX2                !
 ! A39   A(23,13,24)           107.0248         estimate D2E/DX2                !
 ! A40   A(13,14,25)           110.1025         estimate D2E/DX2                !
 ! A41   A(13,14,26)           109.9888         estimate D2E/DX2                !
 ! A42   A(13,14,27)           111.9196         estimate D2E/DX2                !
 ! A43   A(25,14,26)           108.4898         estimate D2E/DX2                !
 ! A44   A(25,14,27)           108.1164         estimate D2E/DX2                !
 ! A45   A(26,14,27)           108.1295         estimate D2E/DX2                !
 ! D1    D(15,1,2,3)          -179.9797         estimate D2E/DX2                !
 ! D2    D(15,1,2,18)          -59.966          estimate D2E/DX2                !
 ! D3    D(15,1,2,19)           59.9944         estimate D2E/DX2                !
 ! D4    D(16,1,2,3)            60.1245         estimate D2E/DX2                !
 ! D5    D(16,1,2,18)         -179.8619         estimate D2E/DX2                !
 ! D6    D(16,1,2,19)          -59.9015         estimate D2E/DX2                !
 ! D7    D(17,1,2,3)           -60.1123         estimate D2E/DX2                !
 ! D8    D(17,1,2,18)           59.9013         estimate D2E/DX2                !
 ! D9    D(17,1,2,19)          179.8617         estimate D2E/DX2                !
 ! D10   D(1,2,3,4)           -177.6467         estimate D2E/DX2                !
 ! D11   D(18,2,3,4)            60.598          estimate D2E/DX2                !
 ! D12   D(19,2,3,4)           -55.8848         estimate D2E/DX2                !
 ! D13   D(2,3,4,5)             -1.7839         estimate D2E/DX2                !
 ! D14   D(2,3,4,6)           -179.6027         estimate D2E/DX2                !
 ! D15   D(3,4,6,7)            160.636          estimate D2E/DX2                !
 ! D16   D(3,4,6,11)           -19.8128         estimate D2E/DX2                !
 ! D17   D(5,4,6,7)            -17.1872         estimate D2E/DX2                !
 ! D18   D(5,4,6,11)           162.3639         estimate D2E/DX2                !
 ! D19   D(4,6,7,8)           -178.9756         estimate D2E/DX2                !
 ! D20   D(4,6,7,20)             0.7485         estimate D2E/DX2                !
 ! D21   D(11,6,7,8)             1.4343         estimate D2E/DX2                !
 ! D22   D(11,6,7,20)         -178.8416         estimate D2E/DX2                !
 ! D23   D(4,6,11,10)          178.9936         estimate D2E/DX2                !
 ! D24   D(4,6,11,12)           -2.7799         estimate D2E/DX2                !
 ! D25   D(7,6,11,10)           -1.4624         estimate D2E/DX2                !
 ! D26   D(7,6,11,12)          176.7641         estimate D2E/DX2                !
 ! D27   D(6,7,8,9)             -0.5298         estimate D2E/DX2                !
 ! D28   D(20,7,8,9)           179.7456         estimate D2E/DX2                !
 ! D29   D(7,8,9,10)            -0.2966         estimate D2E/DX2                !
 ! D30   D(7,8,9,21)           179.9437         estimate D2E/DX2                !
 ! D31   D(8,9,10,11)            0.1577         estimate D2E/DX2                !
 ! D32   D(8,9,10,22)         -179.4798         estimate D2E/DX2                !
 ! D33   D(21,9,10,11)         179.9117         estimate D2E/DX2                !
 ! D34   D(21,9,10,22)           0.2741         estimate D2E/DX2                !
 ! D35   D(9,10,11,6)            0.7516         estimate D2E/DX2                !
 ! D36   D(9,10,11,12)        -177.3739         estimate D2E/DX2                !
 ! D37   D(22,10,11,6)        -179.6203         estimate D2E/DX2                !
 ! D38   D(22,10,11,12)          2.2543         estimate D2E/DX2                !
 ! D39   D(6,11,12,13)         176.0971         estimate D2E/DX2                !
 ! D40   D(10,11,12,13)         -5.8071         estimate D2E/DX2                !
 ! D41   D(11,12,13,14)        -78.2609         estimate D2E/DX2                !
 ! D42   D(11,12,13,23)        162.2028         estimate D2E/DX2                !
 ! D43   D(11,12,13,24)         47.4449         estimate D2E/DX2                !
 ! D44   D(12,13,14,25)        -56.1042         estimate D2E/DX2                !
 ! D45   D(12,13,14,26)       -175.6084         estimate D2E/DX2                !
 ! D46   D(12,13,14,27)         64.174          estimate D2E/DX2                !
 ! D47   D(23,13,14,25)         59.9428         estimate D2E/DX2                !
 ! D48   D(23,13,14,26)        -59.5615         estimate D2E/DX2                !
 ! D49   D(23,13,14,27)       -179.779          estimate D2E/DX2                !
 ! D50   D(24,13,14,25)        178.9296         estimate D2E/DX2                !
 ! D51   D(24,13,14,26)         59.4253         estimate D2E/DX2                !
 ! D52   D(24,13,14,27)        -60.7922         estimate D2E/DX2                !
 --------------------------------------------------------------------------------
 Trust Radius=3.00D-01 FncErr=1.00D-07 GrdErr=1.00D-06 EigMax=2.50D+02 EigMin=1.00D-04
 Number of steps in this run=    134 maximum allowed number of steps=    162.
 GradGradGradGradGradGradGradGradGradGradGradGradGradGradGradGradGradGrad

                          Input orientation:                          
 ---------------------------------------------------------------------
 Center     Atomic      Atomic             Coordinates (Angstroms)
 Number     Number       Type             X           Y           Z
 ---------------------------------------------------------------------
      1          6           0       -3.862460    1.000700    0.233080
      2          6           0       -3.224590   -0.359130    0.067810
      3          8           0       -1.810440   -0.181400    0.091430
      4          6           0       -1.068160   -1.270600   -0.089810
      5          8           0       -1.539140   -2.371800   -0.236420
      6          6           0        0.404130   -1.016490   -0.044310
      7          6           0        1.213400   -2.133480    0.192680
      8          7           0        2.537940   -2.110590    0.288050
      9          6           0        3.122050   -0.925280    0.133210
     10          6           0        2.440030    0.259200   -0.122360
     11          6           0        1.040500    0.232690   -0.225920
     12          8           0        0.294390    1.297340   -0.517400
     13          6           0        0.863180    2.589510   -0.630430
     14          6           0        1.134000    3.221980    0.722640
     15          1           0       -4.957750    0.906710    0.220490
     16          1           0       -3.561210    1.673540   -0.582550
     17          1           0       -3.564480    1.458990    1.187070
     18          1           0       -3.515460   -1.050840    0.874360
     19          1           0       -3.513170   -0.836190   -0.881930
     20          1           0        0.717130   -3.101400    0.313290
     21          1           0        4.214840   -0.904230    0.212510
     22          1           0        3.005310    1.182100   -0.242900
     23          1           0        0.111190    3.172070   -1.179560
     24          1           0        1.769840    2.558970   -1.258320
     25          1           0        0.209390    3.255050    1.316060
     26          1           0        1.500490    4.250460    0.590310
     27          1           0        1.887380    2.661220    1.294450
 ---------------------------------------------------------------------
                    Distance matrix (angstroms):
                    1          2          3          4          5
     1  C    0.000000
     2  C    1.511069   0.000000
     3  O    2.372385   1.425470   0.000000
     4  C    3.615408   2.346447   1.330483   0.000000
     5  O    4.122136   2.642752   2.231354   1.206631   0.000000
     6  C    4.727557   3.689485   2.370679   1.494751   2.376988
     7  C    5.965658   4.781178   3.600622   2.455581   2.795961
     8  N    7.116760   6.026846   4.761181   3.721870   4.118966
     9  C    7.245878   6.372177   4.988443   4.210326   4.894460
    10  C    6.355906   5.701440   4.278590   3.827368   4.771684
    11  C    4.983928   4.315961   2.898282   2.593232   3.665791
    12  O    4.234456   3.933139   2.643417   2.938314   4.111371
    13  C    5.059806   5.088406   3.917559   4.350034   5.526390
    14  C    5.489842   5.678949   4.544353   5.068812   6.273424
    15  H    1.099387   2.151629   3.332597   4.468319   4.758602
    16  H    1.099417   2.160562   2.638228   3.889222   4.535785
    17  H    1.099508   2.161904   2.639690   3.913144   4.561061
    18  H    2.177261   1.101631   2.067849   2.639545   2.623854
    19  H    2.177020   1.101304   2.067721   2.606576   2.582939
    20  H    6.148683   4.808062   3.868363   2.588741   2.434184
    21  H    8.298913   7.460777   6.069690   5.304311   5.955131
    22  H    6.886634   6.425230   5.016209   4.757345   5.769079
    23  H    4.743447   5.015250   4.068641   4.723954   5.860682
    24  H    6.031192   5.934497   4.706364   4.907674   6.025456
    25  H    4.778588   5.139323   4.169966   4.908168   6.093356
    26  H    6.280906   6.621760   5.554505   6.127204   7.333291
    27  H    6.078198   6.062953   4.816806   5.109853   6.278208
                    6          7          8          9         10
     6  C    0.000000
     7  C    1.399553   0.000000
     8  N    2.420881   1.328166   0.000000
     9  C    2.725238   2.259697   1.330458   0.000000
    10  C    2.403823   2.707174   2.407058   1.390489   0.000000
    11  C    1.413648   2.409124   2.827977   2.408883   1.403607
    12  O    2.364248   3.622060   4.158876   3.654996   2.416105
    13  C    3.682051   4.806953   5.073398   4.247280   2.859184
    14  C    4.368701   5.382203   5.531385   4.636759   3.346312
    15  H    5.702506   6.879435   8.080472   8.285347   7.433974
    16  H    4.821813   6.155590   7.230298   7.206396   6.182800
    17  H    4.836751   6.059933   7.126687   7.176702   6.261649
    18  H    4.025956   4.898869   6.173369   6.679941   6.178796
    19  H    4.009907   5.017790   6.293559   6.713017   6.100608
    20  H    2.138386   1.094395   2.073087   3.248318   3.801553
    21  H    3.821004   3.243469   2.067125   1.095866   2.148408
    22  H    3.411653   3.793909   3.367811   2.143860   1.088952
    23  H    4.349556   5.589881   5.995789   5.251373   3.876336
    24  H    4.015333   4.943087   4.978557   3.988085   2.651132
    25  H    4.487158   5.595201   5.938774   5.230476   4.002490
    26  H    5.417150   6.402751   6.452180   5.443040   4.161825
    27  H    4.185434   4.965611   4.919984   3.966846   2.842969
                   11         12         13         14         15
    11  C    0.000000
    12  O    1.332336   0.000000
    13  C    2.397847   1.416334   0.000000
    14  C    3.137573   2.438623   1.517946   0.000000
    15  H    6.052486   5.318087   6.118750   6.536211   0.000000
    16  H    4.835180   3.874458   4.518464   5.113334   1.784160
    17  H    4.970532   4.221638   4.917881   5.039796   1.783393
    18  H    4.859510   4.686780   5.889739   6.316446   2.517886
    19  H    4.723215   4.379765   5.563372   6.374918   2.517904
    20  H    3.392856   4.496406   5.770476   6.350314   6.948224
    21  H    3.400183   4.555174   4.914305   5.174690   9.349651
    22  H    2.182234   2.727218   2.592239   2.931754   7.981284
    23  H    3.226918   1.996655   1.098366   2.160323   5.725919
    24  H    2.647521   2.077890   1.103273   2.183593   7.083594
    25  H    3.493294   2.683548   2.158520   1.099156   5.780511
    26  H    4.125566   3.376776   2.157574   1.099817   7.281916
    27  H    2.987723   2.771387   2.181580   1.099545   7.147552
                   16         17         18         19         20
    16  H    0.000000
    17  H    1.782582   0.000000
    18  H    3.089810   2.529711   0.000000
    19  H    2.527980   3.090509   1.769360   0.000000
    20  H    6.473544   6.316077   4.736498   4.945216   0.000000
    21  H    8.230673   8.188553   7.759966   7.805419   4.131790
    22  H    6.593638   6.729311   6.982459   6.853644   4.888096
    23  H    4.011052   4.695331   5.933308   5.412090   6.477051
    24  H    5.446168   5.970331   6.746366   6.291182   5.968077
    25  H    4.508139   4.181455   5.710542   5.952047   6.455060
    26  H    5.799735   5.813979   7.303713   7.292344   7.398665
    27  H    5.846860   5.583875   6.568603   6.792234   5.961539
                   21         22         23         24         25
    21  H    0.000000
    22  H    2.454207   0.000000
    23  H    5.949288   3.635002   0.000000
    24  H    4.487217   2.110269   1.770089   0.000000
    25  H    5.878866   3.813744   2.498929   3.089816   0.000000
    26  H    5.837916   3.517606   2.495099   2.520143   1.784515
    27  H    4.393188   2.408528   3.088130   2.557519   1.780099
                   26         27
    26  H    0.000000
    27  H    1.780781   0.000000
 Stoichiometry    C10H13NO3
 Framework group  C1[X(C10H13NO3)]
 Deg. of freedom    75
 Full point group                 C1      NOp   1
 Largest Abelian subgroup         C1      NOp   1
 Largest concise Abelian subgroup C1      NOp   1
                         Standard orientation:                         
 ---------------------------------------------------------------------
 Center     Atomic      Atomic             Coordinates (Angstroms)
 Number     Number       Type             X           Y           Z
 ---------------------------------------------------------------------
      1          6           0       -3.862460    1.000699    0.233080
      2          6           0       -3.224590   -0.359131    0.067810
      3          8           0       -1.810440   -0.181400    0.091430
      4          6           0       -1.068160   -1.270600   -0.089810
      5          8           0       -1.539140   -2.371800   -0.236420
      6          6           0        0.404130   -1.016490   -0.044310
      7          6           0        1.213400   -2.133480    0.192680
      8          7           0        2.537940   -2.110590    0.288050
      9          6           0        3.122050   -0.925280    0.133210
     10          6           0        2.440030    0.259200   -0.122360
     11          6           0        1.040500    0.232690   -0.225920
     12          8           0        0.294390    1.297340   -0.517400
     13          6           0        0.863180    2.589510   -0.630430
     14          6           0        1.133999    3.221980    0.722640
     15          1           0       -4.957750    0.906709    0.220490
     16          1           0       -3.561210    1.673539   -0.582550
     17          1           0       -3.564480    1.458989    1.187070
     18          1           0       -3.515460   -1.050841    0.874360
     19          1           0       -3.513170   -0.836191   -0.881930
     20          1           0        0.717130   -3.101400    0.313290
     21          1           0        4.214840   -0.904230    0.212510
     22          1           0        3.005310    1.182100   -0.242900
     23          1           0        0.111189    3.172070   -1.179560
     24          1           0        1.769840    2.558970   -1.258320
     25          1           0        0.209389    3.255050    1.316060
     26          1           0        1.500489    4.250460    0.590310
     27          1           0        1.887380    2.661220    1.294450
 ---------------------------------------------------------------------
 Rotational constants (GHZ):           0.8455452           0.5699728           0.3548610
 Standard basis: def2SVP (5D, 7F)
 There are   275 symmetry adapted cartesian basis functions of A   symmetry.
 There are   261 symmetry adapted basis functions of A   symmetry.
   261 basis functions,   441 primitive gaussians,   275 cartesian basis functions
    52 alpha electrons       52 beta electrons
       nuclear repulsion energy       903.2874319492 Hartrees.
 NAtoms=   27 NActive=   27 NUniq=   27 SFac= 1.00D+00 NAtFMM=   60 NAOKFM=F Big=F
 Integral buffers will be    131072 words long.
 Raffenetti 2 integral format.
 Two-electron integral symmetry is turned on.
 Nuclear repulsion after empirical dispersion term =      903.2722281374 Hartrees.
 One-electron integrals computed using PRISM.
   1 Symmetry operations used in ECPInt.
 ECPInt:  NShTT=    7626 NPrTT=   27482 LenC2=    7282 LenP2D=   18949.
 LDataN:  DoStor=T MaxTD1= 4 Len=   56
 NBasis=   261 RedAO= T EigKep=  5.25D-04  NBF=   261
 NBsUse=   261 1.00D-06 EigRej= -1.00D+00 NBFU=   261
 ExpMin= 1.22D-01 ExpMax= 2.27D+03 ExpMxC= 3.41D+02 IAcc=3 IRadAn=         5 AccDes= 0.00D+00
 Harris functional with IExCor= 4639 and IRadAn=       5 diagonalized for initial guess.
 HarFok:  IExCor= 4639 AccDes= 0.00D+00 IRadAn=         5 IDoV= 1 UseB2=F ITyADJ=14
 ICtDFT=  3500011 ScaDFX=  1.000000  1.000000  1.000000  1.000000
 FoFCou: FMM=F IPFlag=           0 FMFlag=      100000 FMFlg1=           0
         NFxFlg=           0 DoJE=T BraDBF=F KetDBF=T FulRan=T
         wScrn=  0.000000 ICntrl=       500 IOpCl=  0 I1Cent=   200000004 NGrid=           0
         NMat0=    1 NMatS0=      1 NMatT0=    0 NMatD0=    1 NMtDS0=    0 NMtDT0=    0
 Petite list used in FoFCou.
 Requested convergence on RMS density matrix=1.00D-08 within 128 cycles.
 Requested convergence on MAX density matrix=1.00D-06.
 Requested convergence on             energy=1.00D-06.
 No special actions if energy rises.
 Integral accuracy reduced to 1.0D-05 until final iterations.
 Initial convergence to 1.0D-05 achieved.  Increase integral accuracy.
 SCF Done:  E(RwB97XD) =  -668.617748094     A.U. after   16 cycles
            NFock= 16  Conv=0.42D-08     -V/T= 2.0098

 **********************************************************************

            Population analysis using the SCF Density.

 **********************************************************************

 Orbital symmetries:
       Occupied  (A) (A) (A) (A) (A) (A) (A) (A) (A) (A) (A) (A)
                 (A) (A) (A) (A) (A) (A) (A) (A) (A) (A) (A) (A)
                 (A) (A) (A) (A) (A) (A) (A) (A) (A) (A) (A) (A)
                 (A) (A) (A) (A) (A) (A) (A) (A) (A) (A) (A) (A)
                 (A) (A) (A) (A)
       Virtual   (A) (A) (A) (A) (A) (A) (A) (A) (A) (A) (A) (A)
                 (A) (A) (A) (A) (A) (A) (A) (A) (A) (A) (A) (A)
                 (A) (A) (A) (A) (A) (A) (A) (A) (A) (A) (A) (A)
                 (A) (A) (A) (A) (A) (A) (A) (A) (A) (A) (A) (A)
                 (A) (A) (A) (A) (A) (A) (A) (A) (A) (A) (A) (A)
                 (A) (A) (A) (A) (A) (A) (A) (A) (A) (A) (A) (A)
                 (A) (A) (A) (A) (A) (A) (A) (A) (A) (A) (A) (A)
                 (A) (A) (A) (A) (A) (A) (A) (A) (A) (A) (A) (A)
                 (A) (A) (A) (A) (A) (A) (A) (A) (A) (A) (A) (A)
                 (A) (A) (A) (A) (A) (A) (A) (A) (A) (A) (A) (A)
                 (A) (A) (A) (A) (A) (A) (A) (A) (A) (A) (A) (A)
                 (A) (A) (A) (A) (A) (A) (A) (A) (A) (A) (A) (A)
                 (A) (A) (A) (A) (A) (A) (A) (A) (A) (A) (A) (A)
                 (A) (A) (A) (A) (A) (A) (A) (A) (A) (A) (A) (A)
                 (A) (A) (A) (A) (A) (A) (A) (A) (A) (A) (A) (A)
                 (A) (A) (A) (A) (A) (A) (A) (A) (A) (A) (A) (A)
                 (A) (A) (A) (A) (A) (A) (A) (A) (A) (A) (A) (A)
                 (A) (A) (A) (A) (A)
 The electronic state is 1-A.
 Alpha  occ. eigenvalues --  -19.30656 -19.29739 -19.23734 -14.43505 -10.42766
 Alpha  occ. eigenvalues --  -10.39497 -10.37264 -10.35445 -10.34464 -10.33972
 Alpha  occ. eigenvalues --  -10.31709 -10.31416 -10.31109 -10.29932  -1.20372
 Alpha  occ. eigenvalues --   -1.18768  -1.10514  -1.04255  -0.91947  -0.87935
 Alpha  occ. eigenvalues --   -0.86762  -0.85830  -0.76905  -0.76531  -0.72098
 Alpha  occ. eigenvalues --   -0.69845  -0.66334  -0.64576  -0.62149  -0.59555
 Alpha  occ. eigenvalues --   -0.58675  -0.56716  -0.55934  -0.55189  -0.54445
 Alpha  occ. eigenvalues --   -0.53095  -0.51762  -0.49912  -0.49259  -0.48780
 Alpha  occ. eigenvalues --   -0.48521  -0.48036  -0.45623  -0.44467  -0.44284
 Alpha  occ. eigenvalues --   -0.43953  -0.41012  -0.38270  -0.36572  -0.34770
 Alpha  occ. eigenvalues --   -0.33824  -0.33211
 Alpha virt. eigenvalues --    0.01974   0.05295   0.12279   0.12676   0.14325
 Alpha virt. eigenvalues --    0.15579   0.17129   0.17912   0.18792   0.19582
 Alpha virt. eigenvalues --    0.19858   0.20959   0.21394   0.21845   0.22494
 Alpha virt. eigenvalues --    0.23622   0.24189   0.24444   0.25371   0.28229
 Alpha virt. eigenvalues --    0.28798   0.30778   0.32049   0.32677   0.35987
 Alpha virt. eigenvalues --    0.37319   0.38955   0.40777   0.42518   0.47146
 Alpha virt. eigenvalues --    0.47654   0.49059   0.49962   0.50256   0.50370
 Alpha virt. eigenvalues --    0.51089   0.52012   0.52800   0.54909   0.55429
 Alpha virt. eigenvalues --    0.56976   0.57482   0.58431   0.60134   0.60563
 Alpha virt. eigenvalues --    0.63353   0.65821   0.67039   0.68103   0.68581
 Alpha virt. eigenvalues --    0.68993   0.70050   0.70534   0.71013   0.72093
 Alpha virt. eigenvalues --    0.72600   0.73333   0.73718   0.74401   0.74938
 Alpha virt. eigenvalues --    0.75485   0.75811   0.77245   0.77571   0.77678
 Alpha virt. eigenvalues --    0.78372   0.78990   0.79289   0.79936   0.80778
 Alpha virt. eigenvalues --    0.82518   0.84146   0.84837   0.85761   0.89007
 Alpha virt. eigenvalues --    0.92929   0.94884   0.98436   1.00029   1.01129
 Alpha virt. eigenvalues --    1.02265   1.04666   1.07620   1.09738   1.11678
 Alpha virt. eigenvalues --    1.13022   1.16793   1.18568   1.19866   1.20884
 Alpha virt. eigenvalues --    1.23045   1.25626   1.28614   1.30985   1.31962
 Alpha virt. eigenvalues --    1.32543   1.33684   1.37012   1.38957   1.40040
 Alpha virt. eigenvalues --    1.42116   1.42585   1.43532   1.46108   1.46310
 Alpha virt. eigenvalues --    1.50045   1.51954   1.58052   1.60227   1.60596
 Alpha virt. eigenvalues --    1.61169   1.63228   1.66790   1.67528   1.69177
 Alpha virt. eigenvalues --    1.74919   1.75343   1.79826   1.80419   1.80548
 Alpha virt. eigenvalues --    1.82181   1.82831   1.83098   1.84115   1.84317
 Alpha virt. eigenvalues --    1.85284   1.85441   1.86655   1.87273   1.88411
 Alpha virt. eigenvalues --    1.88819   1.89577   1.90323   1.90902   1.92742
 Alpha virt. eigenvalues --    1.94146   1.94438   1.96193   1.98568   1.99437
 Alpha virt. eigenvalues --    2.00745   2.00862   2.02258   2.05901   2.06541
 Alpha virt. eigenvalues --    2.09261   2.12356   2.12931   2.15144   2.18146
 Alpha virt. eigenvalues --    2.19433   2.22707   2.23872   2.25270   2.27249
 Alpha virt. eigenvalues --    2.29733   2.31277   2.35664   2.37888   2.41668
 Alpha virt. eigenvalues --    2.42174   2.43362   2.44136   2.46221   2.47972
 Alpha virt. eigenvalues --    2.49166   2.50700   2.55502   2.56886   2.58831
 Alpha virt. eigenvalues --    2.61655   2.62941   2.64014   2.69992   2.70819
 Alpha virt. eigenvalues --    2.72863   2.74181   2.76064   2.77787   2.80985
 Alpha virt. eigenvalues --    2.82010   2.83902   2.89362   2.90337   2.92164
 Alpha virt. eigenvalues --    2.93882   2.96132   2.98358   2.99197   3.01497
 Alpha virt. eigenvalues --    3.02585   3.03946   3.05027   3.06602   3.08047
 Alpha virt. eigenvalues --    3.11369   3.12009   3.16315   3.18664   3.20663
 Alpha virt. eigenvalues --    3.29050   3.31797   3.40426   3.50311   3.55557
 Alpha virt. eigenvalues --    3.60775   3.69936   3.77647   3.82788
          Condensed to atoms (all electrons):
               1          2          3          4          5          6
     1  C    4.598891   0.407572  -0.046659   0.006813   0.001610   0.000729
     2  C    0.407572   4.484858   0.257406  -0.031479  -0.001005   0.008523
     3  O   -0.046659   0.257406   7.952593   0.410567  -0.082706  -0.128995
     4  C    0.006813  -0.031479   0.410567   4.544049   0.725640   0.127742
     5  O    0.001610  -0.001005  -0.082706   0.725640   7.691716  -0.130348
     6  C    0.000729   0.008523  -0.128995   0.127742  -0.130348   5.835052
     7  C    0.000005  -0.000100   0.001934  -0.024000   0.013537   0.453042
     8  N   -0.000000   0.000001  -0.000005   0.008356   0.000364  -0.039403
     9  C    0.000000   0.000000  -0.000018   0.000868  -0.000005  -0.049460
    10  C    0.000002   0.000013   0.000010   0.011116  -0.000067  -0.063922
    11  C   -0.000213  -0.000430   0.005769  -0.045857   0.001757   0.316236
    12  O    0.000134  -0.000111  -0.008179   0.008270   0.000005  -0.101563
    13  C   -0.000007  -0.000014   0.000408   0.000046   0.000002   0.006905
    14  C   -0.000013   0.000007  -0.000173  -0.000034  -0.000000  -0.001029
    15  H    0.381426  -0.014252   0.003254   0.000009   0.000022   0.000009
    16  H    0.389749  -0.018579   0.001660  -0.000027  -0.000034  -0.000245
    17  H    0.387892  -0.017292   0.001795  -0.000195  -0.000037  -0.000079
    18  H   -0.026298   0.397965  -0.028241  -0.004362   0.008461  -0.000480
    19  H   -0.027872   0.398716  -0.028936  -0.003932   0.008869   0.001774
    20  H   -0.000002  -0.000021   0.000562  -0.010214   0.014790  -0.065137
    21  H    0.000000   0.000000  -0.000000   0.000068   0.000000   0.001138
    22  H   -0.000000   0.000000  -0.000001  -0.000099   0.000001   0.012424
    23  H    0.000019  -0.000005   0.000151  -0.000166  -0.000000   0.000265
    24  H    0.000001   0.000000  -0.000027   0.000103  -0.000000  -0.000751
    25  H    0.000026  -0.000012   0.000162   0.000090   0.000000  -0.000383
    26  H    0.000000  -0.000000   0.000000  -0.000001  -0.000000   0.000036
    27  H   -0.000000  -0.000000   0.000007  -0.000042   0.000000  -0.000127
               7          8          9         10         11         12
     1  C    0.000005  -0.000000   0.000000   0.000002  -0.000213   0.000134
     2  C   -0.000100   0.000001   0.000000   0.000013  -0.000430  -0.000111
     3  O    0.001934  -0.000005  -0.000018   0.000010   0.005769  -0.008179
     4  C   -0.024000   0.008356   0.000868   0.011116  -0.045857   0.008270
     5  O    0.013537   0.000364  -0.000005  -0.000067   0.001757   0.000005
     6  C    0.453042  -0.039403  -0.049460  -0.063922   0.316236  -0.101563
     7  C    4.684533   0.524271  -0.067774  -0.048296  -0.034775   0.001395
     8  N    0.524271   6.292630   0.528427  -0.043509  -0.057276  -0.000070
     9  C   -0.067774   0.528427   4.698449   0.440415  -0.002565   0.003408
    10  C   -0.048296  -0.043509   0.440415   5.158966   0.410481  -0.076582
    11  C   -0.034775  -0.057276  -0.002565   0.410481   4.797483   0.449436
    12  O    0.001395  -0.000070   0.003408  -0.076582   0.449436   7.844672
    13  C   -0.000215   0.000007   0.000213   0.002423  -0.049018   0.279560
    14  C    0.000020  -0.000007  -0.000005  -0.005194  -0.007030  -0.045561
    15  H   -0.000000   0.000000   0.000000   0.000000   0.000004   0.000001
    16  H    0.000003   0.000000  -0.000000   0.000002   0.000075   0.000301
    17  H   -0.000004   0.000000   0.000000  -0.000001   0.000012   0.000036
    18  H    0.000131   0.000000  -0.000000   0.000002   0.000069  -0.000024
    19  H   -0.000108  -0.000000   0.000000  -0.000001  -0.000076  -0.000027
    20  H    0.428345  -0.033091   0.004317   0.000826   0.007031  -0.000045
    21  H    0.004576  -0.038187   0.421366  -0.065176   0.005945  -0.000079
    22  H    0.000172   0.005841  -0.033410   0.418436  -0.064897  -0.006550
    23  H    0.000020   0.000000   0.000006  -0.000107   0.004520  -0.024622
    24  H   -0.000049  -0.000017   0.000544   0.010102  -0.013659  -0.025192
    25  H   -0.000010   0.000000  -0.000003   0.000375   0.000165   0.001407
    26  H   -0.000000   0.000000   0.000005  -0.000383   0.000299   0.003734
    27  H    0.000009  -0.000001  -0.000183   0.003519   0.002981  -0.002858
              13         14         15         16         17         18
     1  C   -0.000007  -0.000013   0.381426   0.389749   0.387892  -0.026298
     2  C   -0.000014   0.000007  -0.014252  -0.018579  -0.017292   0.397965
     3  O    0.000408  -0.000173   0.003254   0.001660   0.001795  -0.028241
     4  C    0.000046  -0.000034   0.000009  -0.000027  -0.000195  -0.004362
     5  O    0.000002  -0.000000   0.000022  -0.000034  -0.000037   0.008461
     6  C    0.006905  -0.001029   0.000009  -0.000245  -0.000079  -0.000480
     7  C   -0.000215   0.000020  -0.000000   0.000003  -0.000004   0.000131
     8  N    0.000007  -0.000007   0.000000   0.000000   0.000000   0.000000
     9  C    0.000213  -0.000005   0.000000  -0.000000   0.000000  -0.000000
    10  C    0.002423  -0.005194   0.000000   0.000002  -0.000001   0.000002
    11  C   -0.049018  -0.007030   0.000004   0.000075   0.000012   0.000069
    12  O    0.279560  -0.045561   0.000001   0.000301   0.000036  -0.000024
    13  C    4.463712   0.436822   0.000000   0.000007   0.000008   0.000003
    14  C    0.436822   4.622587   0.000000  -0.000008  -0.000012  -0.000001
    15  H    0.000000   0.000000   0.625782  -0.017744  -0.017810  -0.002269
    16  H    0.000007  -0.000008  -0.017744   0.622735  -0.024512   0.007371
    17  H    0.000008  -0.000012  -0.017810  -0.024512   0.624297  -0.010246
    18  H    0.000003  -0.000001  -0.002269   0.007371  -0.010246   0.650178
    19  H    0.000002  -0.000000  -0.002362  -0.010259   0.007440  -0.037570
    20  H    0.000005   0.000000  -0.000000   0.000000   0.000000   0.000003
    21  H   -0.000043   0.000003   0.000000   0.000000   0.000000  -0.000000
    22  H    0.005305  -0.004318  -0.000000   0.000000   0.000000  -0.000000
    23  H    0.388053  -0.020784  -0.000001   0.000049  -0.000005   0.000002
    24  H    0.395269  -0.040719  -0.000000   0.000002   0.000001  -0.000000
    25  H   -0.015386   0.385203  -0.000000   0.000018   0.000109  -0.000001
    26  H   -0.015006   0.379309  -0.000000  -0.000001  -0.000000   0.000000
    27  H   -0.021769   0.400226  -0.000000  -0.000000  -0.000000   0.000000
              19         20         21         22         23         24
     1  C   -0.027872  -0.000002   0.000000  -0.000000   0.000019   0.000001
     2  C    0.398716  -0.000021   0.000000   0.000000  -0.000005   0.000000
     3  O   -0.028936   0.000562  -0.000000  -0.000001   0.000151  -0.000027
     4  C   -0.003932  -0.010214   0.000068  -0.000099  -0.000166   0.000103
     5  O    0.008869   0.014790   0.000000   0.000001  -0.000000  -0.000000
     6  C    0.001774  -0.065137   0.001138   0.012424   0.000265  -0.000751
     7  C   -0.000108   0.428345   0.004576   0.000172   0.000020  -0.000049
     8  N   -0.000000  -0.033091  -0.038187   0.005841   0.000000  -0.000017
     9  C    0.000000   0.004317   0.421366  -0.033410   0.000006   0.000544
    10  C   -0.000001   0.000826  -0.065176   0.418436  -0.000107   0.010102
    11  C   -0.000076   0.007031   0.005945  -0.064897   0.004520  -0.013659
    12  O   -0.000027  -0.000045  -0.000079  -0.006550  -0.024622  -0.025192
    13  C    0.000002   0.000005  -0.000043   0.005305   0.388053   0.395269
    14  C   -0.000000   0.000000   0.000003  -0.004318  -0.020784  -0.040719
    15  H   -0.002362  -0.000000   0.000000  -0.000000  -0.000001  -0.000000
    16  H   -0.010259   0.000000   0.000000   0.000000   0.000049   0.000002
    17  H    0.007440   0.000000   0.000000   0.000000  -0.000005   0.000001
    18  H   -0.037570   0.000003  -0.000000  -0.000000   0.000002  -0.000000
    19  H    0.648278  -0.000013   0.000000  -0.000000  -0.000001  -0.000000
    20  H   -0.000013   0.601173  -0.000295   0.000048  -0.000000  -0.000000
    21  H    0.000000  -0.000295   0.639409  -0.007206  -0.000001   0.000051
    22  H   -0.000000   0.000048  -0.007206   0.651784  -0.000089  -0.000042
    23  H   -0.000001  -0.000000  -0.000001  -0.000089   0.635780  -0.029926
    24  H   -0.000000  -0.000000   0.000051  -0.000042  -0.029926   0.667388
    25  H    0.000001  -0.000000   0.000001  -0.000042  -0.010100   0.007887
    26  H   -0.000000   0.000000  -0.000000   0.000300  -0.003146  -0.001234
    27  H    0.000000  -0.000000  -0.000014   0.001979   0.006725  -0.010525
              25         26         27
     1  C    0.000026   0.000000  -0.000000
     2  C   -0.000012  -0.000000  -0.000000
     3  O    0.000162   0.000000   0.000007
     4  C    0.000090  -0.000001  -0.000042
     5  O    0.000000  -0.000000   0.000000
     6  C   -0.000383   0.000036  -0.000127
     7  C   -0.000010  -0.000000   0.000009
     8  N    0.000000   0.000000  -0.000001
     9  C   -0.000003   0.000005  -0.000183
    10  C    0.000375  -0.000383   0.003519
    11  C    0.000165   0.000299   0.002981
    12  O    0.001407   0.003734  -0.002858
    13  C   -0.015386  -0.015006  -0.021769
    14  C    0.385203   0.379309   0.400226
    15  H   -0.000000  -0.000000  -0.000000
    16  H    0.000018  -0.000001  -0.000000
    17  H    0.000109  -0.000000  -0.000000
    18  H   -0.000001   0.000000   0.000000
    19  H    0.000001  -0.000000   0.000000
    20  H   -0.000000   0.000000  -0.000000
    21  H    0.000001  -0.000000  -0.000014
    22  H   -0.000042   0.000300   0.001979
    23  H   -0.010100  -0.003146   0.006725
    24  H    0.007887  -0.001234  -0.010525
    25  H    0.607002  -0.015638  -0.022764
    26  H   -0.015638   0.618230  -0.018532
    27  H   -0.022764  -0.018532   0.610589
 Mulliken charges:
               1
     1  C   -0.073805
     2  C    0.128240
     3  O   -0.312338
     4  C    0.276669
     5  O   -0.252570
     6  C   -0.181952
     7  C    0.063342
     8  N   -0.148334
     9  C    0.055404
    10  C   -0.153446
    11  C    0.273533
    12  O   -0.300897
    13  C    0.122708
    14  C   -0.099291
    15  H    0.043931
    16  H    0.049436
    17  H    0.048604
    18  H    0.045307
    19  H    0.046077
    20  H    0.051720
    21  H    0.038444
    22  H    0.020365
    23  H    0.053364
    24  H    0.040792
    25  H    0.061891
    26  H    0.052026
    27  H    0.050780
 Sum of Mulliken charges =  -0.00000
 Mulliken charges with hydrogens summed into heavy atoms:
               1
     1  C    0.068166
     2  C    0.219625
     3  O   -0.312338
     4  C    0.276669
     5  O   -0.252570
     6  C   -0.181952
     7  C    0.115062
     8  N   -0.148334
     9  C    0.093848
    10  C   -0.133081
    11  C    0.273533
    12  O   -0.300897
    13  C    0.216864
    14  C    0.065406
 Electronic spatial extent (au):  <R**2>=           3121.3229
 Charge=             -0.0000 electrons
 Dipole moment (field-independent basis, Debye):
    X=             -0.2323    Y=              5.5136    Z=             -0.0702  Tot=              5.5190
 Quadrupole moment (field-independent basis, Debye-Ang):
   XX=            -74.6515   YY=            -85.5887   ZZ=            -82.2769
   XY=              5.2158   XZ=             -1.9735   YZ=             -1.5729
 Traceless Quadrupole moment (field-independent basis, Debye-Ang):
   XX=              6.1875   YY=             -4.7497   ZZ=             -1.4378
   XY=              5.2158   XZ=             -1.9735   YZ=             -1.5729
 Octapole moment (field-independent basis, Debye-Ang**2):
  XXX=            -37.2146  YYY=             55.2067  ZZZ=             -2.8030  XYY=             -1.6097
  XXY=             28.9817  XXZ=             -2.0992  XZZ=            -10.4265  YZZ=              2.2111
  YYZ=             -2.6829  XYZ=              2.9200
 Hexadecapole moment (field-independent basis, Debye-Ang**3):
 XXXX=          -2178.1436 YYYY=          -1572.7245 ZZZZ=           -172.2226 XXXY=             70.0035
 XXXZ=             -7.9127 YYYX=             53.6571 YYYZ=            -19.5410 ZZZX=             -0.7116
 ZZZY=             -2.8202 XXYY=           -733.7601 XXZZ=           -431.1742 YYZZ=           -288.8115
 XXYZ=              1.0679 YYXZ=            -15.9955 ZZXY=              9.7437
 N-N= 9.032722281374D+02 E-N=-3.363864895278D+03  KE= 6.621449597603D+02
   1 Symmetry operations used in ECPInt.
 ECPInt:  NShTT=    7626 NPrTT=   27482 LenC2=    7282 LenP2D=   18949.
 LDataN:  DoStor=T MaxTD1= 5 Len=  102
 Calling FoFJK, ICntrl=      2127 FMM=F ISym2X=0 I1Cent= 0 IOpClX= 0 NMat=1 NMatS=1 NMatT=0.
 ***** Axes restored to original set *****
 -------------------------------------------------------------------
 Center     Atomic                   Forces (Hartrees/Bohr)
 Number     Number              X              Y              Z
 -------------------------------------------------------------------
      1        6          -0.000009415    0.000018224    0.000007144
      2        6          -0.000019247   -0.000021588   -0.000014256
      3        8           0.000027193    0.000001235    0.000001374
      4        6          -0.000023615    0.000004656    0.000001437
      5        8           0.000005574   -0.000002855   -0.000002845
      6        6           0.000004591    0.000006368    0.000000993
      7        6          -0.000038268    0.000001732   -0.000018552
      8        7           0.000037481    0.000027336    0.000004198
      9        6          -0.000010542   -0.000046891    0.000009273
     10        6          -0.000044156    0.000029562   -0.000011354
     11        6           0.000073342   -0.000026378    0.000017250
     12        8          -0.000031600    0.000018141   -0.000013576
     13        6          -0.000007332   -0.000013214   -0.000005808
     14        6           0.000005555    0.000007908    0.000018328
     15        1          -0.000002177   -0.000003960   -0.000001570
     16        1           0.000006942   -0.000003872   -0.000001078
     17        1           0.000000997   -0.000001340    0.000005155
     18        1           0.000005714    0.000004157    0.000004724
     19        1           0.000001007    0.000004609    0.000002056
     20        1           0.000004796   -0.000002016    0.000003476
     21        1           0.000003572    0.000003423   -0.000003188
     22        1           0.000003964    0.000001780   -0.000003625
     23        1          -0.000002752    0.000004655    0.000008236
     24        1           0.000008238   -0.000004363   -0.000001943
     25        1          -0.000002306   -0.000004739   -0.000002479
     26        1          -0.000000816   -0.000000264   -0.000006693
     27        1           0.000003262   -0.000002306    0.000003324
 -------------------------------------------------------------------
 Cartesian Forces:  Max     0.000073342 RMS     0.000016279

 GradGradGradGradGradGradGradGradGradGradGradGradGradGradGradGradGradGrad
 Berny optimization.
 FormGI is forming the generalized inverse of G from B-inverse, IUseBI=4.
 Internal  Forces:  Max     0.000036380 RMS     0.000007814
 Search for a local minimum.
 Step number   1 out of a maximum of  134
 All quantities printed in internal units (Hartrees-Bohrs-Radians)
 Mixed Optimization -- En-DIIS/RFO-DIIS
 Second derivative matrix not updated -- first step.
 ITU=  0
     Eigenvalues ---    0.00529   0.00620   0.00835   0.01355   0.01435
     Eigenvalues ---    0.01476   0.01630   0.01984   0.02105   0.02131
     Eigenvalues ---    0.02183   0.02271   0.02344   0.02511   0.02587
     Eigenvalues ---    0.02611   0.04808   0.05372   0.05594   0.05739
     Eigenvalues ---    0.05746   0.05773   0.05787   0.05818   0.11340
     Eigenvalues ---    0.11838   0.13658   0.14013   0.16000   0.16000
     Eigenvalues ---    0.16000   0.16000   0.16000   0.16000   0.16000
     Eigenvalues ---    0.16000   0.16000   0.21903   0.21997   0.22334
     Eigenvalues ---    0.23244   0.24566   0.24985   0.24991   0.24999
     Eigenvalues ---    0.25000   0.25000   0.25000   0.30565   0.31243
     Eigenvalues ---    0.32934   0.33323   0.33502   0.33538   0.33702
     Eigenvalues ---    0.33732   0.33737   0.33747   0.33750   0.33776
     Eigenvalues ---    0.33863   0.34143   0.34310   0.34934   0.41562
     Eigenvalues ---    0.41647   0.42492   0.43017   0.44949   0.46658
     Eigenvalues ---    0.57252   0.58726   0.58957   0.59392   1.01561
 RFO step:  Lambda=-3.68845538D-08 EMin= 5.28555744D-03
 Linear search not attempted -- first point.
 Iteration  1 RMS(Cart)=  0.00029422 RMS(Int)=  0.00000004
 Iteration  2 RMS(Cart)=  0.00000005 RMS(Int)=  0.00000000
 Variable       Old X    -DE/DX   Delta X   Delta X   Delta X     New X
                                 (Linear)    (Quad)   (Total)
    R1        2.85551   0.00001   0.00000   0.00003   0.00003   2.85554
    R2        2.07754   0.00000   0.00000   0.00001   0.00001   2.07755
    R3        2.07760   0.00000   0.00000   0.00000   0.00000   2.07760
    R4        2.07777   0.00000   0.00000   0.00001   0.00001   2.07778
    R5        2.69375   0.00002   0.00000   0.00004   0.00004   2.69379
    R6        2.08178  -0.00000   0.00000  -0.00000  -0.00000   2.08178
    R7        2.08116  -0.00000   0.00000  -0.00001  -0.00001   2.08115
    R8        2.51425  -0.00001   0.00000  -0.00001  -0.00001   2.51423
    R9        2.28020   0.00000   0.00000   0.00000   0.00000   2.28020
   R10        2.82467   0.00001   0.00000   0.00002   0.00002   2.82469
   R11        2.64477  -0.00001   0.00000  -0.00002  -0.00002   2.64476
   R12        2.67141  -0.00001   0.00000  -0.00001  -0.00001   2.67139
   R13        2.50987   0.00003   0.00000   0.00005   0.00005   2.50992
   R14        2.06811   0.00000   0.00000   0.00000   0.00000   2.06811
   R15        2.51420  -0.00003   0.00000  -0.00004  -0.00004   2.51416
   R16        2.62764   0.00002   0.00000   0.00004   0.00004   2.62769
   R17        2.07089   0.00000   0.00000   0.00001   0.00001   2.07090
   R18        2.65243  -0.00004   0.00000  -0.00008  -0.00008   2.65235
   R19        2.05782   0.00000   0.00000   0.00001   0.00001   2.05783
   R20        2.51775   0.00002   0.00000   0.00004   0.00004   2.51779
   R21        2.67648  -0.00001   0.00000  -0.00002  -0.00002   2.67646
   R22        2.86850   0.00001   0.00000   0.00003   0.00003   2.86853
   R23        2.07561   0.00000   0.00000   0.00000   0.00000   2.07561
   R24        2.08488   0.00001   0.00000   0.00003   0.00003   2.08491
   R25        2.07710   0.00000   0.00000   0.00000   0.00000   2.07710
   R26        2.07835   0.00000   0.00000   0.00000   0.00000   2.07835
   R27        2.07784   0.00000   0.00000   0.00001   0.00001   2.07785
    A1        1.92023  -0.00000   0.00000  -0.00002  -0.00002   1.92022
    A2        1.93257  -0.00001   0.00000  -0.00007  -0.00007   1.93250
    A3        1.93434  -0.00000   0.00000   0.00000   0.00000   1.93434
    A4        1.89316   0.00001   0.00000   0.00004   0.00004   1.89320
    A5        1.89186   0.00000   0.00000   0.00003   0.00003   1.89189
    A6        1.89056   0.00000   0.00000   0.00002   0.00002   1.89058
    A7        1.88049  -0.00000   0.00000  -0.00002  -0.00002   1.88047
    A8        1.95359  -0.00000   0.00000  -0.00001  -0.00001   1.95359
    A9        1.95361  -0.00000   0.00000   0.00000   0.00000   1.95361
   A10        1.90508  -0.00000   0.00000  -0.00003  -0.00003   1.90505
   A11        1.90525   0.00000   0.00000  -0.00000  -0.00000   1.90525
   A12        1.86524   0.00000   0.00000   0.00006   0.00006   1.86529
   A13        2.03660  -0.00000   0.00000  -0.00000  -0.00000   2.03660
   A14        2.14827   0.00001   0.00000   0.00005   0.00005   2.14831
   A15        1.98909  -0.00001   0.00000  -0.00003  -0.00003   1.98906
   A16        2.14517  -0.00000   0.00000  -0.00001  -0.00001   2.14516
   A17        2.02531   0.00001   0.00000   0.00003   0.00003   2.02533
   A18        2.20150  -0.00000   0.00000  -0.00001  -0.00001   2.20148
   A19        2.05636  -0.00000   0.00000  -0.00001  -0.00001   2.05635
   A20        2.18347  -0.00001   0.00000  -0.00003  -0.00003   2.18344
   A21        2.05141   0.00001   0.00000   0.00005   0.00005   2.05146
   A22        2.04829  -0.00000   0.00000  -0.00002  -0.00002   2.04827
   A23        2.03178   0.00000   0.00000   0.00001   0.00001   2.03179
   A24        2.17118   0.00000   0.00000   0.00001   0.00001   2.17120
   A25        2.03363   0.00000   0.00000   0.00002   0.00002   2.03365
   A26        2.07836  -0.00001   0.00000  -0.00003  -0.00003   2.07833
   A27        2.07892  -0.00001   0.00000  -0.00004  -0.00004   2.07887
   A28        2.08022   0.00000   0.00000   0.00001   0.00001   2.08023
   A29        2.12402   0.00001   0.00000   0.00004   0.00004   2.12406
   A30        2.04437   0.00002   0.00000   0.00006   0.00006   2.04443
   A31        2.07388  -0.00002   0.00000  -0.00007  -0.00007   2.07381
   A32        2.16449   0.00000   0.00000   0.00001   0.00001   2.16449
   A33        2.11952  -0.00003   0.00000  -0.00012  -0.00012   2.11940
   A34        1.96129   0.00000   0.00000   0.00001   0.00001   1.96130
   A35        1.82228   0.00000   0.00000   0.00002   0.00002   1.82230
   A36        1.92857  -0.00000   0.00000  -0.00003  -0.00003   1.92854
   A37        1.92496  -0.00001   0.00000  -0.00004  -0.00004   1.92491
   A38        1.95219  -0.00000   0.00000  -0.00001  -0.00001   1.95218
   A39        1.86794   0.00001   0.00000   0.00006   0.00006   1.86799
   A40        1.92165  -0.00001   0.00000  -0.00005  -0.00005   1.92161
   A41        1.91967  -0.00001   0.00000  -0.00007  -0.00007   1.91960
   A42        1.95337   0.00000   0.00000   0.00003   0.00003   1.95340
   A43        1.89350   0.00001   0.00000   0.00004   0.00004   1.89354
   A44        1.88699   0.00000   0.00000   0.00002   0.00002   1.88700
   A45        1.88722   0.00000   0.00000   0.00003   0.00003   1.88725
    D1       -3.14124  -0.00000   0.00000  -0.00024  -0.00024  -3.14148
    D2       -1.04660  -0.00000   0.00000  -0.00030  -0.00030  -1.04690
    D3        1.04710  -0.00000   0.00000  -0.00023  -0.00023   1.04687
    D4        1.04937  -0.00000   0.00000  -0.00023  -0.00023   1.04914
    D5       -3.13918  -0.00000   0.00000  -0.00028  -0.00028  -3.13946
    D6       -1.04548  -0.00000   0.00000  -0.00021  -0.00021  -1.04569
    D7       -1.04916   0.00000   0.00000  -0.00021  -0.00021  -1.04937
    D8        1.04547  -0.00000   0.00000  -0.00027  -0.00027   1.04521
    D9        3.13918   0.00000   0.00000  -0.00020  -0.00020   3.13898
   D10       -3.10052  -0.00000   0.00000  -0.00003  -0.00003  -3.10055
   D11        1.05763   0.00000   0.00000   0.00001   0.00001   1.05765
   D12       -0.97537  -0.00000   0.00000  -0.00004  -0.00004  -0.97541
   D13       -0.03113  -0.00000   0.00000  -0.00000  -0.00000  -0.03114
   D14       -3.13466  -0.00000   0.00000  -0.00022  -0.00022  -3.13487
   D15        2.80363   0.00000   0.00000   0.00007   0.00007   2.80370
   D16       -0.34580   0.00000   0.00000   0.00003   0.00003  -0.34577
   D17       -0.29997  -0.00000   0.00000  -0.00015  -0.00015  -0.30012
   D18        2.83379  -0.00000   0.00000  -0.00019  -0.00019   2.83360
   D19       -3.12371   0.00000   0.00000   0.00006   0.00006  -3.12365
   D20        0.01306  -0.00000   0.00000  -0.00017  -0.00017   0.01289
   D21        0.02503   0.00000   0.00000   0.00010   0.00010   0.02513
   D22       -3.12138  -0.00000   0.00000  -0.00013  -0.00013  -3.12151
   D23        3.12403   0.00000   0.00000   0.00011   0.00011   3.12414
   D24       -0.04852   0.00000   0.00000   0.00011   0.00011  -0.04841
   D25       -0.02552   0.00000   0.00000   0.00007   0.00007  -0.02545
   D26        3.08512   0.00000   0.00000   0.00007   0.00007   3.08519
   D27       -0.00925  -0.00000   0.00000  -0.00018  -0.00018  -0.00942
   D28        3.13715   0.00000   0.00000   0.00006   0.00006   3.13721
   D29       -0.00518   0.00000   0.00000   0.00008   0.00008  -0.00510
   D30        3.14061   0.00000   0.00000   0.00013   0.00013   3.14074
   D31        0.00275   0.00000   0.00000   0.00008   0.00008   0.00284
   D32       -3.13251   0.00000   0.00000   0.00005   0.00005  -3.13247
   D33        3.14005   0.00000   0.00000   0.00003   0.00003   3.14008
   D34        0.00478  -0.00000   0.00000  -0.00000  -0.00000   0.00478
   D35        0.01312  -0.00000   0.00000  -0.00015  -0.00015   0.01296
   D36       -3.09576  -0.00000   0.00000  -0.00015  -0.00015  -3.09591
   D37       -3.13497  -0.00000   0.00000  -0.00012  -0.00012  -3.13508
   D38        0.03934  -0.00000   0.00000  -0.00012  -0.00012   0.03923
   D39        3.07347  -0.00000   0.00000  -0.00002  -0.00002   3.07345
   D40       -0.10135  -0.00000   0.00000  -0.00002  -0.00002  -0.10138
   D41       -1.36591   0.00000   0.00000   0.00025   0.00025  -1.36566
   D42        2.83097   0.00001   0.00000   0.00028   0.00028   2.83126
   D43        0.82807   0.00000   0.00000   0.00022   0.00022   0.82829
   D44       -0.97920  -0.00000   0.00000   0.00008   0.00008  -0.97913
   D45       -3.06495   0.00000   0.00000   0.00010   0.00010  -3.06484
   D46        1.12005  -0.00000   0.00000   0.00009   0.00009   1.12014
   D47        1.04620  -0.00000   0.00000   0.00008   0.00008   1.04628
   D48       -1.03954   0.00000   0.00000   0.00011   0.00011  -1.03943
   D49       -3.13774   0.00000   0.00000   0.00010   0.00010  -3.13764
   D50        3.12291   0.00000   0.00000   0.00012   0.00012   3.12303
   D51        1.03717   0.00000   0.00000   0.00014   0.00014   1.03731
   D52       -1.06102   0.00000   0.00000   0.00013   0.00013  -1.06090
         Item               Value     Threshold  Converged?
 Maximum Force            0.000036     0.000450     YES
 RMS     Force            0.000008     0.000300     YES
 Maximum Displacement     0.001035     0.001800     YES
 RMS     Displacement     0.000294     0.001200     YES
 Predicted change in Energy=-1.844223D-08
 Optimization completed.
    -- Stationary point found.
                           ----------------------------
                           !   Optimized Parameters   !
                           ! (Angstroms and Degrees)  !
 --------------------------                            --------------------------
 ! Name  Definition              Value          Derivative Info.                !
 --------------------------------------------------------------------------------
 ! R1    R(1,2)                  1.5111         -DE/DX =    0.0                 !
 ! R2    R(1,15)                 1.0994         -DE/DX =    0.0                 !
 ! R3    R(1,16)                 1.0994         -DE/DX =    0.0                 !
 ! R4    R(1,17)                 1.0995         -DE/DX =    0.0                 !
 ! R5    R(2,3)                  1.4255         -DE/DX =    0.0                 !
 ! R6    R(2,18)                 1.1016         -DE/DX =    0.0                 !
 ! R7    R(2,19)                 1.1013         -DE/DX =    0.0                 !
 ! R8    R(3,4)                  1.3305         -DE/DX =    0.0                 !
 ! R9    R(4,5)                  1.2066         -DE/DX =    0.0                 !
 ! R10   R(4,6)                  1.4948         -DE/DX =    0.0                 !
 ! R11   R(6,7)                  1.3996         -DE/DX =    0.0                 !
 ! R12   R(6,11)                 1.4136         -DE/DX =    0.0                 !
 ! R13   R(7,8)                  1.3282         -DE/DX =    0.0                 !
 ! R14   R(7,20)                 1.0944         -DE/DX =    0.0                 !
 ! R15   R(8,9)                  1.3305         -DE/DX =    0.0                 !
 ! R16   R(9,10)                 1.3905         -DE/DX =    0.0                 !
 ! R17   R(9,21)                 1.0959         -DE/DX =    0.0                 !
 ! R18   R(10,11)                1.4036         -DE/DX =    0.0                 !
 ! R19   R(10,22)                1.089          -DE/DX =    0.0                 !
 ! R20   R(11,12)                1.3323         -DE/DX =    0.0                 !
 ! R21   R(12,13)                1.4163         -DE/DX =    0.0                 !
 ! R22   R(13,14)                1.5179         -DE/DX =    0.0                 !
 ! R23   R(13,23)                1.0984         -DE/DX =    0.0                 !
 ! R24   R(13,24)                1.1033         -DE/DX =    0.0                 !
 ! R25   R(14,25)                1.0992         -DE/DX =    0.0                 !
 ! R26   R(14,26)                1.0998         -DE/DX =    0.0                 !
 ! R27   R(14,27)                1.0995         -DE/DX =    0.0                 !
 ! A1    A(2,1,15)             110.0213         -DE/DX =    0.0                 !
 ! A2    A(2,1,16)             110.7282         -DE/DX =    0.0                 !
 ! A3    A(2,1,17)             110.8296         -DE/DX =    0.0                 !
 ! A4    A(15,1,16)            108.4703         -DE/DX =    0.0                 !
 ! A5    A(15,1,17)            108.3954         -DE/DX =    0.0                 !
 ! A6    A(16,1,17)            108.321          -DE/DX =    0.0                 !
 ! A7    A(1,2,3)              107.744          -DE/DX =    0.0                 !
 ! A8    A(1,2,18)             111.9327         -DE/DX =    0.0                 !
 ! A9    A(1,2,19)             111.9334         -DE/DX =    0.0                 !
 ! A10   A(3,2,18)             109.1532         -DE/DX =    0.0                 !
 ! A11   A(3,2,19)             109.1628         -DE/DX =    0.0                 !
 ! A12   A(18,2,19)            106.8703         -DE/DX =    0.0                 !
 ! A13   A(2,3,4)              116.6888         -DE/DX =    0.0                 !
 ! A14   A(3,4,5)              123.0867         -DE/DX =    0.0                 !
 ! A15   A(3,4,6)              113.9664         -DE/DX =    0.0                 !
 ! A16   A(5,4,6)              122.9091         -DE/DX =    0.0                 !
 ! A17   A(4,6,7)              116.0414         -DE/DX =    0.0                 !
 ! A18   A(4,6,11)             126.1364         -DE/DX =    0.0                 !
 ! A19   A(7,6,11)             117.8207         -DE/DX =    0.0                 !
 ! A20   A(6,7,8)              125.1038         -DE/DX =    0.0                 !
 ! A21   A(6,7,20)             117.5371         -DE/DX =    0.0                 !
 ! A22   A(8,7,20)             117.3585         -DE/DX =    0.0                 !
 ! A23   A(7,8,9)              116.4123         -DE/DX =    0.0                 !
 ! A24   A(8,9,10)             124.3997         -DE/DX =    0.0                 !
 ! A25   A(8,9,21)             116.5186         -DE/DX =    0.0                 !
 ! A26   A(10,9,21)            119.0813         -DE/DX =    0.0                 !
 ! A27   A(9,10,11)            119.1132         -DE/DX =    0.0                 !
 ! A28   A(9,10,22)            119.1881         -DE/DX =    0.0                 !
 ! A29   A(11,10,22)           121.6977         -DE/DX =    0.0                 !
 ! A30   A(6,11,10)            117.1335         -DE/DX =    0.0                 !
 ! A31   A(6,11,12)            118.8247         -DE/DX =    0.0                 !
 ! A32   A(10,11,12)           124.016          -DE/DX =    0.0                 !
 ! A33   A(11,12,13)           121.4396         -DE/DX =    0.0                 !
 ! A34   A(12,13,14)           112.3738         -DE/DX =    0.0                 !
 ! A35   A(12,13,23)           104.4089         -DE/DX =    0.0                 !
 ! A36   A(12,13,24)           110.4989         -DE/DX =    0.0                 !
 ! A37   A(14,13,23)           110.292          -DE/DX =    0.0                 !
 ! A38   A(14,13,24)           111.8523         -DE/DX =    0.0                 !
 ! A39   A(23,13,24)           107.0248         -DE/DX =    0.0                 !
 ! A40   A(13,14,25)           110.1025         -DE/DX =    0.0                 !
 ! A41   A(13,14,26)           109.9888         -DE/DX =    0.0                 !
 ! A42   A(13,14,27)           111.9196         -DE/DX =    0.0                 !
 ! A43   A(25,14,26)           108.4898         -DE/DX =    0.0                 !
 ! A44   A(25,14,27)           108.1164         -DE/DX =    0.0                 !
 ! A45   A(26,14,27)           108.1295         -DE/DX =    0.0                 !
 ! D1    D(15,1,2,3)          -179.9797         -DE/DX =    0.0                 !
 ! D2    D(15,1,2,18)          -59.966          -DE/DX =    0.0                 !
 ! D3    D(15,1,2,19)           59.9944         -DE/DX =    0.0                 !
 ! D4    D(16,1,2,3)            60.1245         -DE/DX =    0.0                 !
 ! D5    D(16,1,2,18)         -179.8619         -DE/DX =    0.0                 !
 ! D6    D(16,1,2,19)          -59.9015         -DE/DX =    0.0                 !
 ! D7    D(17,1,2,3)           -60.1123         -DE/DX =    0.0                 !
 ! D8    D(17,1,2,18)           59.9013         -DE/DX =    0.0                 !
 ! D9    D(17,1,2,19)          179.8617         -DE/DX =    0.0                 !
 ! D10   D(1,2,3,4)           -177.6467         -DE/DX =    0.0                 !
 ! D11   D(18,2,3,4)            60.598          -DE/DX =    0.0                 !
 ! D12   D(19,2,3,4)           -55.8848         -DE/DX =    0.0                 !
 ! D13   D(2,3,4,5)             -1.7839         -DE/DX =    0.0                 !
 ! D14   D(2,3,4,6)           -179.6027         -DE/DX =    0.0                 !
 ! D15   D(3,4,6,7)            160.636          -DE/DX =    0.0                 !
 ! D16   D(3,4,6,11)           -19.8128         -DE/DX =    0.0                 !
 ! D17   D(5,4,6,7)            -17.1872         -DE/DX =    0.0                 !
 ! D18   D(5,4,6,11)           162.3639         -DE/DX =    0.0                 !
 ! D19   D(4,6,7,8)           -178.9756         -DE/DX =    0.0                 !
 ! D20   D(4,6,7,20)             0.7485         -DE/DX =    0.0                 !
 ! D21   D(11,6,7,8)             1.4343         -DE/DX =    0.0                 !
 ! D22   D(11,6,7,20)         -178.8416         -DE/DX =    0.0                 !
 ! D23   D(4,6,11,10)          178.9936         -DE/DX =    0.0                 !
 ! D24   D(4,6,11,12)           -2.7799         -DE/DX =    0.0                 !
 ! D25   D(7,6,11,10)           -1.4624         -DE/DX =    0.0                 !
 ! D26   D(7,6,11,12)          176.7641         -DE/DX =    0.0                 !
 ! D27   D(6,7,8,9)             -0.5298         -DE/DX =    0.0                 !
 ! D28   D(20,7,8,9)           179.7456         -DE/DX =    0.0                 !
 ! D29   D(7,8,9,10)            -0.2966         -DE/DX =    0.0                 !
 ! D30   D(7,8,9,21)           179.9437         -DE/DX =    0.0                 !
 ! D31   D(8,9,10,11)            0.1577         -DE/DX =    0.0                 !
 ! D32   D(8,9,10,22)         -179.4798         -DE/DX =    0.0                 !
 ! D33   D(21,9,10,11)         179.9117         -DE/DX =    0.0                 !
 ! D34   D(21,9,10,22)           0.2741         -DE/DX =    0.0                 !
 ! D35   D(9,10,11,6)            0.7516         -DE/DX =    0.0                 !
 ! D36   D(9,10,11,12)        -177.3739         -DE/DX =    0.0                 !
 ! D37   D(22,10,11,6)        -179.6203         -DE/DX =    0.0                 !
 ! D38   D(22,10,11,12)          2.2543         -DE/DX =    0.0                 !
 ! D39   D(6,11,12,13)         176.0971         -DE/DX =    0.0                 !
 ! D40   D(10,11,12,13)         -5.8071         -DE/DX =    0.0                 !
 ! D41   D(11,12,13,14)        -78.2609         -DE/DX =    0.0                 !
 ! D42   D(11,12,13,23)        162.2028         -DE/DX =    0.0                 !
 ! D43   D(11,12,13,24)         47.4449         -DE/DX =    0.0                 !
 ! D44   D(12,13,14,25)        -56.1042         -DE/DX =    0.0                 !
 ! D45   D(12,13,14,26)       -175.6084         -DE/DX =    0.0                 !
 ! D46   D(12,13,14,27)         64.174          -DE/DX =    0.0                 !
 ! D47   D(23,13,14,25)         59.9428         -DE/DX =    0.0                 !
 ! D48   D(23,13,14,26)        -59.5615         -DE/DX =    0.0                 !
 ! D49   D(23,13,14,27)       -179.779          -DE/DX =    0.0                 !
 ! D50   D(24,13,14,25)        178.9296         -DE/DX =    0.0                 !
 ! D51   D(24,13,14,26)         59.4253         -DE/DX =    0.0                 !
 ! D52   D(24,13,14,27)        -60.7922         -DE/DX =    0.0                 !
 --------------------------------------------------------------------------------
 GradGradGradGradGradGradGradGradGradGradGradGradGradGradGradGradGradGrad

                          Input orientation:                          
 ---------------------------------------------------------------------
 Center     Atomic      Atomic             Coordinates (Angstroms)
 Number     Number       Type             X           Y           Z
 ---------------------------------------------------------------------
      1          6           0       -3.862460    1.000700    0.233080
      2          6           0       -3.224590   -0.359130    0.067810
      3          8           0       -1.810440   -0.181400    0.091430
      4          6           0       -1.068160   -1.270600   -0.089810
      5          8           0       -1.539140   -2.371800   -0.236420
      6          6           0        0.404130   -1.016490   -0.044310
      7          6           0        1.213400   -2.133480    0.192680
      8          7           0        2.537940   -2.110590    0.288050
      9          6           0        3.122050   -0.925280    0.133210
     10          6           0        2.440030    0.259200   -0.122360
     11          6           0        1.040500    0.232690   -0.225920
     12          8           0        0.294390    1.297340   -0.517400
     13          6           0        0.863180    2.589510   -0.630430
     14          6           0        1.134000    3.221980    0.722640
     15          1           0       -4.957750    0.906710    0.220490
     16          1           0       -3.561210    1.673540   -0.582550
     17          1           0       -3.564480    1.458990    1.187070
     18          1           0       -3.515460   -1.050840    0.874360
     19          1           0       -3.513170   -0.836190   -0.881930
     20          1           0        0.717130   -3.101400    0.313290
     21          1           0        4.214840   -0.904230    0.212510
     22          1           0        3.005310    1.182100   -0.242900
     23          1           0        0.111190    3.172070   -1.179560
     24          1           0        1.769840    2.558970   -1.258320
     25          1           0        0.209390    3.255050    1.316060
     26          1           0        1.500490    4.250460    0.590310
     27          1           0        1.887380    2.661220    1.294450
 ---------------------------------------------------------------------
                    Distance matrix (angstroms):
                    1          2          3          4          5
     1  C    0.000000
     2  C    1.511069   0.000000
     3  O    2.372385   1.425470   0.000000
     4  C    3.615408   2.346447   1.330483   0.000000
     5  O    4.122136   2.642752   2.231354   1.206631   0.000000
     6  C    4.727557   3.689485   2.370679   1.494751   2.376988
     7  C    5.965658   4.781178   3.600622   2.455581   2.795961
     8  N    7.116760   6.026846   4.761181   3.721870   4.118966
     9  C    7.245878   6.372177   4.988443   4.210326   4.894460
    10  C    6.355906   5.701440   4.278590   3.827368   4.771684
    11  C    4.983928   4.315961   2.898282   2.593232   3.665791
    12  O    4.234456   3.933139   2.643417   2.938314   4.111371
    13  C    5.059806   5.088406   3.917559   4.350034   5.526390
    14  C    5.489842   5.678949   4.544353   5.068812   6.273424
    15  H    1.099387   2.151629   3.332597   4.468319   4.758602
    16  H    1.099417   2.160562   2.638228   3.889222   4.535785
    17  H    1.099508   2.161904   2.639690   3.913144   4.561061
    18  H    2.177261   1.101631   2.067849   2.639545   2.623854
    19  H    2.177020   1.101304   2.067721   2.606576   2.582939
    20  H    6.148683   4.808062   3.868363   2.588741   2.434184
    21  H    8.298913   7.460777   6.069690   5.304311   5.955131
    22  H    6.886634   6.425230   5.016209   4.757345   5.769079
    23  H    4.743447   5.015250   4.068641   4.723954   5.860682
    24  H    6.031192   5.934497   4.706364   4.907674   6.025456
    25  H    4.778588   5.139323   4.169966   4.908168   6.093356
    26  H    6.280906   6.621760   5.554505   6.127204   7.333291
    27  H    6.078198   6.062953   4.816806   5.109853   6.278208
                    6          7          8          9         10
     6  C    0.000000
     7  C    1.399553   0.000000
     8  N    2.420881   1.328166   0.000000
     9  C    2.725238   2.259697   1.330458   0.000000
    10  C    2.403823   2.707174   2.407058   1.390489   0.000000
    11  C    1.413648   2.409124   2.827977   2.408883   1.403607
    12  O    2.364248   3.622060   4.158876   3.654996   2.416105
    13  C    3.682051   4.806953   5.073398   4.247280   2.859184
    14  C    4.368701   5.382203   5.531385   4.636759   3.346312
    15  H    5.702506   6.879435   8.080472   8.285347   7.433974
    16  H    4.821813   6.155590   7.230298   7.206396   6.182800
    17  H    4.836751   6.059933   7.126687   7.176702   6.261649
    18  H    4.025956   4.898869   6.173369   6.679941   6.178796
    19  H    4.009907   5.017790   6.293559   6.713017   6.100608
    20  H    2.138386   1.094395   2.073087   3.248318   3.801553
    21  H    3.821004   3.243469   2.067125   1.095866   2.148408
    22  H    3.411653   3.793909   3.367811   2.143860   1.088952
    23  H    4.349556   5.589881   5.995789   5.251373   3.876336
    24  H    4.015333   4.943087   4.978557   3.988085   2.651132
    25  H    4.487158   5.595201   5.938774   5.230476   4.002490
    26  H    5.417150   6.402751   6.452180   5.443040   4.161825
    27  H    4.185434   4.965611   4.919984   3.966846   2.842969
                   11         12         13         14         15
    11  C    0.000000
    12  O    1.332336   0.000000
    13  C    2.397847   1.416334   0.000000
    14  C    3.137573   2.438623   1.517946   0.000000
    15  H    6.052486   5.318087   6.118750   6.536211   0.000000
    16  H    4.835180   3.874458   4.518464   5.113334   1.784160
    17  H    4.970532   4.221638   4.917881   5.039796   1.783393
    18  H    4.859510   4.686780   5.889739   6.316446   2.517886
    19  H    4.723215   4.379765   5.563372   6.374918   2.517904
    20  H    3.392856   4.496406   5.770476   6.350314   6.948224
    21  H    3.400183   4.555174   4.914305   5.174690   9.349651
    22  H    2.182234   2.727218   2.592239   2.931754   7.981284
    23  H    3.226918   1.996655   1.098366   2.160323   5.725919
    24  H    2.647521   2.077890   1.103273   2.183593   7.083594
    25  H    3.493294   2.683548   2.158520   1.099156   5.780511
    26  H    4.125566   3.376776   2.157574   1.099817   7.281916
    27  H    2.987723   2.771387   2.181580   1.099545   7.147552
                   16         17         18         19         20
    16  H    0.000000
    17  H    1.782582   0.000000
    18  H    3.089810   2.529711   0.000000
    19  H    2.527980   3.090509   1.769360   0.000000
    20  H    6.473544   6.316077   4.736498   4.945216   0.000000
    21  H    8.230673   8.188553   7.759966   7.805419   4.131790
    22  H    6.593638   6.729311   6.982459   6.853644   4.888096
    23  H    4.011052   4.695331   5.933308   5.412090   6.477051
    24  H    5.446168   5.970331   6.746366   6.291182   5.968077
    25  H    4.508139   4.181455   5.710542   5.952047   6.455060
    26  H    5.799735   5.813979   7.303713   7.292344   7.398665
    27  H    5.846860   5.583875   6.568603   6.792234   5.961539
                   21         22         23         24         25
    21  H    0.000000
[...]
 Alpha virt. eigenvalues --    6.30406   6.38999   6.45840   6.47667   6.53736
 Alpha virt. eigenvalues --    6.65026   6.69589   6.73298   6.77101   6.85387
 Alpha virt. eigenvalues --    6.88508   6.93757   7.01215   7.03079   7.08091
 Alpha virt. eigenvalues --    7.17194   7.26670   7.30419   7.47351   7.52876
 Alpha virt. eigenvalues --    7.55925  22.38793  22.40522  22.54774  22.58364
 Alpha virt. eigenvalues --   22.61064  22.81830  22.93873  23.02709  23.32649
 Alpha virt. eigenvalues --   23.66433  32.52858  44.04374  44.37505  44.46791
          Condensed to atoms (all electrons):
               1          2          3          4          5          6
     1  C    4.888783   0.313591  -0.044335   0.002936   0.004685   0.002550
     2  C    0.313591   4.817732   0.220658  -0.038189  -0.001263   0.005572
     3  O   -0.044335   0.220658   7.940873   0.381751  -0.080977  -0.102771
     4  C    0.002936  -0.038189   0.381751   4.496884   0.615619   0.304098
     5  O    0.004685  -0.001263  -0.080977   0.615619   7.907168  -0.114597
     6  C    0.002550   0.005572  -0.102771   0.304098  -0.114597   5.409815
     7  C   -0.000100  -0.000343   0.004395  -0.056353   0.017058   0.449070
     8  N   -0.000000   0.000013  -0.000205   0.008069   0.000161  -0.037236
     9  C   -0.000006  -0.000018   0.000270  -0.004223   0.000534  -0.015940
    10  C    0.000086   0.000078  -0.002014   0.013921  -0.001359  -0.072008
    11  C   -0.000299  -0.001191   0.015597  -0.094663   0.004391   0.338881
    12  O    0.001317   0.000020  -0.015713   0.012101  -0.000118  -0.103654
    13  C   -0.000253  -0.000074   0.001942   0.000498   0.000019   0.000254
    14  C   -0.000058   0.000104  -0.000604  -0.000094  -0.000004   0.003236
    15  H    0.411731  -0.038847   0.004196   0.000145   0.000116  -0.000054
    16  H    0.404476  -0.031421   0.001133   0.000054  -0.000090  -0.000618
    17  H    0.403542  -0.030228   0.001516  -0.000469  -0.000094   0.000031
    18  H   -0.029922   0.412818  -0.034231  -0.006951   0.006387  -0.004628
    19  H   -0.033067   0.420829  -0.038723  -0.007016   0.006344   0.001265
    20  H   -0.000008  -0.000117   0.000598  -0.012673   0.015783  -0.059951
    21  H   -0.000000   0.000000  -0.000001   0.000142   0.000001   0.002599
    22  H    0.000000   0.000000  -0.000032   0.000198   0.000001   0.011983
    23  H    0.000028  -0.000003   0.000130  -0.000342  -0.000000   0.001820
    24  H    0.000019  -0.000010  -0.000040  -0.000108  -0.000001  -0.003761
    25  H    0.000074  -0.000063   0.000351  -0.000008   0.000001  -0.001368
    26  H    0.000005  -0.000003   0.000008  -0.000005   0.000000  -0.000045
    27  H   -0.000002   0.000000   0.000025  -0.000024   0.000000   0.001827
               7          8          9         10         11         12
     1  C   -0.000100  -0.000000  -0.000006   0.000086  -0.000299   0.001317
     2  C   -0.000343   0.000013  -0.000018   0.000078  -0.001191   0.000020
     3  O    0.004395  -0.000205   0.000270  -0.002014   0.015597  -0.015713
     4  C   -0.056353   0.008069  -0.004223   0.013921  -0.094663   0.012101
     5  O    0.017058   0.000161   0.000534  -0.001359   0.004391  -0.000118
     6  C    0.449070  -0.037236  -0.015940  -0.072008   0.338881  -0.103654
     7  C    4.806480   0.515706  -0.105597  -0.023047  -0.000898   0.000727
     8  N    0.515706   6.434569   0.531647  -0.054750  -0.081331  -0.000217
     9  C   -0.105597   0.531647   4.730422   0.454582   0.000781   0.001432
    10  C   -0.023047  -0.054750   0.454582   5.237766   0.392099  -0.079165
    11  C   -0.000898  -0.081331   0.000781   0.392099   4.928177   0.415195
    12  O    0.000727  -0.000217   0.001432  -0.079165   0.415195   7.897871
    13  C   -0.000515  -0.000039  -0.003138   0.013619  -0.063605   0.229967
    14  C    0.000073  -0.000031   0.001902  -0.005304   0.008097  -0.046120
    15  H   -0.000004   0.000000  -0.000000   0.000001   0.000020   0.000021
    16  H    0.000007  -0.000000  -0.000000   0.000008   0.000258   0.000149
    17  H   -0.000002   0.000000   0.000001  -0.000012  -0.000135  -0.000028
    18  H    0.000173  -0.000000  -0.000003   0.000020   0.000524  -0.000049
    19  H   -0.000204   0.000001   0.000003  -0.000016  -0.000651  -0.000087
    20  H    0.430340  -0.023670   0.004227   0.000035   0.006468  -0.000064
    21  H    0.003276  -0.028542   0.435675  -0.071016  -0.000966  -0.000120
    22  H   -0.003018   0.007518  -0.007701   0.423476  -0.090287  -0.002894
    23  H    0.000058  -0.000003   0.000151  -0.001300   0.003899  -0.033946
    24  H    0.000041  -0.000043   0.000087   0.011156  -0.025089  -0.030231
    25  H   -0.000005   0.000004  -0.000078   0.001030  -0.002405   0.003152
    26  H   -0.000004   0.000002  -0.000044  -0.000569   0.000621   0.004593
    27  H    0.000026  -0.000034   0.001885  -0.001461   0.002619  -0.000213
              13         14         15         16         17         18
     1  C   -0.000253  -0.000058   0.411731   0.404476   0.403542  -0.029922
     2  C   -0.000074   0.000104  -0.038847  -0.031421  -0.030228   0.412818
     3  O    0.001942  -0.000604   0.004196   0.001133   0.001516  -0.034231
     4  C    0.000498  -0.000094   0.000145   0.000054  -0.000469  -0.006951
     5  O    0.000019  -0.000004   0.000116  -0.000090  -0.000094   0.006387
     6  C    0.000254   0.003236  -0.000054  -0.000618   0.000031  -0.004628
     7  C   -0.000515   0.000073  -0.000004   0.000007  -0.000002   0.000173
     8  N   -0.000039  -0.000031   0.000000  -0.000000   0.000000  -0.000000
     9  C   -0.003138   0.001902  -0.000000  -0.000000   0.000001  -0.000003
    10  C    0.013619  -0.005304   0.000001   0.000008  -0.000012   0.000020
    11  C   -0.063605   0.008097   0.000020   0.000258  -0.000135   0.000524
    12  O    0.229967  -0.046120   0.000021   0.000149  -0.000028  -0.000049
    13  C    4.842942   0.305184   0.000007  -0.000051  -0.000022   0.000015
    14  C    0.305184   4.976672  -0.000004   0.000034  -0.000008  -0.000002
    15  H    0.000007  -0.000004   0.550514  -0.021891  -0.021701  -0.002030
    16  H   -0.000051   0.000034  -0.021891   0.558845  -0.027464   0.007302
    17  H   -0.000022  -0.000008  -0.021701  -0.027464   0.559101  -0.008201
    18  H    0.000015  -0.000002  -0.002030   0.007302  -0.008201   0.589475
    19  H   -0.000013  -0.000002  -0.001819  -0.007857   0.007325  -0.044467
    20  H    0.000019  -0.000002  -0.000000   0.000001  -0.000000   0.000033
    21  H   -0.000180   0.000057   0.000000  -0.000000   0.000000  -0.000000
    22  H    0.007009  -0.005979  -0.000000  -0.000000   0.000000  -0.000000
    23  H    0.402491  -0.022501  -0.000003   0.000087   0.000001   0.000002
    24  H    0.432756  -0.068690   0.000000  -0.000003   0.000001  -0.000000
    25  H   -0.026546   0.395921   0.000005  -0.000009   0.000117  -0.000003
    26  H   -0.031822   0.393461   0.000000  -0.000003   0.000000  -0.000000
    27  H   -0.043413   0.421991  -0.000000  -0.000000   0.000002  -0.000000
              19         20         21         22         23         24
     1  C   -0.033067  -0.000008  -0.000000   0.000000   0.000028   0.000019
     2  C    0.420829  -0.000117   0.000000   0.000000  -0.000003  -0.000010
     3  O   -0.038723   0.000598  -0.000001  -0.000032   0.000130  -0.000040
     4  C   -0.007016  -0.012673   0.000142   0.000198  -0.000342  -0.000108
     5  O    0.006344   0.015783   0.000001   0.000001  -0.000000  -0.000001
     6  C    0.001265  -0.059951   0.002599   0.011983   0.001820  -0.003761
     7  C   -0.000204   0.430340   0.003276  -0.003018   0.000058   0.000041
     8  N    0.000001  -0.023670  -0.028542   0.007518  -0.000003  -0.000043
     9  C    0.000003   0.004227   0.435675  -0.007701   0.000151   0.000087
    10  C   -0.000016   0.000035  -0.071016   0.423476  -0.001300   0.011156
    11  C   -0.000651   0.006468  -0.000966  -0.090287   0.003899  -0.025089
    12  O   -0.000087  -0.000064  -0.000120  -0.002894  -0.033946  -0.030231
    13  C   -0.000013   0.000019  -0.000180   0.007009   0.402491   0.432756
    14  C   -0.000002  -0.000002   0.000057  -0.005979  -0.022501  -0.068690
    15  H   -0.001819  -0.000000   0.000000  -0.000000  -0.000003   0.000000
    16  H   -0.007857   0.000001  -0.000000  -0.000000   0.000087  -0.000003
    17  H    0.007325  -0.000000   0.000000   0.000000   0.000001   0.000001
    18  H   -0.044467   0.000033  -0.000000  -0.000000   0.000002  -0.000000
    19  H    0.581940  -0.000047   0.000000   0.000000  -0.000003   0.000001
    20  H   -0.000047   0.478168  -0.000215   0.000054  -0.000000   0.000001
    21  H    0.000000  -0.000215   0.530224  -0.000931  -0.000001  -0.000024
    22  H    0.000000   0.000054  -0.000931   0.521898   0.000035  -0.000255
    23  H   -0.000003  -0.000000  -0.000001   0.000035   0.549840  -0.025692
    24  H    0.000001   0.000001  -0.000024  -0.000255  -0.025692   0.592167
    25  H    0.000004   0.000000  -0.000001   0.000311  -0.005751   0.006868
    26  H    0.000000   0.000000   0.000001   0.000461  -0.002624   0.002041
    27  H    0.000000  -0.000002   0.000031  -0.002553   0.004541  -0.004360
              25         26         27
     1  C    0.000074   0.000005  -0.000002
     2  C   -0.000063  -0.000003   0.000000
     3  O    0.000351   0.000008   0.000025
     4  C   -0.000008  -0.000005  -0.000024
     5  O    0.000001   0.000000   0.000000
     6  C   -0.001368  -0.000045   0.001827
     7  C   -0.000005  -0.000004   0.000026
     8  N    0.000004   0.000002  -0.000034
     9  C   -0.000078  -0.000044   0.001885
    10  C    0.001030  -0.000569  -0.001461
    11  C   -0.002405   0.000621   0.002619
    12  O    0.003152   0.004593  -0.000213
    13  C   -0.026546  -0.031822  -0.043413
    14  C    0.395921   0.393461   0.421991
    15  H    0.000005   0.000000  -0.000000
    16  H   -0.000009  -0.000003  -0.000000
    17  H    0.000117   0.000000   0.000002
    18  H   -0.000003  -0.000000  -0.000000
    19  H    0.000004   0.000000   0.000000
    20  H    0.000000   0.000000  -0.000002
    21  H   -0.000001   0.000001   0.000031
    22  H    0.000311   0.000461  -0.002553
    23  H   -0.005751  -0.002624   0.004541
    24  H    0.006868   0.002041  -0.004360
    25  H    0.537413  -0.016545  -0.022367
    26  H   -0.016545   0.547655  -0.021732
    27  H   -0.022367  -0.021732   0.528325
 Mulliken charges:
               1
     1  C   -0.325773
     2  C   -0.049646
     3  O   -0.253796
     4  C    0.384701
     5  O   -0.379766
     6  C   -0.016372
     7  C   -0.037341
     8  N   -0.271585
     9  C   -0.026851
    10  C   -0.235856
    11  C    0.243893
    12  O   -0.253925
    13  C   -0.067049
    14  C   -0.357329
    15  H    0.119597
    16  H    0.117053
    17  H    0.116730
    18  H    0.113738
    19  H    0.116261
    20  H    0.161024
    21  H    0.129992
    22  H    0.140708
    23  H    0.129086
    24  H    0.113170
    25  H    0.129896
    26  H    0.124548
    27  H    0.134892
 Sum of Mulliken charges =  -0.00000
 Mulliken charges with hydrogens summed into heavy atoms:
               1
     1  C    0.027608
     2  C    0.180353
     3  O   -0.253796
     4  C    0.384701
     5  O   -0.379766
     6  C   -0.016372
     7  C    0.123682
     8  N   -0.271585
     9  C    0.103141
    10  C   -0.095148
    11  C    0.243893
    12  O   -0.253925
    13  C    0.175207
    14  C    0.032007
 Electronic spatial extent (au):  <R**2>=           3122.5918
 Charge=              0.0000 electrons
 Dipole moment (field-independent basis, Debye):
    X=             -0.2242    Y=              5.6218    Z=             -0.0788  Tot=              5.6268
 Quadrupole moment (field-independent basis, Debye-Ang):
   XX=            -75.0059   YY=            -86.4032   ZZ=            -82.8146
   XY=              5.0140   XZ=             -1.9867   YZ=             -1.6131
 Traceless Quadrupole moment (field-independent basis, Debye-Ang):
   XX=              6.4020   YY=             -4.9953   ZZ=             -1.4067
   XY=              5.0140   XZ=             -1.9867   YZ=             -1.6131
 Octapole moment (field-independent basis, Debye-Ang**2):
  XXX=            -34.7427  YYY=             55.6675  ZZZ=             -3.0843  XYY=             -1.6703
  XXY=             30.1248  XXZ=             -2.0822  XZZ=            -10.7595  YZZ=              2.6266
  YYZ=             -2.6178  XYZ=              3.0852
 Hexadecapole moment (field-independent basis, Debye-Ang**3):
 XXXX=          -2189.1803 YYYY=          -1595.7516 ZZZZ=           -178.3450 XXXY=             70.2255
 XXXZ=             -7.9220 YYYX=             54.0801 YYYZ=            -20.8158 ZZZX=             -1.4467
 ZZZY=             -2.9906 XXYY=           -745.5172 XXZZ=           -437.1671 YYZZ=           -294.4746
 XXYZ=              0.7535 YYXZ=            -16.3167 ZZXY=             10.1638
 N-N= 9.032722281374D+02 E-N=-3.369109681713D+03  KE= 6.660417373331D+02
 Breneman (CHELPG) radii used.
 Read replacement radii for each type of atom:
 Atom Element Radius
    1     6    1.50
    2     6    1.50
    3     8    1.70
    4     6    1.50
    5     8    1.70
    6     6    1.50
    7     6    1.50
    8     7    1.70
    9     6    1.50
   10     6    1.50
   11     6    1.50
   12     8    1.70
   13     6    1.50
   14     6    1.50
   15     1    1.45
   16     1    1.45
   17     1    1.45
   18     1    1.45
   19     1    1.45
   20     1    1.45
   21     1    1.45
   22     1    1.45
   23     1    1.45
   24     1    1.45
   25     1    1.45
   26     1    1.45
   27     1    1.45
 Generate Potential Derived Charges using the Breneman model, NDens= 1.
 Grid spacing= 0.300 Box extension= 2.800
 NStep X,Y,Z=   51     45     29   Total possible points=       66555
 Number of Points to Fit=   16750

 **********************************************************************

            Electrostatic Properties Using The SCF Density.

 **********************************************************************

       Atomic Center    1 is at  -3.862460  1.000699  0.233080
       Atomic Center    2 is at  -3.224590 -0.359131  0.067810
       Atomic Center    3 is at  -1.810440 -0.181400  0.091430
       Atomic Center    4 is at  -1.068160 -1.270600 -0.089810
       Atomic Center    5 is at  -1.539140 -2.371800 -0.236420
       Atomic Center    6 is at   0.404130 -1.016490 -0.044310
       Atomic Center    7 is at   1.213400 -2.133480  0.192680
       Atomic Center    8 is at   2.537940 -2.110590  0.288050
       Atomic Center    9 is at   3.122050 -0.925280  0.133210
       Atomic Center   10 is at   2.440030  0.259200 -0.122360
       Atomic Center   11 is at   1.040500  0.232690 -0.225920
       Atomic Center   12 is at   0.294390  1.297340 -0.517400
       Atomic Center   13 is at   0.863180  2.589510 -0.630430
       Atomic Center   14 is at   1.133999  3.221980  0.722640
       Atomic Center   15 is at  -4.957750  0.906709  0.220490
       Atomic Center   16 is at  -3.561210  1.673539 -0.582550
       Atomic Center   17 is at  -3.564480  1.458989  1.187070
       Atomic Center   18 is at  -3.515460 -1.050841  0.874360
       Atomic Center   19 is at  -3.513170 -0.836191 -0.881930
       Atomic Center   20 is at   0.717130 -3.101400  0.313290
       Atomic Center   21 is at   4.214840 -0.904230  0.212510
       Atomic Center   22 is at   3.005310  1.182100 -0.242900
       Atomic Center   23 is at   0.111189  3.172070 -1.179560
       Atomic Center   24 is at   1.769840  2.558970 -1.258320
       Atomic Center   25 is at   0.209389  3.255050  1.316060
       Atomic Center   26 is at   1.500489  4.250460  0.590310
       Atomic Center   27 is at   1.887380  2.661220  1.294450
   16750 points will be used for fitting atomic charges
 Fitting point charges to electrostatic potential
 Charges from ESP fit, RMS=   0.00288 RRMS=   0.17641:
 ESP charges:
               1
     1  C   -0.342701
     2  C    0.374618
     3  O   -0.408060
     4  C    0.783238
     5  O   -0.573701
     6  C   -0.525088
     7  C    0.444278
     8  N   -0.656941
     9  C    0.455192
    10  C   -0.580914
    11  C    0.675759
    12  O   -0.439967
    13  C    0.295456
    14  C   -0.215029
    15  H    0.072786
    16  H    0.106712
    17  H    0.098655
    18  H   -0.008831
    19  H   -0.004900
    20  H    0.042602
    21  H    0.021597
    22  H    0.194477
    23  H    0.033409
    24  H   -0.021523
    25  H    0.074623
    26  H    0.056530
    27  H    0.047721
 Sum of ESP charges =   0.00000
 ESP charges with hydrogens summed into heavy atoms:
               1
     1  C   -0.064548
     2  C    0.360888
     3  O   -0.408060
     4  C    0.783238
     5  O   -0.573701
     6  C   -0.525088
     7  C    0.486880
     8  N   -0.656941
     9  C    0.476789
    10  C   -0.386436
    11  C    0.675759
    12  O   -0.439967
    13  C    0.307342
    14  C   -0.036155
 Charge=   0.00000 Dipole=    -0.1594     5.5845    -0.1081 Tot=     5.5878
 -----------------------------------------------------------------

              Electrostatic Properties (Atomic Units)

 -----------------------------------------------------------------
    Center     Electric         -------- Electric Field --------
               Potential          X             Y             Z
 -----------------------------------------------------------------
    1 Atom    -14.768307
    2 Atom    -14.710548
    3 Atom    -22.317877
    4 Atom    -14.642251
    5 Atom    -22.387270
    6 Atom    -14.748471
    7 Atom    -14.732402
    8 Atom    -18.404414
    9 Atom    -14.727329
   10 Atom    -14.756336
   11 Atom    -14.673496
   12 Atom    -22.307630
   13 Atom    -14.692825
   14 Atom    -14.757592
   15 Atom     -1.107774
   16 Atom     -1.114150
   17 Atom     -1.114028
   18 Atom     -1.114535
   19 Atom     -1.114196
   20 Atom     -1.108968
   21 Atom     -1.099846
   22 Atom     -1.079645
   23 Atom     -1.097391
   24 Atom     -1.093787
   25 Atom     -1.103129
   26 Atom     -1.095789
   27 Atom     -1.101264
 -----------------------------------------------------------------
 Unable to Open any file for archive entry.
 1\1\GINC-NOTCH432\SP\RwB97XD\def2TZVP\C10H13N1O3\U6053008\12-Jul-2024\
 0\\#N Guess=Read Geom=Check Integral(Ultrafine) Density Pop=(ChelpG,Re
 adRadii) NMR wB97XD def2TZVP\\12326824_11\\0,1\C,0,-3.86246,1.0007,0.2
 3308\C,0,-3.22459,-0.35913,0.06781\O,0,-1.81044,-0.1814,0.09143\C,0,-1
 .06816,-1.2706,-0.08981\O,0,-1.53914,-2.3718,-0.23642\C,0,0.40413,-1.0
 1649,-0.04431\C,0,1.2134,-2.13348,0.19268\N,0,2.53794,-2.11059,0.28805
 \C,0,3.12205,-0.92528,0.13321\C,0,2.44003,0.2592,-0.12236\C,0,1.0405,0
 .23269,-0.22592\O,0,0.29439,1.29734,-0.5174\C,0,0.86318,2.58951,-0.630
 43\C,0,1.134,3.22198,0.72264\H,0,-4.95775,0.90671,0.22049\H,0,-3.56121
 ,1.67354,-0.58255\H,0,-3.56448,1.45899,1.18707\H,0,-3.51546,-1.05084,0
 .87436\H,0,-3.51317,-0.83619,-0.88193\H,0,0.71713,-3.1014,0.31329\H,0,
 4.21484,-0.90423,0.21251\H,0,3.00531,1.1821,-0.2429\H,0,0.11119,3.1720
 7,-1.17956\H,0,1.76984,2.55897,-1.25832\H,0,0.20939,3.25505,1.31606\H,
 0,1.50049,4.25046,0.59031\H,0,1.88738,2.66122,1.29445\\Version=ES64L-G
 16RevC.01\State=1-A\HF=-669.3533598\RMSD=1.542e-09\Dipole=-0.088208,2.
 2117936,-0.0310093\Quadrupole=4.7597402,-3.7138951,-1.0458451,3.727805
 ,-1.4770865,-1.1992852\PG=C01 [X(C10H13N1O3)]\\@
 The archive entry for this job was punched.


 ACCORDING TO HEN3RY, LIFE IS MUCH LIKE A SEWER........
 YOU GET OUT OF IT JUST WHAT YOU PUT INTO IT...........
                         TOM LEHRER - (THE 3 IS SILENT)
 Job cpu time:       0 days  0 hours 35 minutes 57.1 seconds.
 Elapsed time:       0 days  0 hours  2 minutes 23.1 seconds.
 File lengths (MBytes):  RWF=    165 Int=      0 D2E=      0 Chk=     25 Scr=      2
 Normal termination of Gaussian 16 at Fri Jul 12 13:20:04 2024.
