 Entering Gaussian System, Link 0=g16
 Input=12328828_3.com
 Output=12328828_3.log
 Initial command:
 /uufs/chpc.utah.edu/sys/installdir/gaussian16/C01/AVX/g16/l1.exe "/scratch/general/vast/u6053008/1287151-notchpeak.peaks/Gau-2090364.inp" -scrdir="/scratch/general/vast/u6053008/1287151-notchpeak.peaks/"
 Entering Link 1 = /uufs/chpc.utah.edu/sys/installdir/gaussian16/C01/AVX/g16/l1.exe PID=   2090365.
  
 Copyright (c) 1988-2019, Gaussian, Inc.  All Rights Reserved.
  
 This is part of the Gaussian(R) 16 program.  It is based on
 the Gaussian(R) 09 system (copyright 2009, Gaussian, Inc.),
 the Gaussian(R) 03 system (copyright 2003, Gaussian, Inc.),
 the Gaussian(R) 98 system (copyright 1998, Gaussian, Inc.),
 the Gaussian(R) 94 system (copyright 1995, Gaussian, Inc.),
 the Gaussian 92(TM) system (copyright 1992, Gaussian, Inc.),
 the Gaussian 90(TM) system (copyright 1990, Gaussian, Inc.),
 the Gaussian 88(TM) system (copyright 1988, Gaussian, Inc.),
 the Gaussian 86(TM) system (copyright 1986, Carnegie Mellon
 University), and the Gaussian 82(TM) system (copyright 1983,
 Carnegie Mellon University). Gaussian is a federally registered
 trademark of Gaussian, Inc.
  
 This software contains proprietary and confidential information,
 including trade secrets, belonging to Gaussian, Inc.
  
 This software is provided under written license and may be
 used, copied, transmitted, or stored only in accord with that
 written license.
  
 The following legend is applicable only to US Government
 contracts under FAR:
  
                    RESTRICTED RIGHTS LEGEND
  
 Use, reproduction and disclosure by the US Government is
 subject to restrictions as set forth in subparagraphs (a)
 and (c) of the Commercial Computer Software - Restricted
 Rights clause in FAR 52.227-19.
  
 Gaussian, Inc.
 340 Quinnipiac St., Bldg. 40, Wallingford CT 06492
  
  
 ---------------------------------------------------------------
 Warning -- This program may not be used in any manner that
 competes with the business of Gaussian, Inc. or will provide
 assistance to any competitor of Gaussian, Inc.  The licensee
 of this program is prohibited from giving any competitor of
 Gaussian, Inc. access to this program.  By using this program,
 the user acknowledges that Gaussian, Inc. is engaged in the
 business of creating and licensing software in the field of
 computational chemistry and represents and warrants to the
 licensee that it is not a competitor of Gaussian, Inc. and that
 it will not use this program in any manner prohibited above.
 ---------------------------------------------------------------
  

 Cite this work as:
 Gaussian 16, Revision C.01,
 M. J. Frisch, G. W. Trucks, H. B. Schlegel, G. E. Scuseria, 
 M. A. Robb, J. R. Cheeseman, G. Scalmani, V. Barone, 
 G. A. Petersson, H. Nakatsuji, X. Li, M. Caricato, A. V. Marenich, 
 J. Bloino, B. G. Janesko, R. Gomperts, B. Mennucci, H. P. Hratchian, 
 J. V. Ortiz, A. F. Izmaylov, J. L. Sonnenberg, D. Williams-Young, 
 F. Ding, F. Lipparini, F. Egidi, J. Goings, B. Peng, A. Petrone, 
 T. Henderson, D. Ranasinghe, V. G. Zakrzewski, J. Gao, N. Rega, 
 G. Zheng, W. Liang, M. Hada, M. Ehara, K. Toyota, R. Fukuda, 
 J. Hasegawa, M. Ishida, T. Nakajima, Y. Honda, O. Kitao, H. Nakai, 
 T. Vreven, K. Throssell, J. A. Montgomery, Jr., J. E. Peralta, 
 F. Ogliaro, M. J. Bearpark, J. J. Heyd, E. N. Brothers, K. N. Kudin, 
 V. N. Staroverov, T. A. Keith, R. Kobayashi, J. Normand, 
 K. Raghavachari, A. P. Rendell, J. C. Burant, S. S. Iyengar, 
 J. Tomasi, M. Cossi, J. M. Millam, M. Klene, C. Adamo, R. Cammi, 
 J. W. Ochterski, R. L. Martin, K. Morokuma, O. Farkas, 
 J. B. Foresman, and D. J. Fox, Gaussian, Inc., Wallingford CT, 2019.
 
 ******************************************
 Gaussian 16:  ES64L-G16RevC.01  3-Jul-2019
                12-Jul-2024 
 ******************************************
 %NProcShared=16
 Will use up to   16 processors via shared memory.
 %Mem=32GB
 %chk=12328828_3.chk
 ------------------------------------------------------
 #N OPT FREQ=NORAMAN Integral(Ultrafine) wB97XD def2SVP
 ------------------------------------------------------
 1/18=20,19=15,26=4,38=1/1,3;
 2/9=110,12=2,17=6,18=5,40=1/2;
 3/5=43,7=101,11=2,25=1,30=1,71=1,74=-58,75=-5/1,2,3;
 4//1;
 5/5=2,38=5/2;
 6/7=2,8=2,9=2,10=2,28=1/1;
 7//1,2,3,16;
 1/18=20,19=15,26=4/3(2);
 2/9=110/2;
 99//99;
 2/9=110/2;
 3/5=43,7=101,11=2,25=1,30=1,71=1,74=-58,75=-5/1,2,3;
 4/5=5,16=3,69=1/1;
 5/5=2,38=5/2;
 7//1,2,3,16;
 1/18=20,19=15,26=4/3(-5);
 2/9=110/2;
 6/7=2,8=2,9=2,10=2,19=2,28=1/1;
 99/9=1/99;
 ----------
 12328828_3
 ----------
 Symbolic Z-matrix:
 Charge =  0 Multiplicity = 1
 C                    -4.53329   0.4507   -0.00403 
 C                    -3.5331    1.39433   0.22185 
 C                    -2.19269   1.01003   0.24163 
 C                    -1.84099  -0.32461   0.03035 
 C                    -0.40458  -0.7798    0.08779 
 O                     0.45373   0.31936  -0.10035 
 C                     1.78178   0.13581  -0.04973 
 C                     2.4138   -1.09355   0.1626 
 C                     3.81029  -1.117     0.18766 
 N                     4.58394  -0.05121   0.02274 
 C                     3.96615   1.11563  -0.18056 
 C                     2.58796   1.26833  -0.22622 
 C                    -2.84785  -1.26684  -0.20256 
 C                    -4.18673  -0.88357  -0.21614 
 H                    -5.58222   0.75424  -0.01915 
 H                    -3.79663   2.44181   0.38435 
 H                    -1.40808   1.74791   0.41312 
 H                    -0.22154  -1.54595  -0.68729 
 H                    -0.20241  -1.24863   1.06974 
 H                     1.85774  -2.01946   0.30562 
 H                     4.32219  -2.0718    0.35332 
 H                     4.61066   1.99088  -0.31667 
 H                     2.12407   2.2407   -0.39604 
 H                    -2.58276  -2.31337  -0.37894 
 H                    -4.96298  -1.62946  -0.40026 
 

 GradGradGradGradGradGradGradGradGradGradGradGradGradGradGradGradGradGrad
 Berny optimization.
 Initialization pass.
                           ----------------------------
                           !    Initial Parameters    !
                           ! (Angstroms and Degrees)  !
 --------------------------                            --------------------------
 ! Name  Definition              Value          Derivative Info.                !
 --------------------------------------------------------------------------------
 ! R1    R(1,2)                  1.3935         estimate D2E/DX2                !
 ! R2    R(1,14)                 1.3948         estimate D2E/DX2                !
 ! R3    R(1,15)                 1.0921         estimate D2E/DX2                !
 ! R4    R(2,3)                  1.3946         estimate D2E/DX2                !
 ! R5    R(2,16)                 1.0923         estimate D2E/DX2                !
 ! R6    R(3,4)                  1.3963         estimate D2E/DX2                !
 ! R7    R(3,17)                 1.0906         estimate D2E/DX2                !
 ! R8    R(4,5)                  1.5079         estimate D2E/DX2                !
 ! R9    R(4,13)                 1.3985         estimate D2E/DX2                !
 ! R10   R(5,6)                  1.4072         estimate D2E/DX2                !
 ! R11   R(5,18)                 1.1051         estimate D2E/DX2                !
 ! R12   R(5,19)                 1.1068         estimate D2E/DX2                !
 ! R13   R(6,7)                  1.3416         estimate D2E/DX2                !
 ! R14   R(7,8)                  1.3985         estimate D2E/DX2                !
 ! R15   R(7,12)                 1.4013         estimate D2E/DX2                !
 ! R16   R(8,9)                  1.3969         estimate D2E/DX2                !
 ! R17   R(8,20)                 1.0895         estimate D2E/DX2                !
 ! R18   R(9,10)                 1.3273         estimate D2E/DX2                !
 ! R19   R(9,21)                 1.096          estimate D2E/DX2                !
 ! R20   R(10,11)                1.3359         estimate D2E/DX2                !
 ! R21   R(11,12)                1.3874         estimate D2E/DX2                !
 ! R22   R(11,22)                1.0954         estimate D2E/DX2                !
 ! R23   R(12,23)                1.0907         estimate D2E/DX2                !
 ! R24   R(13,14)                1.3927         estimate D2E/DX2                !
 ! R25   R(13,24)                1.0939         estimate D2E/DX2                !
 ! R26   R(14,25)                1.0922         estimate D2E/DX2                !
 ! A1    A(2,1,14)             119.6107         estimate D2E/DX2                !
 ! A2    A(2,1,15)             120.227          estimate D2E/DX2                !
 ! A3    A(14,1,15)            120.1618         estimate D2E/DX2                !
 ! A4    A(1,2,3)              120.3698         estimate D2E/DX2                !
 ! A5    A(1,2,16)             120.0224         estimate D2E/DX2                !
 ! A6    A(3,2,16)             119.6078         estimate D2E/DX2                !
 ! A7    A(2,3,4)              120.2229         estimate D2E/DX2                !
 ! A8    A(2,3,17)             120.4818         estimate D2E/DX2                !
 ! A9    A(4,3,17)             119.2931         estimate D2E/DX2                !
 ! A10   A(3,4,5)              121.5149         estimate D2E/DX2                !
 ! A11   A(3,4,13)             119.1997         estimate D2E/DX2                !
 ! A12   A(5,4,13)             119.2606         estimate D2E/DX2                !
 ! A13   A(4,5,6)              109.8853         estimate D2E/DX2                !
 ! A14   A(4,5,18)             109.8979         estimate D2E/DX2                !
 ! A15   A(4,5,19)             109.6139         estimate D2E/DX2                !
 ! A16   A(6,5,18)             110.2871         estimate D2E/DX2                !
 ! A17   A(6,5,19)             109.76           estimate D2E/DX2                !
 ! A18   A(18,5,19)            107.3579         estimate D2E/DX2                !
 ! A19   A(5,6,7)              119.4627         estimate D2E/DX2                !
 ! A20   A(6,7,8)              124.9833         estimate D2E/DX2                !
 ! A21   A(6,7,12)             117.0109         estimate D2E/DX2                !
 ! A22   A(8,7,12)             118.0057         estimate D2E/DX2                !
 ! A23   A(7,8,9)              117.9865         estimate D2E/DX2                !
 ! A24   A(7,8,20)             122.435          estimate D2E/DX2                !
 ! A25   A(9,8,20)             119.5784         estimate D2E/DX2                !
 ! A26   A(8,9,10)             124.5416         estimate D2E/DX2                !
 ! A27   A(8,9,21)             118.965          estimate D2E/DX2                !
 ! A28   A(10,9,21)            116.4935         estimate D2E/DX2                !
 ! A29   A(9,10,11)            116.7912         estimate D2E/DX2                !
 ! A30   A(10,11,12)           124.094          estimate D2E/DX2                !
 ! A31   A(10,11,22)           116.4053         estimate D2E/DX2                !
 ! A32   A(12,11,22)           119.5007         estimate D2E/DX2                !
 ! A33   A(7,12,11)            118.5808         estimate D2E/DX2                !
 ! A34   A(7,12,23)            119.6994         estimate D2E/DX2                !
 ! A35   A(11,12,23)           121.7198         estimate D2E/DX2                !
 ! A36   A(4,13,14)            120.553          estimate D2E/DX2                !
 ! A37   A(4,13,24)            119.7985         estimate D2E/DX2                !
 ! A38   A(14,13,24)           119.6482         estimate D2E/DX2                !
 ! A39   A(1,14,13)            120.0424         estimate D2E/DX2                !
 ! A40   A(1,14,25)            120.1565         estimate D2E/DX2                !
 ! A41   A(13,14,25)           119.7997         estimate D2E/DX2                !
 ! D1    D(14,1,2,3)            -0.2476         estimate D2E/DX2                !
 ! D2    D(14,1,2,16)          179.7296         estimate D2E/DX2                !
 ! D3    D(15,1,2,3)          -179.9926         estimate D2E/DX2                !
 ! D4    D(15,1,2,16)           -0.0154         estimate D2E/DX2                !
 ! D5    D(2,1,14,13)           -0.0467         estimate D2E/DX2                !
 ! D6    D(2,1,14,25)         -179.6153         estimate D2E/DX2                !
 ! D7    D(15,1,14,13)         179.6985         estimate D2E/DX2                !
 ! D8    D(15,1,14,25)           0.1299         estimate D2E/DX2                !
 ! D9    D(1,2,3,4)              0.2225         estimate D2E/DX2                !
 ! D10   D(1,2,3,17)           179.6823         estimate D2E/DX2                !
 ! D11   D(16,2,3,4)          -179.7548         estimate D2E/DX2                !
 ! D12   D(16,2,3,17)           -0.295          estimate D2E/DX2                !
 ! D13   D(2,3,4,5)           -178.0785         estimate D2E/DX2                !
 ! D14   D(2,3,4,13)             0.0965         estimate D2E/DX2                !
 ! D15   D(17,3,4,5)             2.4554         estimate D2E/DX2                !
 ! D16   D(17,3,4,13)         -179.3697         estimate D2E/DX2                !
 ! D17   D(3,4,5,6)            -20.574          estimate D2E/DX2                !
 ! D18   D(3,4,5,18)          -142.1102         estimate D2E/DX2                !
 ! D19   D(3,4,5,19)           100.127          estimate D2E/DX2                !
 ! D20   D(13,4,5,6)           161.2521         estimate D2E/DX2                !
 ! D21   D(13,4,5,18)           39.7159         estimate D2E/DX2                !
 ! D22   D(13,4,5,19)          -78.0468         estimate D2E/DX2                !
 ! D23   D(3,4,13,14)           -0.3918         estimate D2E/DX2                !
 ! D24   D(3,4,13,24)          179.407          estimate D2E/DX2                !
 ! D25   D(5,4,13,14)          177.8249         estimate D2E/DX2                !
 ! D26   D(5,4,13,24)           -2.3763         estimate D2E/DX2                !
 ! D27   D(4,5,6,7)            178.2562         estimate D2E/DX2                !
 ! D28   D(18,5,6,7)           -60.4406         estimate D2E/DX2                !
 ! D29   D(19,5,6,7)            57.6433         estimate D2E/DX2                !
 ! D30   D(5,6,7,8)              0.9285         estimate D2E/DX2                !
 ! D31   D(5,6,7,12)          -179.17           estimate D2E/DX2                !
 ! D32   D(6,7,8,9)            179.9899         estimate D2E/DX2                !
 ! D33   D(6,7,8,20)             0.066          estimate D2E/DX2                !
 ! D34   D(12,7,8,9)             0.0894         estimate D2E/DX2                !
 ! D35   D(12,7,8,20)         -179.8346         estimate D2E/DX2                !
 ! D36   D(6,7,12,11)         -179.9732         estimate D2E/DX2                !
 ! D37   D(6,7,12,23)           -0.0501         estimate D2E/DX2                !
 ! D38   D(8,7,12,11)           -0.0647         estimate D2E/DX2                !
 ! D39   D(8,7,12,23)          179.8585         estimate D2E/DX2                !
 ! D40   D(7,8,9,10)            -0.0464         estimate D2E/DX2                !
 ! D41   D(7,8,9,21)           179.9746         estimate D2E/DX2                !
 ! D42   D(20,8,9,10)          179.8798         estimate D2E/DX2                !
 ! D43   D(20,8,9,21)           -0.0992         estimate D2E/DX2                !
 ! D44   D(8,9,10,11)           -0.0253         estimate D2E/DX2                !
 ! D45   D(21,9,10,11)         179.9542         estimate D2E/DX2                !
 ! D46   D(9,10,11,12)           0.0536         estimate D2E/DX2                !
 ! D47   D(9,10,11,22)        -179.953          estimate D2E/DX2                !
 ! D48   D(10,11,12,7)          -0.0084         estimate D2E/DX2                !
 ! D49   D(10,11,12,23)       -179.9299         estimate D2E/DX2                !
 ! D50   D(22,11,12,7)         179.9983         estimate D2E/DX2                !
 ! D51   D(22,11,12,23)          0.0768         estimate D2E/DX2                !
 ! D52   D(4,13,14,1)            0.3685         estimate D2E/DX2                !
 ! D53   D(4,13,14,25)         179.9387         estimate D2E/DX2                !
 ! D54   D(24,13,14,1)        -179.4306         estimate D2E/DX2                !
 ! D55   D(24,13,14,25)          0.1396         estimate D2E/DX2                !
 --------------------------------------------------------------------------------
 Trust Radius=3.00D-01 FncErr=1.00D-07 GrdErr=1.00D-06 EigMax=2.50D+02 EigMin=1.00D-04
 Number of steps in this run=    132 maximum allowed number of steps=    150.
 GradGradGradGradGradGradGradGradGradGradGradGradGradGradGradGradGradGrad

                          Input orientation:                          
 ---------------------------------------------------------------------
 Center     Atomic      Atomic             Coordinates (Angstroms)
 Number     Number       Type             X           Y           Z
 ---------------------------------------------------------------------
      1          6           0       -4.533290    0.450700   -0.004030
      2          6           0       -3.533100    1.394330    0.221850
      3          6           0       -2.192690    1.010030    0.241630
      4          6           0       -1.840990   -0.324610    0.030350
      5          6           0       -0.404580   -0.779800    0.087790
      6          8           0        0.453730    0.319360   -0.100350
      7          6           0        1.781780    0.135810   -0.049730
      8          6           0        2.413800   -1.093550    0.162600
      9          6           0        3.810290   -1.117000    0.187660
     10          7           0        4.583940   -0.051210    0.022740
     11          6           0        3.966150    1.115630   -0.180560
     12          6           0        2.587960    1.268330   -0.226220
     13          6           0       -2.847850   -1.266840   -0.202560
     14          6           0       -4.186730   -0.883570   -0.216140
     15          1           0       -5.582220    0.754240   -0.019150
     16          1           0       -3.796630    2.441810    0.384350
     17          1           0       -1.408080    1.747910    0.413120
     18          1           0       -0.221540   -1.545950   -0.687290
     19          1           0       -0.202410   -1.248630    1.069740
     20          1           0        1.857740   -2.019460    0.305620
     21          1           0        4.322190   -2.071800    0.353320
     22          1           0        4.610660    1.990880   -0.316670
     23          1           0        2.124070    2.240700   -0.396040
     24          1           0       -2.582760   -2.313370   -0.378940
     25          1           0       -4.962980   -1.629460   -0.400260
 ---------------------------------------------------------------------
                    Distance matrix (angstroms):
                    1          2          3          4          5
     1  C    0.000000
     2  C    1.393499   0.000000
     3  C    2.419010   1.394553   0.000000
     4  C    2.801922   2.419641   1.396279   0.000000
     5  C    4.309154   3.812145   2.534659   1.507903   0.000000
     6  O    4.989679   4.141761   2.756359   2.386948   1.407212
     7  C    6.323081   5.468599   4.079897   3.652788   2.374326
     8  C    7.118605   6.446602   5.064686   4.325737   2.836777
     9  C    8.491746   7.761013   6.368904   5.708730   4.229516
    10  N    9.131074   8.247155   6.862715   6.430749   5.041865
    11  C    8.527237   7.515208   6.174197   5.986790   4.771577
    12  C    7.171477   6.138731   4.810428   4.713691   3.639881
    13  C    2.414553   2.780561   2.410534   1.398503   2.508202
    14  C    1.394766   2.409958   2.787736   2.423982   3.795761
    15  H    1.092071   2.160252   3.409157   3.893991   5.401173
    16  H    2.158246   1.092277   2.154759   3.406306   4.687507
    17  H    3.409356   2.162710   1.090637   2.151572   2.739009
    18  H    4.800484   4.520864   3.358773   2.151580   1.105097
    19  H    4.774644   4.335626   3.122263   2.149207   1.106752
    20  H    6.858778   6.381390   5.058447   4.077854   2.588880
    21  H    9.214675   8.587021   7.207899   6.414185   4.907354
    22  H    9.278023   8.183319   6.896328   6.863360   5.743944
    23  H    6.904941   5.753408   4.533827   4.741764   3.968826
    24  H    3.403705   3.874420   3.403270   2.161691   2.704467
    25  H    2.160717   3.402188   3.879876   3.410994   4.662524
                    6          7          8          9         10
     6  O    0.000000
     7  C    1.341630   0.000000
     8  C    2.430500   1.398520   0.000000
     9  C    3.662318   2.395984   1.396912   0.000000
    10  N    4.148627   2.809329   2.411543   1.327268   0.000000
    11  C    3.602440   2.397631   2.721769   2.268152   1.335856
    12  C    2.339086   1.401312   2.399998   2.712045   2.405640
    13  C    3.664275   4.839861   5.277152   6.671248   7.533925
    14  C    4.795239   6.057222   6.614721   8.010610   8.813316
    15  H    6.052141   7.389986   8.208757   9.579329  10.198103
    16  H    4.775488   6.051836   7.149642   8.400539   8.750992
    17  H    2.402237   3.603929   4.769006   5.957342   6.268455
    18  H    2.068785   2.692228   2.805708   4.147914   5.082423
    19  H    2.063546   2.665876   2.773357   4.110615   5.043726
    20  H    2.757922   2.185688   1.089480   2.154252   3.374344
    21  H    4.570388   3.389642   2.152975   1.095960   2.064117
    22  H    4.485626   3.393391   3.817015   3.248670   2.070276
    23  H    2.563009   2.160476   3.393117   3.802393   3.388095
    24  H    4.028542   5.015583   5.171735   6.528662   7.525975
    25  H    5.764425   6.980748   7.417607   8.807868   9.685736
                   11         12         13         14         15
    11  C    0.000000
    12  C    1.387375   0.000000
    13  C    7.218535   5.997973   0.000000
    14  C    8.394493   7.108249   1.392724   0.000000
    15  H    9.556570   8.188956   3.405170   2.160699   0.000000
    16  H    7.895482   6.520187   3.872820   3.401605   2.489786
    17  H    5.443765   4.075180   3.397163   3.878344   4.312503
    18  H    4.987738   4.003255   2.685213   4.047649   5.871471
    19  H    4.952764   3.975018   2.935546   4.202566   5.842904
    20  H    3.809272   3.409639   4.792417   6.172366   7.946816
    21  H    3.251385   3.807872   7.236466   8.610337  10.306434
    22  H    1.095437   2.149785   8.139726   9.255627  10.271933
    23  H    2.169210   1.090659   6.087714   7.044120   7.857386
    24  H    7.394972   6.291919   1.093896   2.154890   4.305397
    25  H    9.344151   8.089757   2.155076   1.092161   2.492133
                   16         17         18         19         20
    16  H    0.000000
    17  H    2.487468   0.000000
    18  H    5.461860   3.669917   0.000000
    19  H    5.196876   3.296065   1.782111   0.000000
    20  H    7.202849   4.987004   2.352337   2.328578   0.000000
    21  H    9.289181   6.886926   4.690935   4.654339   2.465467
    22  H    8.448508   6.067690   5.999724   5.965082   4.903941
    23  H    5.975294   3.657002   4.463791   4.442572   4.325763
    24  H    4.966672   4.301305   2.501874   2.983020   4.502560
    25  H    4.307113   4.970466   4.750854   4.996895   6.868230
                   21         22         23         24         25
    21  H    0.000000
    22  H    4.127647   0.000000
    23  H    4.898054   2.500368   0.000000
    24  H    6.947870   8.383063   6.549358   0.000000
    25  H    9.326196  10.235645   8.074926   2.476618   0.000000
 Stoichiometry    C12H11NO
 Framework group  C1[X(C12H11NO)]
 Deg. of freedom    69
 Full point group                 C1      NOp   1
 Largest Abelian subgroup         C1      NOp   1
 Largest concise Abelian subgroup C1      NOp   1
                         Standard orientation:                         
 ---------------------------------------------------------------------
 Center     Atomic      Atomic             Coordinates (Angstroms)
 Number     Number       Type             X           Y           Z
 ---------------------------------------------------------------------
      1          6           0       -4.533290    0.450698   -0.004030
      2          6           0       -3.533100    1.394328    0.221850
      3          6           0       -2.192690    1.010029    0.241630
      4          6           0       -1.840989   -0.324611    0.030350
      5          6           0       -0.404579   -0.779801    0.087790
      6          8           0        0.453730    0.319360   -0.100350
      7          6           0        1.781780    0.135810   -0.049730
      8          6           0        2.413801   -1.093550    0.162600
      9          6           0        3.810291   -1.116999    0.187660
     10          7           0        4.583940   -0.051209    0.022740
     11          6           0        3.966150    1.115631   -0.180560
     12          6           0        2.587960    1.268330   -0.226220
     13          6           0       -2.847849   -1.266841   -0.202560
     14          6           0       -4.186729   -0.883572   -0.216140
     15          1           0       -5.582220    0.754238   -0.019150
     16          1           0       -3.796630    2.441808    0.384350
     17          1           0       -1.408080    1.747909    0.413120
     18          1           0       -0.221539   -1.545950   -0.687290
     19          1           0       -0.202409   -1.248630    1.069740
     20          1           0        1.857741   -2.019460    0.305620
     21          1           0        4.322191   -2.071799    0.353320
     22          1           0        4.610660    1.990881   -0.316670
     23          1           0        2.124070    2.240700   -0.396040
     24          1           0       -2.582759   -2.313371   -0.378940
     25          1           0       -4.962979   -1.629462   -0.400260
 ---------------------------------------------------------------------
 Rotational constants (GHZ):           2.7031042           0.2826363           0.2577412
 Standard basis: def2SVP (5D, 7F)
 There are   265 symmetry adapted cartesian basis functions of A   symmetry.
 There are   251 symmetry adapted basis functions of A   symmetry.
   251 basis functions,   427 primitive gaussians,   265 cartesian basis functions
    49 alpha electrons       49 beta electrons
       nuclear repulsion energy       781.2379094338 Hartrees.
 NAtoms=   25 NActive=   25 NUniq=   25 SFac= 1.00D+00 NAtFMM=   60 NAOKFM=F Big=F
 Integral buffers will be    131072 words long.
 Raffenetti 2 integral format.
 Two-electron integral symmetry is turned on.
 Nuclear repulsion after empirical dispersion term =      781.2246672701 Hartrees.
 One-electron integrals computed using PRISM.
   1 Symmetry operations used in ECPInt.
 ECPInt:  NShTT=    6903 NPrTT=   25191 LenC2=    6328 LenP2D=   16904.
 LDataN:  DoStor=T MaxTD1= 4 Len=   56
 NBasis=   251 RedAO= T EigKep=  2.93D-04  NBF=   251
 NBsUse=   251 1.00D-06 EigRej= -1.00D+00 NBFU=   251
 ExpMin= 1.22D-01 ExpMax= 2.27D+03 ExpMxC= 3.41D+02 IAcc=3 IRadAn=         5 AccDes= 0.00D+00
 Harris functional with IExCor= 4639 and IRadAn=       5 diagonalized for initial guess.
 HarFok:  IExCor= 4639 AccDes= 0.00D+00 IRadAn=         5 IDoV= 1 UseB2=F ITyADJ=14
 ICtDFT=  3500011 ScaDFX=  1.000000  1.000000  1.000000  1.000000
 FoFCou: FMM=F IPFlag=           0 FMFlag=      100000 FMFlg1=           0
         NFxFlg=           0 DoJE=T BraDBF=F KetDBF=T FulRan=T
         wScrn=  0.000000 ICntrl=       500 IOpCl=  0 I1Cent=   200000004 NGrid=           0
         NMat0=    1 NMatS0=      1 NMatT0=    0 NMatD0=    1 NMtDS0=    0 NMtDT0=    0
 Petite list used in FoFCou.
 Requested convergence on RMS density matrix=1.00D-08 within 128 cycles.
 Requested convergence on MAX density matrix=1.00D-06.
 Requested convergence on             energy=1.00D-06.
 No special actions if energy rises.
 Integral accuracy reduced to 1.0D-05 until final iterations.
 Initial convergence to 1.0D-05 achieved.  Increase integral accuracy.
 SCF Done:  E(RwB97XD) =  -593.235764793     A.U. after   15 cycles
            NFock= 15  Conv=0.39D-08     -V/T= 2.0106

 **********************************************************************

            Population analysis using the SCF Density.

 **********************************************************************

 Orbital symmetries:
       Occupied  (A) (A) (A) (A) (A) (A) (A) (A) (A) (A) (A) (A)
                 (A) (A) (A) (A) (A) (A) (A) (A) (A) (A) (A) (A)
                 (A) (A) (A) (A) (A) (A) (A) (A) (A) (A) (A) (A)
                 (A) (A) (A) (A) (A) (A) (A) (A) (A) (A) (A) (A)
                 (A)
       Virtual   (A) (A) (A) (A) (A) (A) (A) (A) (A) (A) (A) (A)
                 (A) (A) (A) (A) (A) (A) (A) (A) (A) (A) (A) (A)
                 (A) (A) (A) (A) (A) (A) (A) (A) (A) (A) (A) (A)
                 (A) (A) (A) (A) (A) (A) (A) (A) (A) (A) (A) (A)
                 (A) (A) (A) (A) (A) (A) (A) (A) (A) (A) (A) (A)
                 (A) (A) (A) (A) (A) (A) (A) (A) (A) (A) (A) (A)
                 (A) (A) (A) (A) (A) (A) (A) (A) (A) (A) (A) (A)
                 (A) (A) (A) (A) (A) (A) (A) (A) (A) (A) (A) (A)
                 (A) (A) (A) (A) (A) (A) (A) (A) (A) (A) (A) (A)
                 (A) (A) (A) (A) (A) (A) (A) (A) (A) (A) (A) (A)
                 (A) (A) (A) (A) (A) (A) (A) (A) (A) (A) (A) (A)
                 (A) (A) (A) (A) (A) (A) (A) (A) (A) (A) (A) (A)
                 (A) (A) (A) (A) (A) (A) (A) (A) (A) (A) (A) (A)
                 (A) (A) (A) (A) (A) (A) (A) (A) (A) (A) (A) (A)
                 (A) (A) (A) (A) (A) (A) (A) (A) (A) (A) (A) (A)
                 (A) (A) (A) (A) (A) (A) (A) (A) (A) (A) (A) (A)
                 (A) (A) (A) (A) (A) (A) (A) (A) (A) (A)
 The electronic state is 1-A.
 Alpha  occ. eigenvalues --  -19.30840 -14.43204 -10.38426 -10.37489 -10.33824
 Alpha  occ. eigenvalues --  -10.33575 -10.31971 -10.31193 -10.31124 -10.31068
 Alpha  occ. eigenvalues --  -10.30910 -10.30817 -10.30701 -10.30641  -1.18918
 Alpha  occ. eigenvalues --   -1.03728  -0.96389  -0.90929  -0.86758  -0.85785
 Alpha  occ. eigenvalues --   -0.84531  -0.79877  -0.72983  -0.71964  -0.69804
 Alpha  occ. eigenvalues --   -0.67868  -0.64470  -0.62183  -0.59006  -0.58894
 Alpha  occ. eigenvalues --   -0.56736  -0.55139  -0.54201  -0.53380  -0.52067
 Alpha  occ. eigenvalues --   -0.51505  -0.51140  -0.50136  -0.47337  -0.46614
 Alpha  occ. eigenvalues --   -0.44123  -0.43862  -0.43314  -0.42199  -0.34722
 Alpha  occ. eigenvalues --   -0.33995  -0.33752  -0.33455  -0.32807
 Alpha virt. eigenvalues --    0.04576   0.05239   0.05632   0.05878   0.13532
 Alpha virt. eigenvalues --    0.14293   0.15513   0.17271   0.17974   0.19228
 Alpha virt. eigenvalues --    0.19442   0.20084   0.21659   0.22757   0.22958
 Alpha virt. eigenvalues --    0.23967   0.25051   0.26492   0.27566   0.31713
 Alpha virt. eigenvalues --    0.31876   0.34884   0.36402   0.37037   0.37689
 Alpha virt. eigenvalues --    0.39164   0.39390   0.41291   0.42432   0.43872
 Alpha virt. eigenvalues --    0.47860   0.48114   0.49015   0.49656   0.50367
 Alpha virt. eigenvalues --    0.51808   0.52317   0.53690   0.54150   0.54642
 Alpha virt. eigenvalues --    0.54880   0.56207   0.57304   0.57884   0.60283
 Alpha virt. eigenvalues --    0.60972   0.61698   0.62462   0.62832   0.64898
 Alpha virt. eigenvalues --    0.66917   0.67741   0.68065   0.68731   0.68963
 Alpha virt. eigenvalues --    0.70180   0.71008   0.72006   0.72431   0.73217
 Alpha virt. eigenvalues --    0.74405   0.74871   0.75181   0.75624   0.77379
 Alpha virt. eigenvalues --    0.78650   0.79163   0.80309   0.81193   0.81931
 Alpha virt. eigenvalues --    0.82246   0.82633   0.84173   0.85684   0.85960
 Alpha virt. eigenvalues --    0.87235   0.90720   0.91931   0.92986   0.96678
 Alpha virt. eigenvalues --    0.99176   0.99503   1.02338   1.06024   1.12854
 Alpha virt. eigenvalues --    1.13193   1.14702   1.16563   1.19517   1.22531
 Alpha virt. eigenvalues --    1.23817   1.25434   1.28168   1.30800   1.31868
 Alpha virt. eigenvalues --    1.32050   1.32179   1.33594   1.34683   1.36080
 Alpha virt. eigenvalues --    1.37133   1.38354   1.39128   1.40500   1.43238
 Alpha virt. eigenvalues --    1.43827   1.53504   1.54366   1.59274   1.60455
 Alpha virt. eigenvalues --    1.61690   1.70902   1.73829   1.74806   1.75366
 Alpha virt. eigenvalues --    1.75541   1.77148   1.78412   1.80227   1.81474
 Alpha virt. eigenvalues --    1.82076   1.82927   1.83245   1.83937   1.84870
 Alpha virt. eigenvalues --    1.85405   1.85887   1.86756   1.87323   1.87516
 Alpha virt. eigenvalues --    1.89329   1.90190   1.92443   1.93931   1.95384
 Alpha virt. eigenvalues --    1.96598   1.98023   2.02099   2.02496   2.03184
 Alpha virt. eigenvalues --    2.05980   2.06531   2.06651   2.07164   2.10641
 Alpha virt. eigenvalues --    2.14372   2.15898   2.17736   2.19574   2.21346
 Alpha virt. eigenvalues --    2.21508   2.22498   2.24035   2.29605   2.30341
 Alpha virt. eigenvalues --    2.33047   2.35409   2.36653   2.38234   2.38743
 Alpha virt. eigenvalues --    2.41066   2.41986   2.42841   2.43499   2.45468
 Alpha virt. eigenvalues --    2.47645   2.48353   2.52608   2.57149   2.59822
 Alpha virt. eigenvalues --    2.63621   2.69223   2.69745   2.70179   2.71069
 Alpha virt. eigenvalues --    2.72869   2.76467   2.78613   2.80823   2.81036
 Alpha virt. eigenvalues --    2.82655   2.86997   2.90300   2.91712   2.94563
 Alpha virt. eigenvalues --    2.95350   2.96332   2.97113   3.00106   3.02161
 Alpha virt. eigenvalues --    3.12973   3.13834   3.15945   3.17010   3.18295
 Alpha virt. eigenvalues --    3.23360   3.32320   3.40422   3.52932   3.58290
 Alpha virt. eigenvalues --    3.72362   3.81542
          Condensed to atoms (all electrons):
               1          2          3          4          5          6
     1  C    5.036329   0.325713   0.060166  -0.132490  -0.000165  -0.000004
     2  C    0.325713   5.001442   0.337931   0.063872   0.011426   0.000683
     3  C    0.060166   0.337931   5.012578   0.328386  -0.081311   0.007196
     4  C   -0.132490   0.063872   0.328386   5.338889   0.316652  -0.064703
     5  C   -0.000165   0.011426  -0.081311   0.316652   4.553783   0.309032
     6  O   -0.000004   0.000683   0.007196  -0.064703   0.309032   7.868842
     7  C    0.000001  -0.000009   0.000337   0.007568  -0.052742   0.394386
     8  C   -0.000000   0.000004   0.000006   0.000412  -0.001407  -0.076286
     9  C   -0.000000   0.000000  -0.000001  -0.000013   0.000811   0.003299
    10  N    0.000000   0.000000  -0.000000   0.000000   0.000028  -0.000048
    11  C   -0.000000   0.000000   0.000002  -0.000008  -0.000150   0.003074
    12  C    0.000000  -0.000008  -0.000160   0.000578   0.005271  -0.073804
    13  C    0.057541  -0.120624   0.049073   0.340082  -0.066143   0.001456
    14  C    0.331822   0.060127  -0.114816   0.061866   0.009198  -0.000086
    15  H    0.443892  -0.062146   0.012184  -0.001378   0.000028   0.000000
    16  H   -0.065329   0.446229  -0.063943   0.013611  -0.000267  -0.000016
    17  H    0.012059  -0.060824   0.450009  -0.062334  -0.020804   0.014661
    18  H    0.000010  -0.000095   0.008035  -0.042342   0.400743  -0.027521
    19  H    0.000045  -0.000167  -0.006276  -0.013158   0.384780  -0.028780
    20  H    0.000000  -0.000000  -0.000020   0.000652   0.005555  -0.007005
    21  H    0.000000   0.000000   0.000000  -0.000001  -0.000049  -0.000073
    22  H   -0.000000  -0.000000  -0.000000   0.000000   0.000008  -0.000073
    23  H   -0.000000   0.000005  -0.000007  -0.000174  -0.000301   0.000631
    24  H    0.012386  -0.001536   0.012732  -0.070264  -0.013355   0.000057
    25  H   -0.064781   0.012265  -0.001506   0.013742  -0.000277   0.000001
               7          8          9         10         11         12
     1  C    0.000001  -0.000000  -0.000000   0.000000  -0.000000   0.000000
     2  C   -0.000009   0.000004   0.000000   0.000000   0.000000  -0.000008
     3  C    0.000337   0.000006  -0.000001  -0.000000   0.000002  -0.000160
     4  C    0.007568   0.000412  -0.000013   0.000000  -0.000008   0.000578
     5  C   -0.052742  -0.001407   0.000811   0.000028  -0.000150   0.005271
     6  O    0.394386  -0.076286   0.003299  -0.000048   0.003074  -0.073804
     7  C    4.760516   0.365454   0.003287  -0.051006   0.000919   0.437694
     8  C    0.365454   5.207593   0.415715  -0.043518  -0.054939  -0.044296
     9  C    0.003287   0.415715   4.715106   0.540129  -0.064318  -0.055174
    10  N   -0.051006  -0.043518   0.540129   6.303555   0.513283  -0.035341
    11  C    0.000919  -0.054939  -0.064318   0.513283   4.716408   0.454003
    12  C    0.437694  -0.044296  -0.055174  -0.035341   0.454003   5.038669
    13  C    0.000013  -0.000023  -0.000001   0.000000  -0.000000   0.000016
    14  C   -0.000002   0.000000   0.000000  -0.000000   0.000000  -0.000000
    15  H   -0.000000   0.000000  -0.000000   0.000000   0.000000  -0.000000
    16  H    0.000000  -0.000000  -0.000000  -0.000000  -0.000000   0.000000
    17  H    0.000069   0.000114  -0.000005   0.000000   0.000004  -0.000272
    18  H   -0.008241   0.006832   0.000314  -0.000015   0.000017  -0.000060
    19  H   -0.005962   0.006985   0.000140  -0.000017   0.000005   0.000170
    20  H   -0.063226   0.421946  -0.033524   0.005432   0.000069   0.008686
    21  H    0.006129  -0.067821   0.422984  -0.038647   0.005298   0.000771
    22  H    0.007432   0.000399   0.005234  -0.039191   0.423964  -0.066954
    23  H   -0.052962   0.013853  -0.000316   0.005143  -0.038317   0.412851
    24  H    0.000003   0.000005  -0.000000  -0.000000   0.000000  -0.000000
    25  H   -0.000000  -0.000000  -0.000000  -0.000000  -0.000000   0.000000
              13         14         15         16         17         18
     1  C    0.057541   0.331822   0.443892  -0.065329   0.012059   0.000010
     2  C   -0.120624   0.060127  -0.062146   0.446229  -0.060824  -0.000095
     3  C    0.049073  -0.114816   0.012184  -0.063943   0.450009   0.008035
     4  C    0.340082   0.061866  -0.001378   0.013611  -0.062334  -0.042342
     5  C   -0.066143   0.009198   0.000028  -0.000267  -0.020804   0.400743
     6  O    0.001456  -0.000086   0.000000  -0.000016   0.014661  -0.027521
     7  C    0.000013  -0.000002  -0.000000   0.000000   0.000069  -0.008241
     8  C   -0.000023   0.000000   0.000000  -0.000000   0.000114   0.006832
     9  C   -0.000001   0.000000  -0.000000  -0.000000  -0.000005   0.000314
    10  N    0.000000  -0.000000   0.000000  -0.000000   0.000000  -0.000015
    11  C   -0.000000   0.000000   0.000000  -0.000000   0.000004   0.000017
    12  C    0.000016  -0.000000  -0.000000   0.000000  -0.000272  -0.000060
    13  C    5.012190   0.364274   0.012491  -0.001467   0.012435  -0.002446
    14  C    0.364274   4.964505  -0.062759   0.012391  -0.001561   0.000601
    15  H    0.012491  -0.062759   0.655861  -0.011066  -0.000191  -0.000001
    16  H   -0.001467   0.012391  -0.011066   0.656200  -0.010648   0.000005
    17  H    0.012435  -0.001561  -0.000191  -0.010648   0.642553   0.000792
    18  H   -0.002446   0.000601  -0.000001   0.000005   0.000792   0.656999
    19  H   -0.003222  -0.000342  -0.000001   0.000006   0.000536  -0.042500
    20  H    0.000055  -0.000000  -0.000000   0.000000   0.000006   0.000638
    21  H    0.000000  -0.000000   0.000000  -0.000000   0.000000   0.000010
    22  H    0.000000  -0.000000  -0.000000   0.000000  -0.000000  -0.000000
    23  H    0.000001  -0.000000  -0.000000  -0.000000   0.000401   0.000027
    24  H    0.442923  -0.055649  -0.000221   0.000025  -0.000159   0.004396
    25  H   -0.063256   0.444999  -0.010961  -0.000219   0.000022  -0.000005
              19         20         21         22         23         24
     1  C    0.000045   0.000000   0.000000  -0.000000  -0.000000   0.012386
     2  C   -0.000167  -0.000000   0.000000  -0.000000   0.000005  -0.001536
     3  C   -0.006276  -0.000020   0.000000  -0.000000  -0.000007   0.012732
     4  C   -0.013158   0.000652  -0.000001   0.000000  -0.000174  -0.070264
     5  C    0.384780   0.005555  -0.000049   0.000008  -0.000301  -0.013355
     6  O   -0.028780  -0.007005  -0.000073  -0.000073   0.000631   0.000057
     7  C   -0.005962  -0.063226   0.006129   0.007432  -0.052962   0.000003
     8  C    0.006985   0.421946  -0.067821   0.000399   0.013853   0.000005
     9  C    0.000140  -0.033524   0.422984   0.005234  -0.000316  -0.000000
    10  N   -0.000017   0.005432  -0.038647  -0.039191   0.005143  -0.000000
    11  C    0.000005   0.000069   0.005298   0.423964  -0.038317   0.000000
    12  C    0.000170   0.008686   0.000771  -0.066954   0.412851  -0.000000
    13  C   -0.003222   0.000055   0.000000   0.000000   0.000001   0.442923
    14  C   -0.000342  -0.000000  -0.000000  -0.000000  -0.000000  -0.055649
    15  H   -0.000001  -0.000000   0.000000  -0.000000  -0.000000  -0.000221
    16  H    0.000006   0.000000  -0.000000   0.000000  -0.000000   0.000025
    17  H    0.000536   0.000006   0.000000  -0.000000   0.000401  -0.000159
    18  H   -0.042500   0.000638   0.000010  -0.000000   0.000027   0.004396
    19  H    0.650063   0.000725   0.000017  -0.000000   0.000070   0.000951
    20  H    0.000725   0.642216  -0.006770   0.000056  -0.000088   0.000011
    21  H    0.000017  -0.006770   0.642330  -0.000301   0.000063   0.000000
    22  H   -0.000000   0.000056  -0.000301   0.638665  -0.006970   0.000000
    23  H    0.000070  -0.000088   0.000063  -0.006970   0.636070   0.000000
    24  H    0.000951   0.000011   0.000000   0.000000   0.000000   0.669766
    25  H    0.000009   0.000000   0.000000   0.000000   0.000000  -0.011392
              25
     1  C   -0.064781
     2  C    0.012265
     3  C   -0.001506
     4  C    0.013742
     5  C   -0.000277
     6  O    0.000001
     7  C   -0.000000
     8  C   -0.000000
     9  C   -0.000000
    10  N   -0.000000
    11  C   -0.000000
    12  C    0.000000
    13  C   -0.063256
    14  C    0.444999
    15  H   -0.010961
    16  H   -0.000219
    17  H    0.000022
    18  H   -0.000005
    19  H    0.000009
    20  H    0.000000
    21  H    0.000000
    22  H    0.000000
    23  H    0.000000
    24  H   -0.011392
    25  H    0.657880
 Mulliken charges:
               1
     1  C   -0.017197
     2  C   -0.014287
     3  C   -0.010595
     4  C   -0.099445
     5  C    0.239656
     6  O   -0.324922
     7  C    0.250342
     8  C   -0.151028
     9  C    0.046335
    10  N   -0.159787
    11  C    0.040685
    12  C   -0.082638
    13  C   -0.035367
    14  C   -0.014568
    15  H    0.024266
    16  H    0.024486
    17  H    0.023136
    18  H    0.043806
    19  H    0.055923
    20  H    0.024588
    21  H    0.036061
    22  H    0.037732
    23  H    0.030021
    24  H    0.009321
    25  H    0.023478
 Sum of Mulliken charges =  -0.00000
 Mulliken charges with hydrogens summed into heavy atoms:
               1
     1  C    0.007070
     2  C    0.010198
     3  C    0.012541
     4  C   -0.099445
     5  C    0.339384
     6  O   -0.324922
     7  C    0.250342
     8  C   -0.126440
     9  C    0.082396
    10  N   -0.159787
    11  C    0.078418
    12  C   -0.052617
    13  C   -0.026046
    14  C    0.008910
 Electronic spatial extent (au):  <R**2>=           3997.0092
 Charge=             -0.0000 electrons
 Dipole moment (field-independent basis, Debye):
    X=             -2.8926    Y=             -0.8932    Z=              0.1751  Tot=              3.0325
 Quadrupole moment (field-independent basis, Debye-Ang):
   XX=            -91.8141   YY=            -70.8677   ZZ=            -85.5154
   XY=              1.0147   XZ=              0.1555   YZ=              0.0656
 Traceless Quadrupole moment (field-independent basis, Debye-Ang):
   XX=             -9.0817   YY=             11.8647   ZZ=             -2.7830
   XY=              1.0147   XZ=              0.1555   YZ=              0.0656
 Octapole moment (field-independent basis, Debye-Ang**2):
  XXX=           -132.5623  YYY=              2.0222  ZZZ=              0.0718  XYY=              8.2913
  XXY=              8.1476  XXZ=             -4.9161  XZZ=              7.4873  YZZ=             -0.8055
  YYZ=             -0.1587  XYZ=             -8.3031
 Hexadecapole moment (field-independent basis, Debye-Ang**3):
 XXXX=          -5134.7883 YYYY=           -552.5191 ZZZZ=           -114.1990 XXXY=             26.5557
 XXXZ=             10.3469 YYYX=             -0.9438 YYYZ=              0.3268 ZZZX=              0.1264
 ZZZY=             -0.7262 XXYY=           -784.3979 XXZZ=           -884.3839 YYZZ=           -125.3830
 XXYZ=             -0.1097 YYXZ=             -0.0653 ZZXY=              1.1924
 N-N= 7.812246672701D+02 E-N=-2.938425404177D+03  KE= 5.870078314832D+02
   1 Symmetry operations used in ECPInt.
 ECPInt:  NShTT=    6903 NPrTT=   25191 LenC2=    6328 LenP2D=   16904.
 LDataN:  DoStor=T MaxTD1= 5 Len=  102
 Calling FoFJK, ICntrl=      2127 FMM=F ISym2X=0 I1Cent= 0 IOpClX= 0 NMat=1 NMatS=1 NMatT=0.
 ***** Axes restored to original set *****
 -------------------------------------------------------------------
 Center     Atomic                   Forces (Hartrees/Bohr)
 Number     Number              X              Y              Z
 -------------------------------------------------------------------
      1        6          -0.000000344    0.000002461    0.000000237
      2        6          -0.000000738   -0.000000757    0.000000309
      3        6          -0.000000756    0.000001514   -0.000000907
      4        6           0.000000606   -0.000001436    0.000001394
      5        6          -0.000001238   -0.000002258   -0.000000557
      6        8          -0.000000194   -0.000000717   -0.000000032
      7        6          -0.000000385    0.000002803   -0.000000256
      8        6           0.000006069    0.000001798    0.000000010
      9        6          -0.000004307    0.000000250    0.000001378
     10        7           0.000001414    0.000005108   -0.000001164
     11        6          -0.000001543   -0.000007740   -0.000000619
     12        6          -0.000002361   -0.000004853   -0.000000964
     13        6           0.000001719   -0.000004874    0.000001031
     14        6          -0.000000831   -0.000009664   -0.000001297
     15        1          -0.000002212    0.000000458    0.000000042
     16        1          -0.000001111    0.000001662   -0.000001403
     17        1           0.000001157   -0.000001205   -0.000002053
     18        1           0.000000659    0.000001298    0.000002797
     19        1           0.000000237    0.000002254   -0.000000687
     20        1          -0.000001653   -0.000001430    0.000001433
     21        1           0.000000698    0.000001360    0.000000467
     22        1           0.000003133    0.000003519   -0.000001802
     23        1          -0.000000757    0.000002390   -0.000001820
     24        1          -0.000000941    0.000004396    0.000001771
     25        1           0.000003680    0.000003662    0.000002694
 -------------------------------------------------------------------
 Cartesian Forces:  Max     0.000009664 RMS     0.000002511

 GradGradGradGradGradGradGradGradGradGradGradGradGradGradGradGradGradGrad
 Berny optimization.
 FormGI is forming the generalized inverse of G from B-inverse, IUseBI=4.
 Internal  Forces:  Max     0.000005767 RMS     0.000001328
 Search for a local minimum.
 Step number   1 out of a maximum of  132
 All quantities printed in internal units (Hartrees-Bohrs-Radians)
 Mixed Optimization -- En-DIIS/RFO-DIIS
 Second derivative matrix not updated -- first step.
 ITU=  0
     Eigenvalues ---    0.00661   0.01536   0.01596   0.02101   0.02119
     Eigenvalues ---    0.02127   0.02146   0.02150   0.02161   0.02161
     Eigenvalues ---    0.02165   0.02168   0.02169   0.02174   0.02175
     Eigenvalues ---    0.02228   0.02295   0.02349   0.02464   0.02503
     Eigenvalues ---    0.06337   0.07441   0.11517   0.13990   0.15999
     Eigenvalues ---    0.16000   0.16000   0.16000   0.16000   0.16000
     Eigenvalues ---    0.16000   0.16000   0.16000   0.22000   0.22000
     Eigenvalues ---    0.22000   0.22036   0.22828   0.23475   0.23881
     Eigenvalues ---    0.24987   0.25000   0.25000   0.31562   0.32946
     Eigenvalues ---    0.33125   0.34133   0.34192   0.34366   0.34551
     Eigenvalues ---    0.34564   0.34574   0.34737   0.34739   0.34873
     Eigenvalues ---    0.42132   0.42243   0.42318   0.43639   0.44446
     Eigenvalues ---    0.45815   0.46127   0.46370   0.46596   0.46751
     Eigenvalues ---    0.47206   0.56362   0.56841   0.58675
 RFO step:  Lambda= 0.00000000D+00 EMin= 6.61408090D-03
 Linear search not attempted -- first point.
 Iteration  1 RMS(Cart)=  0.00002471 RMS(Int)=  0.00000000
 Iteration  2 RMS(Cart)=  0.00000000 RMS(Int)=  0.00000000
 Variable       Old X    -DE/DX   Delta X   Delta X   Delta X     New X
                                 (Linear)    (Quad)   (Total)
    R1        2.63333   0.00000   0.00000   0.00000   0.00000   2.63333
    R2        2.63572   0.00000   0.00000   0.00001   0.00001   2.63574
    R3        2.06372   0.00000   0.00000   0.00001   0.00001   2.06372
    R4        2.63532   0.00000   0.00000   0.00000   0.00000   2.63533
    R5        2.06410   0.00000   0.00000   0.00001   0.00001   2.06411
    R6        2.63859   0.00000   0.00000   0.00000   0.00000   2.63859
    R7        2.06100  -0.00000   0.00000  -0.00000  -0.00000   2.06100
    R8        2.84952  -0.00000   0.00000  -0.00000  -0.00000   2.84952
    R9        2.64279  -0.00000   0.00000  -0.00000  -0.00000   2.64279
   R10        2.65925  -0.00000   0.00000  -0.00000  -0.00000   2.65924
   R11        2.08833  -0.00000   0.00000  -0.00001  -0.00001   2.08832
   R12        2.09146  -0.00000   0.00000  -0.00001  -0.00001   2.09145
   R13        2.53531   0.00000   0.00000   0.00000   0.00000   2.53531
   R14        2.64282   0.00000   0.00000   0.00000   0.00000   2.64282
   R15        2.64810  -0.00000   0.00000  -0.00001  -0.00001   2.64809
   R16        2.63978  -0.00000   0.00000  -0.00000  -0.00000   2.63978
   R17        2.05882   0.00000   0.00000   0.00001   0.00001   2.05883
   R18        2.50817   0.00000   0.00000   0.00000   0.00000   2.50818
   R19        2.07106  -0.00000   0.00000  -0.00000  -0.00000   2.07106
   R20        2.52440  -0.00000   0.00000  -0.00001  -0.00001   2.52439
   R21        2.62176   0.00000   0.00000   0.00000   0.00000   2.62176
   R22        2.07008   0.00000   0.00000   0.00001   0.00001   2.07009
   R23        2.06105   0.00000   0.00000   0.00001   0.00001   2.06105
   R24        2.63187  -0.00000   0.00000  -0.00000  -0.00000   2.63187
   R25        2.06716  -0.00000   0.00000  -0.00001  -0.00001   2.06715
   R26        2.06389  -0.00001   0.00000  -0.00002  -0.00002   2.06387
    A1        2.08760  -0.00000   0.00000  -0.00000  -0.00000   2.08760
    A2        2.09836  -0.00000   0.00000  -0.00000  -0.00000   2.09835
    A3        2.09722   0.00000   0.00000   0.00000   0.00000   2.09722
    A4        2.10085  -0.00000   0.00000  -0.00000  -0.00000   2.10085
    A5        2.09479   0.00000   0.00000  -0.00000  -0.00000   2.09479
    A6        2.08755   0.00000   0.00000   0.00000   0.00000   2.08755
    A7        2.09829   0.00000   0.00000   0.00000   0.00000   2.09829
    A8        2.10280   0.00000   0.00000   0.00001   0.00001   2.10281
    A9        2.08206  -0.00000   0.00000  -0.00001  -0.00001   2.08204
   A10        2.12084  -0.00000   0.00000  -0.00000  -0.00000   2.12084
   A11        2.08043   0.00000   0.00000   0.00000   0.00000   2.08043
   A12        2.08149  -0.00000   0.00000  -0.00000  -0.00000   2.08149
   A13        1.91786   0.00000   0.00000   0.00000   0.00000   1.91786
   A14        1.91808   0.00000   0.00000   0.00001   0.00001   1.91809
   A15        1.91312  -0.00000   0.00000  -0.00000  -0.00000   1.91312
   A16        1.92487  -0.00000   0.00000  -0.00000  -0.00000   1.92487
   A17        1.91567  -0.00000   0.00000  -0.00001  -0.00001   1.91566
   A18        1.87375   0.00000   0.00000   0.00000   0.00000   1.87375
   A19        2.08502   0.00000   0.00000   0.00000   0.00000   2.08502
   A20        2.18137   0.00000   0.00000   0.00000   0.00000   2.18137
   A21        2.04223   0.00000   0.00000   0.00000   0.00000   2.04223
   A22        2.05959  -0.00000   0.00000  -0.00001  -0.00001   2.05958
   A23        2.05925   0.00000   0.00000   0.00000   0.00000   2.05926
   A24        2.13689  -0.00000   0.00000  -0.00001  -0.00001   2.13689
   A25        2.08704   0.00000   0.00000   0.00000   0.00000   2.08704
   A26        2.17366   0.00000   0.00000   0.00000   0.00000   2.17366
   A27        2.07633   0.00000   0.00000   0.00000   0.00000   2.07633
   A28        2.03319  -0.00000   0.00000  -0.00001  -0.00001   2.03319
   A29        2.03839  -0.00000   0.00000  -0.00001  -0.00001   2.03838
   A30        2.16585   0.00000   0.00000   0.00001   0.00001   2.16586
   A31        2.03166  -0.00000   0.00000  -0.00001  -0.00001   2.03165
   A32        2.08568   0.00000   0.00000   0.00000   0.00000   2.08568
   A33        2.06963   0.00000   0.00000   0.00000   0.00000   2.06963
   A34        2.08915   0.00000   0.00000   0.00000   0.00000   2.08915
   A35        2.12441  -0.00000   0.00000  -0.00000  -0.00000   2.12441
   A36        2.10405  -0.00000   0.00000  -0.00000  -0.00000   2.10405
   A37        2.09088   0.00000   0.00000   0.00000   0.00000   2.09088
   A38        2.08826   0.00000   0.00000   0.00000   0.00000   2.08826
   A39        2.09514   0.00000   0.00000   0.00000   0.00000   2.09514
   A40        2.09713  -0.00000   0.00000  -0.00001  -0.00001   2.09712
   A41        2.09090   0.00000   0.00000   0.00000   0.00000   2.09090
    D1       -0.00432   0.00000   0.00000   0.00000   0.00000  -0.00432
    D2        3.13687  -0.00000   0.00000  -0.00001  -0.00001   3.13686
    D3       -3.14146   0.00000   0.00000   0.00001   0.00001  -3.14146
    D4       -0.00027  -0.00000   0.00000  -0.00001  -0.00001  -0.00028
    D5       -0.00081   0.00000   0.00000   0.00001   0.00001  -0.00081
    D6       -3.13488   0.00000   0.00000   0.00000   0.00000  -3.13488
    D7        3.13633   0.00000   0.00000   0.00001   0.00001   3.13634
    D8        0.00227  -0.00000   0.00000  -0.00000  -0.00000   0.00227
    D9        0.00388  -0.00000   0.00000  -0.00002  -0.00002   0.00387
   D10        3.13605  -0.00000   0.00000  -0.00002  -0.00002   3.13603
   D11       -3.13731  -0.00000   0.00000  -0.00000  -0.00000  -3.13732
   D12       -0.00515  -0.00000   0.00000  -0.00000  -0.00000  -0.00515
   D13       -3.10806   0.00000   0.00000   0.00002   0.00002  -3.10804
   D14        0.00168   0.00000   0.00000   0.00002   0.00002   0.00171
   D15        0.04285   0.00000   0.00000   0.00002   0.00002   0.04287
   D16       -3.13059   0.00000   0.00000   0.00002   0.00002  -3.13057
   D17       -0.35908   0.00000   0.00000   0.00002   0.00002  -0.35906
   D18       -2.48029   0.00000   0.00000   0.00002   0.00002  -2.48027
   D19        1.74755  -0.00000   0.00000   0.00001   0.00001   1.74756
   D20        2.81438   0.00000   0.00000   0.00002   0.00002   2.81440
   D21        0.69317   0.00000   0.00000   0.00001   0.00001   0.69318
   D22       -1.36217  -0.00000   0.00000   0.00000   0.00000  -1.36217
   D23       -0.00684  -0.00000   0.00000  -0.00001  -0.00001  -0.00685
   D24        3.13124  -0.00000   0.00000  -0.00002  -0.00002   3.13122
   D25        3.10363  -0.00000   0.00000  -0.00001  -0.00001   3.10362
   D26       -0.04147  -0.00000   0.00000  -0.00002  -0.00002  -0.04149
   D27        3.11116  -0.00000   0.00000  -0.00001  -0.00001   3.11115
   D28       -1.05489   0.00000   0.00000   0.00001   0.00001  -1.05488
   D29        1.00607  -0.00000   0.00000   0.00000   0.00000   1.00607
   D30        0.01621   0.00000   0.00000   0.00002   0.00002   0.01622
   D31       -3.12711   0.00000   0.00000   0.00001   0.00001  -3.12709
   D32        3.14142   0.00000   0.00000   0.00000   0.00000   3.14142
   D33        0.00115   0.00000   0.00000   0.00000   0.00000   0.00115
   D34        0.00156   0.00000   0.00000   0.00001   0.00001   0.00157
   D35       -3.13871   0.00000   0.00000   0.00000   0.00000  -3.13870
   D36       -3.14112  -0.00000   0.00000  -0.00000  -0.00000  -3.14113
   D37       -0.00087   0.00000   0.00000   0.00001   0.00001  -0.00086
   D38       -0.00113  -0.00000   0.00000  -0.00000  -0.00000  -0.00113
   D39        3.13912   0.00000   0.00000   0.00001   0.00001   3.13913
   D40       -0.00081  -0.00000   0.00000  -0.00001  -0.00001  -0.00081
   D41        3.14115   0.00000   0.00000   0.00001   0.00001   3.14116
   D42        3.13950  -0.00000   0.00000  -0.00000  -0.00000   3.13949
   D43       -0.00173   0.00000   0.00000   0.00001   0.00001  -0.00172
   D44       -0.00044   0.00000   0.00000   0.00000   0.00000  -0.00044
   D45        3.14079  -0.00000   0.00000  -0.00001  -0.00001   3.14078
   D46        0.00093   0.00000   0.00000   0.00000   0.00000   0.00094
   D47       -3.14077  -0.00000   0.00000  -0.00002  -0.00002  -3.14079
   D48       -0.00015   0.00000   0.00000   0.00000   0.00000  -0.00015
   D49       -3.14037  -0.00000   0.00000  -0.00001  -0.00001  -3.14038
   D50        3.14156   0.00000   0.00000   0.00002   0.00002   3.14158
   D51        0.00134   0.00000   0.00000   0.00000   0.00000   0.00134
   D52        0.00643  -0.00000   0.00000  -0.00000  -0.00000   0.00643
   D53        3.14052   0.00000   0.00000   0.00000   0.00000   3.14053
   D54       -3.13165   0.00000   0.00000   0.00001   0.00001  -3.13165
   D55        0.00244   0.00000   0.00000   0.00001   0.00001   0.00245
         Item               Value     Threshold  Converged?
 Maximum Force            0.000006     0.000450     YES
 RMS     Force            0.000001     0.000300     YES
 Maximum Displacement     0.000143     0.001800     YES
 RMS     Displacement     0.000025     0.001200     YES
 Predicted change in Energy=-4.028101D-10
 Optimization completed.
    -- Stationary point found.
                           ----------------------------
                           !   Optimized Parameters   !
                           ! (Angstroms and Degrees)  !
 --------------------------                            --------------------------
 ! Name  Definition              Value          Derivative Info.                !
 --------------------------------------------------------------------------------
 ! R1    R(1,2)                  1.3935         -DE/DX =    0.0                 !
 ! R2    R(1,14)                 1.3948         -DE/DX =    0.0                 !
 ! R3    R(1,15)                 1.0921         -DE/DX =    0.0                 !
 ! R4    R(2,3)                  1.3946         -DE/DX =    0.0                 !
 ! R5    R(2,16)                 1.0923         -DE/DX =    0.0                 !
 ! R6    R(3,4)                  1.3963         -DE/DX =    0.0                 !
 ! R7    R(3,17)                 1.0906         -DE/DX =    0.0                 !
 ! R8    R(4,5)                  1.5079         -DE/DX =    0.0                 !
 ! R9    R(4,13)                 1.3985         -DE/DX =    0.0                 !
 ! R10   R(5,6)                  1.4072         -DE/DX =    0.0                 !
 ! R11   R(5,18)                 1.1051         -DE/DX =    0.0                 !
 ! R12   R(5,19)                 1.1068         -DE/DX =    0.0                 !
 ! R13   R(6,7)                  1.3416         -DE/DX =    0.0                 !
 ! R14   R(7,8)                  1.3985         -DE/DX =    0.0                 !
 ! R15   R(7,12)                 1.4013         -DE/DX =    0.0                 !
 ! R16   R(8,9)                  1.3969         -DE/DX =    0.0                 !
 ! R17   R(8,20)                 1.0895         -DE/DX =    0.0                 !
 ! R18   R(9,10)                 1.3273         -DE/DX =    0.0                 !
 ! R19   R(9,21)                 1.096          -DE/DX =    0.0                 !
 ! R20   R(10,11)                1.3359         -DE/DX =    0.0                 !
 ! R21   R(11,12)                1.3874         -DE/DX =    0.0                 !
 ! R22   R(11,22)                1.0954         -DE/DX =    0.0                 !
 ! R23   R(12,23)                1.0907         -DE/DX =    0.0                 !
 ! R24   R(13,14)                1.3927         -DE/DX =    0.0                 !
 ! R25   R(13,24)                1.0939         -DE/DX =    0.0                 !
 ! R26   R(14,25)                1.0922         -DE/DX =    0.0                 !
 ! A1    A(2,1,14)             119.6107         -DE/DX =    0.0                 !
 ! A2    A(2,1,15)             120.227          -DE/DX =    0.0                 !
 ! A3    A(14,1,15)            120.1618         -DE/DX =    0.0                 !
 ! A4    A(1,2,3)              120.3698         -DE/DX =    0.0                 !
 ! A5    A(1,2,16)             120.0224         -DE/DX =    0.0                 !
 ! A6    A(3,2,16)             119.6078         -DE/DX =    0.0                 !
 ! A7    A(2,3,4)              120.2229         -DE/DX =    0.0                 !
 ! A8    A(2,3,17)             120.4818         -DE/DX =    0.0                 !
 ! A9    A(4,3,17)             119.2931         -DE/DX =    0.0                 !
 ! A10   A(3,4,5)              121.5149         -DE/DX =    0.0                 !
 ! A11   A(3,4,13)             119.1997         -DE/DX =    0.0                 !
 ! A12   A(5,4,13)             119.2606         -DE/DX =    0.0                 !
 ! A13   A(4,5,6)              109.8853         -DE/DX =    0.0                 !
 ! A14   A(4,5,18)             109.8979         -DE/DX =    0.0                 !
 ! A15   A(4,5,19)             109.6139         -DE/DX =    0.0                 !
 ! A16   A(6,5,18)             110.2871         -DE/DX =    0.0                 !
 ! A17   A(6,5,19)             109.76           -DE/DX =    0.0                 !
 ! A18   A(18,5,19)            107.3579         -DE/DX =    0.0                 !
 ! A19   A(5,6,7)              119.4627         -DE/DX =    0.0                 !
 ! A20   A(6,7,8)              124.9833         -DE/DX =    0.0                 !
 ! A21   A(6,7,12)             117.0109         -DE/DX =    0.0                 !
 ! A22   A(8,7,12)             118.0057         -DE/DX =    0.0                 !
 ! A23   A(7,8,9)              117.9865         -DE/DX =    0.0                 !
 ! A24   A(7,8,20)             122.435          -DE/DX =    0.0                 !
 ! A25   A(9,8,20)             119.5784         -DE/DX =    0.0                 !
 ! A26   A(8,9,10)             124.5416         -DE/DX =    0.0                 !
 ! A27   A(8,9,21)             118.965          -DE/DX =    0.0                 !
 ! A28   A(10,9,21)            116.4935         -DE/DX =    0.0                 !
 ! A29   A(9,10,11)            116.7912         -DE/DX =    0.0                 !
 ! A30   A(10,11,12)           124.094          -DE/DX =    0.0                 !
 ! A31   A(10,11,22)           116.4053         -DE/DX =    0.0                 !
 ! A32   A(12,11,22)           119.5007         -DE/DX =    0.0                 !
 ! A33   A(7,12,11)            118.5808         -DE/DX =    0.0                 !
 ! A34   A(7,12,23)            119.6994         -DE/DX =    0.0                 !
 ! A35   A(11,12,23)           121.7198         -DE/DX =    0.0                 !
 ! A36   A(4,13,14)            120.553          -DE/DX =    0.0                 !
 ! A37   A(4,13,24)            119.7985         -DE/DX =    0.0                 !
 ! A38   A(14,13,24)           119.6482         -DE/DX =    0.0                 !
 ! A39   A(1,14,13)            120.0424         -DE/DX =    0.0                 !
 ! A40   A(1,14,25)            120.1565         -DE/DX =    0.0                 !
 ! A41   A(13,14,25)           119.7997         -DE/DX =    0.0                 !
 ! D1    D(14,1,2,3)            -0.2476         -DE/DX =    0.0                 !
 ! D2    D(14,1,2,16)          179.7296         -DE/DX =    0.0                 !
 ! D3    D(15,1,2,3)          -179.9926         -DE/DX =    0.0                 !
 ! D4    D(15,1,2,16)           -0.0154         -DE/DX =    0.0                 !
 ! D5    D(2,1,14,13)           -0.0467         -DE/DX =    0.0                 !
 ! D6    D(2,1,14,25)         -179.6153         -DE/DX =    0.0                 !
 ! D7    D(15,1,14,13)         179.6985         -DE/DX =    0.0                 !
 ! D8    D(15,1,14,25)           0.1299         -DE/DX =    0.0                 !
 ! D9    D(1,2,3,4)              0.2225         -DE/DX =    0.0                 !
 ! D10   D(1,2,3,17)           179.6823         -DE/DX =    0.0                 !
 ! D11   D(16,2,3,4)          -179.7548         -DE/DX =    0.0                 !
 ! D12   D(16,2,3,17)           -0.295          -DE/DX =    0.0                 !
 ! D13   D(2,3,4,5)           -178.0785         -DE/DX =    0.0                 !
 ! D14   D(2,3,4,13)             0.0965         -DE/DX =    0.0                 !
 ! D15   D(17,3,4,5)             2.4554         -DE/DX =    0.0                 !
 ! D16   D(17,3,4,13)         -179.3697         -DE/DX =    0.0                 !
 ! D17   D(3,4,5,6)            -20.574          -DE/DX =    0.0                 !
 ! D18   D(3,4,5,18)          -142.1102         -DE/DX =    0.0                 !
 ! D19   D(3,4,5,19)           100.127          -DE/DX =    0.0                 !
 ! D20   D(13,4,5,6)           161.2521         -DE/DX =    0.0                 !
 ! D21   D(13,4,5,18)           39.7159         -DE/DX =    0.0                 !
 ! D22   D(13,4,5,19)          -78.0468         -DE/DX =    0.0                 !
 ! D23   D(3,4,13,14)           -0.3918         -DE/DX =    0.0                 !
 ! D24   D(3,4,13,24)          179.407          -DE/DX =    0.0                 !
 ! D25   D(5,4,13,14)          177.8249         -DE/DX =    0.0                 !
 ! D26   D(5,4,13,24)           -2.3763         -DE/DX =    0.0                 !
 ! D27   D(4,5,6,7)            178.2562         -DE/DX =    0.0                 !
 ! D28   D(18,5,6,7)           -60.4406         -DE/DX =    0.0                 !
 ! D29   D(19,5,6,7)            57.6433         -DE/DX =    0.0                 !
 ! D30   D(5,6,7,8)              0.9285         -DE/DX =    0.0                 !
 ! D31   D(5,6,7,12)          -179.17           -DE/DX =    0.0                 !
 ! D32   D(6,7,8,9)            179.9899         -DE/DX =    0.0                 !
 ! D33   D(6,7,8,20)             0.066          -DE/DX =    0.0                 !
 ! D34   D(12,7,8,9)             0.0894         -DE/DX =    0.0                 !
 ! D35   D(12,7,8,20)         -179.8346         -DE/DX =    0.0                 !
 ! D36   D(6,7,12,11)         -179.9732         -DE/DX =    0.0                 !
 ! D37   D(6,7,12,23)           -0.0501         -DE/DX =    0.0                 !
 ! D38   D(8,7,12,11)           -0.0647         -DE/DX =    0.0                 !
 ! D39   D(8,7,12,23)          179.8585         -DE/DX =    0.0                 !
 ! D40   D(7,8,9,10)            -0.0464         -DE/DX =    0.0                 !
 ! D41   D(7,8,9,21)           179.9746         -DE/DX =    0.0                 !
 ! D42   D(20,8,9,10)          179.8798         -DE/DX =    0.0                 !
 ! D43   D(20,8,9,21)           -0.0992         -DE/DX =    0.0                 !
 ! D44   D(8,9,10,11)           -0.0253         -DE/DX =    0.0                 !
 ! D45   D(21,9,10,11)         179.9542         -DE/DX =    0.0                 !
 ! D46   D(9,10,11,12)           0.0536         -DE/DX =    0.0                 !
 ! D47   D(9,10,11,22)        -179.953          -DE/DX =    0.0                 !
 ! D48   D(10,11,12,7)          -0.0084         -DE/DX =    0.0                 !
 ! D49   D(10,11,12,23)       -179.9299         -DE/DX =    0.0                 !
 ! D50   D(22,11,12,7)         179.9983         -DE/DX =    0.0                 !
 ! D51   D(22,11,12,23)          0.0768         -DE/DX =    0.0                 !
 ! D52   D(4,13,14,1)            0.3685         -DE/DX =    0.0                 !
 ! D53   D(4,13,14,25)         179.9387         -DE/DX =    0.0                 !
 ! D54   D(24,13,14,1)        -179.4306         -DE/DX =    0.0                 !
 ! D55   D(24,13,14,25)          0.1396         -DE/DX =    0.0                 !
 --------------------------------------------------------------------------------
 GradGradGradGradGradGradGradGradGradGradGradGradGradGradGradGradGradGrad

                          Input orientation:                          
 ---------------------------------------------------------------------
 Center     Atomic      Atomic             Coordinates (Angstroms)
 Number     Number       Type             X           Y           Z
 ---------------------------------------------------------------------
      1          6           0       -4.533290    0.450700   -0.004030
      2          6           0       -3.533100    1.394330    0.221850
      3          6           0       -2.192690    1.010030    0.241630
      4          6           0       -1.840990   -0.324610    0.030350
      5          6           0       -0.404580   -0.779800    0.087790
      6          8           0        0.453730    0.319360   -0.100350
      7          6           0        1.781780    0.135810   -0.049730
      8          6           0        2.413800   -1.093550    0.162600
      9          6           0        3.810290   -1.117000    0.187660
     10          7           0        4.583940   -0.051210    0.022740
     11          6           0        3.966150    1.115630   -0.180560
     12          6           0        2.587960    1.268330   -0.226220
     13          6           0       -2.847850   -1.266840   -0.202560
     14          6           0       -4.186730   -0.883570   -0.216140
     15          1           0       -5.582220    0.754240   -0.019150
     16          1           0       -3.796630    2.441810    0.384350
     17          1           0       -1.408080    1.747910    0.413120
     18          1           0       -0.221540   -1.545950   -0.687290
     19          1           0       -0.202410   -1.248630    1.069740
     20          1           0        1.857740   -2.019460    0.305620
     21          1           0        4.322190   -2.071800    0.353320
     22          1           0        4.610660    1.990880   -0.316670
     23          1           0        2.124070    2.240700   -0.396040
     24          1           0       -2.582760   -2.313370   -0.378940
     25          1           0       -4.962980   -1.629460   -0.400260
 ---------------------------------------------------------------------
                    Distance matrix (angstroms):
                    1          2          3          4          5
     1  C    0.000000
     2  C    1.393499   0.000000
     3  C    2.419010   1.394553   0.000000
     4  C    2.801922   2.419641   1.396279   0.000000
     5  C    4.309154   3.812145   2.534659   1.507903   0.000000
     6  O    4.989679   4.141761   2.756359   2.386948   1.407212
     7  C    6.323081   5.468599   4.079897   3.652788   2.374326
     8  C    7.118605   6.446602   5.064686   4.325737   2.836777
     9  C    8.491746   7.761013   6.368904   5.708730   4.229516
    10  N    9.131074   8.247155   6.862715   6.430749   5.041865
    11  C    8.527237   7.515208   6.174197   5.986790   4.771577
    12  C    7.171477   6.138731   4.810428   4.713691   3.639881
    13  C    2.414553   2.780561   2.410534   1.398503   2.508202
    14  C    1.394766   2.409958   2.787736   2.423982   3.795761
    15  H    1.092071   2.160252   3.409157   3.893991   5.401173
    16  H    2.158246   1.092277   2.154759   3.406306   4.687507
    17  H    3.409356   2.162710   1.090637   2.151572   2.739009
    18  H    4.800484   4.520864   3.358773   2.151580   1.105097
    19  H    4.774644   4.335626   3.122263   2.149207   1.106752
    20  H    6.858778   6.381390   5.058447   4.077854   2.588880
    21  H    9.214675   8.587021   7.207899   6.414185   4.907354
    22  H    9.278023   8.183319   6.896328   6.863360   5.743944
    23  H    6.904941   5.753408   4.533827   4.741764   3.968826
    24  H    3.403705   3.874420   3.403270   2.161691   2.704467
    25  H    2.160717   3.402188   3.879876   3.410994   4.662524
                    6          7          8          9         10
     6  O    0.000000
     7  C    1.341630   0.000000
     8  C    2.430500   1.398520   0.000000
     9  C    3.662318   2.395984   1.396912   0.000000
    10  N    4.148627   2.809329   2.411543   1.327268   0.000000
    11  C    3.602440   2.397631   2.721769   2.268152   1.335856
    12  C    2.339086   1.401312   2.399998   2.712045   2.405640
    13  C    3.664275   4.839861   5.277152   6.671248   7.533925
    14  C    4.795239   6.057222   6.614721   8.010610   8.813316
    15  H    6.052141   7.389986   8.208757   9.579329  10.198103
    16  H    4.775488   6.051836   7.149642   8.400539   8.750992
    17  H    2.402237   3.603929   4.769006   5.957342   6.268455
    18  H    2.068785   2.692228   2.805708   4.147914   5.082423
    19  H    2.063546   2.665876   2.773357   4.110615   5.043726
    20  H    2.757922   2.185688   1.089480   2.154252   3.374344
    21  H    4.570388   3.389642   2.152975   1.095960   2.064117
    22  H    4.485626   3.393391   3.817015   3.248670   2.070276
    23  H    2.563009   2.160476   3.393117   3.802393   3.388095
    24  H    4.028542   5.015583   5.171735   6.528662   7.525975
    25  H    5.764425   6.980748   7.417607   8.807868   9.685736
                   11         12         13         14         15
    11  C    0.000000
    12  C    1.387375   0.000000
    13  C    7.218535   5.997973   0.000000
    14  C    8.394493   7.108249   1.392724   0.000000
    15  H    9.556570   8.188956   3.405170   2.160699   0.000000
    16  H    7.895482   6.520187   3.872820   3.401605   2.489786
    17  H    5.443765   4.075180   3.397163   3.878344   4.312503
    18  H    4.987738   4.003255   2.685213   4.047649   5.871471
    19  H    4.952764   3.975018   2.935546   4.202566   5.842904
    20  H    3.809272   3.409639   4.792417   6.172366   7.946816
    21  H    3.251385   3.807872   7.236466   8.610337  10.306434
    22  H    1.095437   2.149785   8.139726   9.255627  10.271933
    23  H    2.169210   1.090659   6.087714   7.044120   7.857386
    24  H    7.394972   6.291919   1.093896   2.154890   4.305397
    25  H    9.344151   8.089757   2.155076   1.092161   2.492133
                   16         17         18         19         20
    16  H    0.000000
    17  H    2.487468   0.000000
    18  H    5.461860   3.669917   0.000000
    19  H    5.196876   3.296065   1.782111   0.000000
    20  H    7.202849   4.987004   2.352337   2.328578   0.000000
    21  H    9.289181   6.886926   4.690935   4.654339   2.465467
    22  H    8.448508   6.067690   5.999724   5.965082   4.903941
    23  H    5.975294   3.657002   4.463791   4.442572   4.325763
    24  H    4.966672   4.301305   2.501874   2.983020   4.502560
    25  H    4.307113   4.970466   4.750854   4.996895   6.868230
                   21         22         23         24         25
    21  H    0.000000
    22  H    4.127647   0.000000
    23  H    4.898054   2.500368   0.000000
    24  H    6.947870   8.383063   6.549358   0.000000
    25  H    9.326196  10.235645   8.074926   2.476618   0.000000
 Stoichiometry    C12H11NO
 Framework group  C1[X(C12H11NO)]
 Deg. of freedom    69
 Full point group                 C1      NOp   1
 Largest Abelian subgroup         C1      NOp   1
 Largest concise Abelian subgroup C1      NOp   1
                         Standard orientation:                         
 ---------------------------------------------------------------------
 Center     Atomic      Atomic             Coordinates (Angstroms)
 Number     Number       Type             X           Y           Z
 ---------------------------------------------------------------------
      1          6           0       -4.533290    0.450698   -0.004030
      2          6           0       -3.533100    1.394328    0.221850
      3          6           0       -2.192690    1.010029    0.241630
      4          6           0       -1.840989   -0.324611    0.030350
      5          6           0       -0.404579   -0.779801    0.087790
      6          8           0        0.453730    0.319360   -0.100350
      7          6           0        1.781780    0.135810   -0.049730
      8          6           0        2.413801   -1.093550    0.162600
      9          6           0        3.810291   -1.116999    0.187660
     10          7           0        4.583940   -0.051209    0.022740
     11          6           0        3.966150    1.115631   -0.180560
     12          6           0        2.587960    1.268330   -0.226220
     13          6           0       -2.847849   -1.266841   -0.202560
     14          6           0       -4.186729   -0.883572   -0.216140
     15          1           0       -5.582220    0.754238   -0.019150
     16          1           0       -3.796630    2.441808    0.384350
     17          1           0       -1.408080    1.747909    0.413120
     18          1           0       -0.221539   -1.545950   -0.687290
     19          1           0       -0.202409   -1.248630    1.069740
     20          1           0        1.857741   -2.019460    0.305620
     21          1           0        4.322191   -2.071799    0.353320
     22          1           0        4.610660    1.990881   -0.316670
     23          1           0        2.124070    2.240700   -0.396040
     24          1           0       -2.582759   -2.313371   -0.378940
     25          1           0       -4.962979   -1.629462   -0.400260
 ---------------------------------------------------------------------
 Rotational constants (GHZ):           2.7031042           0.2826363           0.2577412
 Unable to Open any file for archive entry.
 1\1\GINC-NOTCH344\FOpt\RwB97XD\def2SVP\C12H11N1O1\U6053008\12-Jul-2024
 \0\\#N OPT FREQ=NORAMAN Integral(Ultrafine) wB97XD def2SVP\\12328828_3
 \\0,1\C,-4.53329,0.4507,-0.00403\C,-3.5331,1.39433,0.22185\C,-2.19269,
 1.01003,0.24163\C,-1.84099,-0.32461,0.03035\C,-0.40458,-0.7798,0.08779
 \O,0.45373,0.31936,-0.10035\C,1.78178,0.13581,-0.04973\C,2.4138,-1.093
 55,0.1626\C,3.81029,-1.117,0.18766\N,4.58394,-0.05121,0.02274\C,3.9661
 5,1.11563,-0.18056\C,2.58796,1.26833,-0.22622\C,-2.84785,-1.26684,-0.2
 0256\C,-4.18673,-0.88357,-0.21614\H,-5.58222,0.75424,-0.01915\H,-3.796
 63,2.44181,0.38435\H,-1.40808,1.74791,0.41312\H,-0.22154,-1.54595,-0.6
 8729\H,-0.20241,-1.24863,1.06974\H,1.85774,-2.01946,0.30562\H,4.32219,
 -2.0718,0.35332\H,4.61066,1.99088,-0.31667\H,2.12407,2.2407,-0.39604\H
 ,-2.58276,-2.31337,-0.37894\H,-4.96298,-1.62946,-0.40026\\Version=ES64
 L-G16RevC.01\State=1-A\HF=-593.2357648\RMSD=3.942e-09\RMSF=2.511e-06\D
 ipole=-1.138051,-0.3514034,0.0689089\Quadrupole=-6.7520251,8.8211231,-
 2.069098,0.7544437,0.1155847,0.0488018\PG=C01 [X(C12H11N1O1)]\\@
 The archive entry for this job was punched.


 WERE I TO AWAIT PERFECTION, MY BOOK WOULD NEVER BE FINISHED.
                                    -- HISTORY OF CHINESE WRITING

[...]
 Alpha virt. eigenvalues --    3.41332   3.43232   3.43887   3.45100   3.46021
 Alpha virt. eigenvalues --    3.46432   3.46652   3.47784   3.48239   3.50289
 Alpha virt. eigenvalues --    3.51376   3.51923   3.53194   3.53647   3.54552
 Alpha virt. eigenvalues --    3.55260   3.56354   3.57425   3.60049   3.60655
 Alpha virt. eigenvalues --    3.61538   3.61659   3.63480   3.64899   3.66226
 Alpha virt. eigenvalues --    3.68896   3.70711   3.73592   3.76659   3.77761
 Alpha virt. eigenvalues --    3.78900   3.79754   3.81920   3.85043   3.85994
 Alpha virt. eigenvalues --    3.89037   3.91901   3.93956   3.95993   3.97028
 Alpha virt. eigenvalues --    3.98920   4.01520   4.01864   4.02795   4.08449
 Alpha virt. eigenvalues --    4.09671   4.10514   4.11718   4.12724   4.14240
 Alpha virt. eigenvalues --    4.17083   4.18577   4.20217   4.21215   4.24693
 Alpha virt. eigenvalues --    4.25579   4.27004   4.28412   4.30450   4.31165
 Alpha virt. eigenvalues --    4.32599   4.34226   4.36370   4.37339   4.37690
 Alpha virt. eigenvalues --    4.38608   4.40315   4.45415   4.46313   4.50449
 Alpha virt. eigenvalues --    4.52732   4.55794   4.59553   4.62121   4.63343
 Alpha virt. eigenvalues --    4.64072   4.66905   4.72316   4.75277   4.76098
 Alpha virt. eigenvalues --    4.79212   4.82059   4.85339   4.88367   4.91498
 Alpha virt. eigenvalues --    4.93792   4.95790   4.98703   5.00994   5.01794
 Alpha virt. eigenvalues --    5.04158   5.05020   5.13342   5.16543   5.19215
 Alpha virt. eigenvalues --    5.21668   5.28527   5.29767   5.32408   5.37728
 Alpha virt. eigenvalues --    5.43188   5.44097   5.45542   5.47849   5.50151
 Alpha virt. eigenvalues --    5.54968   5.66726   5.69641   5.71814   5.73636
 Alpha virt. eigenvalues --    5.84206   5.87329   6.03887   6.07173   6.13832
 Alpha virt. eigenvalues --    6.51247   6.69175   6.73810   6.90992   6.98732
 Alpha virt. eigenvalues --    7.36143   7.53985  22.07885  22.44778  22.62611
 Alpha virt. eigenvalues --   22.68895  22.71403  22.74696  22.80656  22.85412
 Alpha virt. eigenvalues --   22.87838  22.89021  23.27777  23.31032  32.49977
 Alpha virt. eigenvalues --   44.52704
          Condensed to atoms (all electrons):
               1          2          3          4          5          6
     1  C    4.910790   0.454074   0.020475  -0.078317  -0.003593   0.000247
     2  C    0.454074   4.910360   0.442740  -0.005240   0.011104   0.000236
     3  C    0.020475   0.442740   5.079026   0.389768  -0.110844   0.025616
     4  C   -0.078317  -0.005240   0.389768   4.977876   0.344381  -0.080536
     5  C   -0.003593   0.011104  -0.110844   0.344381   4.928976   0.237112
     6  O    0.000247   0.000236   0.025616  -0.080536   0.237112   7.917835
     7  C    0.000016  -0.000075  -0.002711   0.006083  -0.062259   0.368148
     8  C   -0.000004   0.000024   0.000376   0.001501  -0.002107  -0.070328
     9  C   -0.000000  -0.000000  -0.000006  -0.000523  -0.002525   0.002431
    10  N   -0.000000   0.000000  -0.000001  -0.000018  -0.000048  -0.000066
    11  C    0.000000   0.000001   0.000041  -0.000003  -0.000486   0.001375
    12  C    0.000003  -0.000058  -0.000037  -0.000374   0.001230  -0.056584
    13  C    0.014726  -0.059677   0.034205   0.416320  -0.084803   0.002749
    14  C    0.460503  -0.000033  -0.063129   0.002458   0.005501  -0.000414
    15  H    0.438773  -0.051966   0.009141  -0.002081   0.000110  -0.000000
    16  H   -0.052757   0.441497  -0.055195   0.011179  -0.000346  -0.000049
    17  H    0.008316  -0.047615   0.435307  -0.048183  -0.013941   0.015732
    18  H    0.000211   0.000050   0.016032  -0.062886   0.417841  -0.032605
    19  H    0.000101  -0.000514  -0.012095   0.019204   0.363154  -0.045014
    20  H   -0.000001   0.000002  -0.000046   0.001698   0.005917  -0.003783
    21  H    0.000000  -0.000000   0.000001  -0.000009  -0.000183  -0.000136
    22  H   -0.000000   0.000000  -0.000000  -0.000002   0.000026  -0.000119
    23  H    0.000001  -0.000005   0.000026  -0.000121  -0.000482   0.003896
    24  H    0.009358  -0.003237   0.013714  -0.073661  -0.000857   0.000039
    25  H   -0.052971   0.010070  -0.003228   0.012098  -0.000284   0.000004
               7          8          9         10         11         12
     1  C    0.000016  -0.000004  -0.000000  -0.000000   0.000000   0.000003
     2  C   -0.000075   0.000024  -0.000000   0.000000   0.000001  -0.000058
     3  C   -0.002711   0.000376  -0.000006  -0.000001   0.000041  -0.000037
     4  C    0.006083   0.001501  -0.000523  -0.000018  -0.000003  -0.000374
     5  C   -0.062259  -0.002107  -0.002525  -0.000048  -0.000486   0.001230
     6  O    0.368148  -0.070328   0.002431  -0.000066   0.001375  -0.056584
     7  C    4.673051   0.442130   0.003089  -0.061069  -0.011472   0.475065
     8  C    0.442130   5.151810   0.445072  -0.063300  -0.016456  -0.044216
     9  C    0.003089   0.445072   4.759065   0.544760  -0.105573  -0.020699
    10  N   -0.061069  -0.063300   0.544760   6.445314   0.502840  -0.046782
    11  C   -0.011472  -0.016456  -0.105573   0.502840   4.722234   0.507692
    12  C    0.475065  -0.044216  -0.020699  -0.046782   0.507692   5.038361
    13  C   -0.000360   0.000095  -0.000001   0.000000  -0.000000   0.000015
    14  C   -0.000026   0.000005  -0.000000   0.000000  -0.000000  -0.000005
    15  H   -0.000000   0.000000   0.000000   0.000000   0.000000  -0.000000
    16  H    0.000001  -0.000000   0.000000  -0.000000  -0.000000  -0.000000
    17  H   -0.001432   0.000193  -0.000010  -0.000001   0.000046   0.000072
    18  H   -0.011651   0.007070   0.000421  -0.000054   0.000136  -0.000822
    19  H   -0.003700   0.005543  -0.001163  -0.000045  -0.000008   0.001344
    20  H   -0.067462   0.416147  -0.018614   0.007052  -0.002354   0.007415
    21  H   -0.000445  -0.075841   0.438605  -0.027647   0.004277   0.001551
    22  H    0.004997  -0.000688   0.005038  -0.029646   0.433429  -0.068742
    23  H   -0.063953   0.011547  -0.002308   0.006855  -0.031000   0.420581
    24  H   -0.000019   0.000052   0.000000  -0.000000   0.000000   0.000001
    25  H   -0.000001   0.000000   0.000000  -0.000000   0.000000  -0.000000
              13         14         15         16         17         18
     1  C    0.014726   0.460503   0.438773  -0.052757   0.008316   0.000211
     2  C   -0.059677  -0.000033  -0.051966   0.441497  -0.047615   0.000050
     3  C    0.034205  -0.063129   0.009141  -0.055195   0.435307   0.016032
     4  C    0.416320   0.002458  -0.002081   0.011179  -0.048183  -0.062886
     5  C   -0.084803   0.005501   0.000110  -0.000346  -0.013941   0.417841
     6  O    0.002749  -0.000414  -0.000000  -0.000049   0.015732  -0.032605
     7  C   -0.000360  -0.000026  -0.000000   0.000001  -0.001432  -0.011651
     8  C    0.000095   0.000005   0.000000  -0.000000   0.000193   0.007070
     9  C   -0.000001  -0.000000   0.000000   0.000000  -0.000010   0.000421
    10  N    0.000000   0.000000   0.000000  -0.000000  -0.000001  -0.000054
    11  C   -0.000000  -0.000000   0.000000  -0.000000   0.000046   0.000136
    12  C    0.000015  -0.000005  -0.000000  -0.000000   0.000072  -0.000822
    13  C    5.060547   0.462107   0.009578  -0.002695   0.010471   0.000336
    14  C    0.462107   4.888535  -0.052529   0.009688  -0.002553   0.000213
    15  H    0.009578  -0.052529   0.539677  -0.006758  -0.000113  -0.000002
    16  H   -0.002695   0.009688  -0.006758   0.539022  -0.005923   0.000001
    17  H    0.010471  -0.002553  -0.000113  -0.005923   0.508384   0.001065
    18  H    0.000336   0.000213  -0.000002   0.000001   0.001065   0.604530
    19  H   -0.000173   0.000117  -0.000000   0.000020  -0.000394  -0.060888
    20  H    0.000105   0.000003  -0.000000   0.000000  -0.000005  -0.001735
    21  H    0.000000  -0.000000   0.000000  -0.000000   0.000000  -0.000005
    22  H    0.000000   0.000000  -0.000000   0.000000  -0.000003  -0.000000
    23  H    0.000016  -0.000001   0.000000  -0.000001   0.000465  -0.000057
    24  H    0.442597  -0.044780  -0.000155   0.000039  -0.000021   0.002817
    25  H   -0.057224   0.442361  -0.006679  -0.000125   0.000034  -0.000041
              19         20         21         22         23         24
     1  C    0.000101  -0.000001   0.000000  -0.000000   0.000001   0.009358
     2  C   -0.000514   0.000002  -0.000000   0.000000  -0.000005  -0.003237
     3  C   -0.012095  -0.000046   0.000001  -0.000000   0.000026   0.013714
     4  C    0.019204   0.001698  -0.000009  -0.000002  -0.000121  -0.073661
     5  C    0.363154   0.005917  -0.000183   0.000026  -0.000482  -0.000857
     6  O   -0.045014  -0.003783  -0.000136  -0.000119   0.003896   0.000039
     7  C   -0.003700  -0.067462  -0.000445   0.004997  -0.063953  -0.000019
     8  C    0.005543   0.416147  -0.075841  -0.000688   0.011547   0.000052
     9  C   -0.001163  -0.018614   0.438605   0.005038  -0.002308   0.000000
    10  N   -0.000045   0.007052  -0.027647  -0.029646   0.006855  -0.000000
    11  C   -0.000008  -0.002354   0.004277   0.433429  -0.031000   0.000000
    12  C    0.001344   0.007415   0.001551  -0.068742   0.420581   0.000001
    13  C   -0.000173   0.000105   0.000000   0.000000   0.000016   0.442597
    14  C    0.000117   0.000003  -0.000000   0.000000  -0.000001  -0.044780
    15  H   -0.000000  -0.000000   0.000000  -0.000000   0.000000  -0.000155
    16  H    0.000020   0.000000  -0.000000   0.000000  -0.000001   0.000039
    17  H   -0.000394  -0.000005   0.000000  -0.000003   0.000465  -0.000021
    18  H   -0.060888  -0.001735  -0.000005  -0.000000  -0.000057   0.002817
    19  H    0.612966  -0.000494   0.000015  -0.000000   0.000159   0.000340
    20  H   -0.000494   0.516413  -0.000598   0.000076   0.000151   0.000044
    21  H    0.000015  -0.000598   0.533462  -0.000204   0.000105   0.000000
    22  H   -0.000000   0.000076  -0.000204   0.530505  -0.002815  -0.000000
    23  H    0.000159   0.000151   0.000105  -0.002815   0.521874   0.000000
    24  H    0.000340   0.000044   0.000000  -0.000000   0.000000   0.543946
    25  H    0.000018   0.000000  -0.000000   0.000000   0.000000  -0.006921
              25
     1  C   -0.052971
     2  C    0.010070
     3  C   -0.003228
     4  C    0.012098
     5  C   -0.000284
     6  O    0.000004
     7  C   -0.000001
     8  C    0.000000
     9  C    0.000000
    10  N   -0.000000
    11  C    0.000000
    12  C   -0.000000
    13  C   -0.057224
    14  C    0.442361
    15  H   -0.006679
    16  H   -0.000125
    17  H    0.000034
    18  H   -0.000041
    19  H    0.000018
    20  H    0.000000
    21  H   -0.000000
    22  H    0.000000
    23  H    0.000000
    24  H   -0.006921
    25  H    0.540652
 Mulliken charges:
               1
     1  C   -0.129951
     2  C   -0.101738
     3  C   -0.219178
     4  C    0.169390
     5  C   -0.032594
     6  O   -0.285787
     7  C    0.314057
     8  C   -0.208624
     9  C   -0.047059
    10  N   -0.278144
    11  C   -0.004719
    12  C   -0.215012
    13  C   -0.248937
    14  C   -0.108022
    15  H    0.123003
    16  H    0.122400
    17  H    0.140107
    18  H    0.120024
    19  H    0.121508
    20  H    0.140069
    21  H    0.127050
    22  H    0.128148
    23  H    0.135068
    24  H    0.116703
    25  H    0.122237
 Sum of Mulliken charges =  -0.00000
 Mulliken charges with hydrogens summed into heavy atoms:
               1
     1  C   -0.006948
     2  C    0.020662
     3  C   -0.079071
     4  C    0.169390
     5  C    0.208939
     6  O   -0.285787
     7  C    0.314057
     8  C   -0.068555
     9  C    0.079991
    10  N   -0.278144
    11  C    0.123429
    12  C   -0.079944
    13  C   -0.132234
    14  C    0.014215
 Electronic spatial extent (au):  <R**2>=           3997.7085
 Charge=              0.0000 electrons
 Dipole moment (field-independent basis, Debye):
    X=             -2.9958    Y=             -0.8141    Z=              0.1525  Tot=              3.1082
 Quadrupole moment (field-independent basis, Debye-Ang):
   XX=            -92.2954   YY=            -70.6357   ZZ=            -86.2067
   XY=              1.0625   XZ=              0.1915   YZ=              0.0620
 Traceless Quadrupole moment (field-independent basis, Debye-Ang):
   XX=             -9.2494   YY=             12.4102   ZZ=             -3.1608
   XY=              1.0625   XZ=              0.1915   YZ=              0.0620
 Octapole moment (field-independent basis, Debye-Ang**2):
  XXX=           -137.9590  YYY=              2.4085  ZZZ=              0.0695  XYY=              8.9208
  XXY=              8.4659  XXZ=             -5.2552  XZZ=              7.2995  YZZ=             -0.9524
  YYZ=             -0.2419  XYZ=             -9.0049
 Hexadecapole moment (field-independent basis, Debye-Ang**3):
 XXXX=          -5165.8518 YYYY=           -554.7835 ZZZZ=           -120.8197 XXXY=             28.5524
 XXXZ=             11.6644 YYYX=             -0.9629 YYYZ=              0.7233 ZZZX=             -0.0697
 ZZZY=             -0.8219 XXYY=           -781.0585 XXZZ=           -898.6230 YYZZ=           -128.4856
 XXYZ=             -0.6071 YYXZ=              0.0763 ZZXY=              1.5435
 N-N= 7.812246672701D+02 E-N=-2.943413523927D+03  KE= 5.907097551816D+02
 Breneman (CHELPG) radii used.
 Read replacement radii for each type of atom:
 Atom Element Radius
    1     6    1.50
    2     6    1.50
    3     6    1.50
    4     6    1.50
    5     6    1.50
    6     8    1.70
    7     6    1.50
    8     6    1.50
    9     6    1.50
   10     7    1.70
   11     6    1.50
   12     6    1.50
   13     6    1.50
   14     6    1.50
   15     1    1.45
   16     1    1.45
   17     1    1.45
   18     1    1.45
   19     1    1.45
   20     1    1.45
   21     1    1.45
   22     1    1.45
   23     1    1.45
   24     1    1.45
   25     1    1.45
 Generate Potential Derived Charges using the Breneman model, NDens= 1.
 Grid spacing= 0.300 Box extension= 2.800
 NStep X,Y,Z=   54     36     26   Total possible points=       50544
 Number of Points to Fit=   16320

 **********************************************************************

            Electrostatic Properties Using The SCF Density.

 **********************************************************************

       Atomic Center    1 is at  -4.533290  0.450698 -0.004030
       Atomic Center    2 is at  -3.533100  1.394328  0.221850
       Atomic Center    3 is at  -2.192690  1.010029  0.241630
       Atomic Center    4 is at  -1.840989 -0.324611  0.030350
       Atomic Center    5 is at  -0.404579 -0.779801  0.087790
       Atomic Center    6 is at   0.453730  0.319360 -0.100350
       Atomic Center    7 is at   1.781780  0.135810 -0.049730
       Atomic Center    8 is at   2.413801 -1.093550  0.162600
       Atomic Center    9 is at   3.810291 -1.116999  0.187660
       Atomic Center   10 is at   4.583940 -0.051209  0.022740
       Atomic Center   11 is at   3.966150  1.115631 -0.180560
       Atomic Center   12 is at   2.587960  1.268330 -0.226220
       Atomic Center   13 is at  -2.847849 -1.266841 -0.202560
       Atomic Center   14 is at  -4.186729 -0.883572 -0.216140
       Atomic Center   15 is at  -5.582220  0.754238 -0.019150
       Atomic Center   16 is at  -3.796630  2.441808  0.384350
       Atomic Center   17 is at  -1.408080  1.747909  0.413120
       Atomic Center   18 is at  -0.221539 -1.545950 -0.687290
       Atomic Center   19 is at  -0.202409 -1.248630  1.069740
       Atomic Center   20 is at   1.857741 -2.019460  0.305620
       Atomic Center   21 is at   4.322191 -2.071799  0.353320
       Atomic Center   22 is at   4.610660  1.990881 -0.316670
       Atomic Center   23 is at   2.124070  2.240700 -0.396040
       Atomic Center   24 is at  -2.582759 -2.313371 -0.378940
       Atomic Center   25 is at  -4.962979 -1.629462 -0.400260
   16320 points will be used for fitting atomic charges
 Fitting point charges to electrostatic potential
 Charges from ESP fit, RMS=   0.00399 RRMS=   0.30706:
 ESP charges:
               1
     1  C   -0.122757
     2  C   -0.064246
     3  C   -0.175640
     4  C    0.167930
     5  C    0.149062
     6  O   -0.428332
     7  C    0.708394
     8  C   -0.584494
     9  C    0.456615
    10  N   -0.668892
    11  C    0.450853
    12  C   -0.567136
    13  C   -0.230376
    14  C   -0.033769
    15  H    0.093810
    16  H    0.089487
    17  H    0.120705
    18  H    0.031734
    19  H    0.017626
    20  H    0.176100
    21  H    0.016344
    22  H    0.019535
    23  H    0.183308
    24  H    0.109636
    25  H    0.084503
 Sum of ESP charges =   0.00000
 ESP charges with hydrogens summed into heavy atoms:
               1
     1  C   -0.028947
     2  C    0.025241
     3  C   -0.054935
     4  C    0.167930
     5  C    0.198421
     6  O   -0.428332
     7  C    0.708394
     8  C   -0.408394
     9  C    0.472959
    10  N   -0.668892
    11  C    0.470388
    12  C   -0.383828
    13  C   -0.120740
    14  C    0.050735
 Charge=   0.00000 Dipole=    -2.9857    -0.8017     0.1488 Tot=     3.0951
 -----------------------------------------------------------------

              Electrostatic Properties (Atomic Units)

 -----------------------------------------------------------------
    Center     Electric         -------- Electric Field --------
               Potential          X             Y             Z
 -----------------------------------------------------------------
    1 Atom    -14.763012
    2 Atom    -14.762032
    3 Atom    -14.763855
    4 Atom    -14.748252
    5 Atom    -14.690711
    6 Atom    -22.305745
    7 Atom    -14.685493
    8 Atom    -14.759876
    9 Atom    -14.733842
   10 Atom    -18.407782
   11 Atom    -14.735987
   12 Atom    -14.764693
   13 Atom    -14.759177
   14 Atom    -14.760486
   15 Atom     -1.101242
   16 Atom     -1.101862
   17 Atom     -1.103929
   18 Atom     -1.091982
   19 Atom     -1.091517
   20 Atom     -1.083886
   21 Atom     -1.105830
   22 Atom     -1.107295
   23 Atom     -1.091184
   24 Atom     -1.094529
   25 Atom     -1.099524
 -----------------------------------------------------------------
 Unable to Open any file for archive entry.
 1\1\GINC-NOTCH344\SP\RwB97XD\def2TZVP\C12H11N1O1\U6053008\12-Jul-2024\
 0\\#N Guess=Read Geom=Check Integral(Ultrafine) Density Pop=(ChelpG,Re
 adRadii) NMR wB97XD def2TZVP\\12328828_3\\0,1\C,0,-4.53329,0.4507,-0.0
 0403\C,0,-3.5331,1.39433,0.22185\C,0,-2.19269,1.01003,0.24163\C,0,-1.8
 4099,-0.32461,0.03035\C,0,-0.40458,-0.7798,0.08779\O,0,0.45373,0.31936
 ,-0.10035\C,0,1.78178,0.13581,-0.04973\C,0,2.4138,-1.09355,0.1626\C,0,
 3.81029,-1.117,0.18766\N,0,4.58394,-0.05121,0.02274\C,0,3.96615,1.1156
 3,-0.18056\C,0,2.58796,1.26833,-0.22622\C,0,-2.84785,-1.26684,-0.20256
 \C,0,-4.18673,-0.88357,-0.21614\H,0,-5.58222,0.75424,-0.01915\H,0,-3.7
 9663,2.44181,0.38435\H,0,-1.40808,1.74791,0.41312\H,0,-0.22154,-1.5459
 5,-0.68729\H,0,-0.20241,-1.24863,1.06974\H,0,1.85774,-2.01946,0.30562\
 H,0,4.32219,-2.0718,0.35332\H,0,4.61066,1.99088,-0.31667\H,0,2.12407,2
 .2407,-0.39604\H,0,-2.58276,-2.31337,-0.37894\H,0,-4.96298,-1.62946,-0
 .40026\\Version=ES64L-G16RevC.01\State=1-A\HF=-593.8709413\RMSD=2.522e
 -09\Dipole=-1.178643,-0.3202728,0.0599974\Quadrupole=-6.8767192,9.2266
 738,-2.3499547,0.7899111,0.1423877,0.0461255\PG=C01 [X(C12H11N1O1)]\\@
 The archive entry for this job was punched.


 CONTRAIWISE...CONTINUED TWEEDLEDEE, IF IT WAS SO, IT MIGHT BE,
 AND IF IT WERE SO, IT WOULD BE.....
 BUT AS IT ISN'T, IT AIN'T....
 THAT'S LOGIC.....
 ALICE THROUGH THE LOOKING GLASS
 Job cpu time:       0 days  0 hours 43 minutes 22.9 seconds.
 Elapsed time:       0 days  0 hours  3 minutes  2.1 seconds.
 File lengths (MBytes):  RWF=    157 Int=      0 D2E=      0 Chk=     23 Scr=      2
 Normal termination of Gaussian 16 at Fri Jul 12 13:22:46 2024.
