 Entering Gaussian System, Link 0=g16
 Input=12326827_3.com
 Output=12326827_3.log
 Initial command:
 /uufs/chpc.utah.edu/sys/installdir/gaussian16/C01/AVX/g16/l1.exe "/scratch/general/vast/u6053008/1287134-notchpeak.peaks/Gau-3970239.inp" -scrdir="/scratch/general/vast/u6053008/1287134-notchpeak.peaks/"
 Entering Link 1 = /uufs/chpc.utah.edu/sys/installdir/gaussian16/C01/AVX/g16/l1.exe PID=   3970240.
  
 Copyright (c) 1988-2019, Gaussian, Inc.  All Rights Reserved.
  
 This is part of the Gaussian(R) 16 program.  It is based on
 the Gaussian(R) 09 system (copyright 2009, Gaussian, Inc.),
 the Gaussian(R) 03 system (copyright 2003, Gaussian, Inc.),
 the Gaussian(R) 98 system (copyright 1998, Gaussian, Inc.),
 the Gaussian(R) 94 system (copyright 1995, Gaussian, Inc.),
 the Gaussian 92(TM) system (copyright 1992, Gaussian, Inc.),
 the Gaussian 90(TM) system (copyright 1990, Gaussian, Inc.),
 the Gaussian 88(TM) system (copyright 1988, Gaussian, Inc.),
 the Gaussian 86(TM) system (copyright 1986, Carnegie Mellon
 University), and the Gaussian 82(TM) system (copyright 1983,
 Carnegie Mellon University). Gaussian is a federally registered
 trademark of Gaussian, Inc.
  
 This software contains proprietary and confidential information,
 including trade secrets, belonging to Gaussian, Inc.
  
 This software is provided under written license and may be
 used, copied, transmitted, or stored only in accord with that
 written license.
  
 The following legend is applicable only to US Government
 contracts under FAR:
  
                    RESTRICTED RIGHTS LEGEND
  
 Use, reproduction and disclosure by the US Government is
 subject to restrictions as set forth in subparagraphs (a)
 and (c) of the Commercial Computer Software - Restricted
 Rights clause in FAR 52.227-19.
  
 Gaussian, Inc.
 340 Quinnipiac St., Bldg. 40, Wallingford CT 06492
  
  
 ---------------------------------------------------------------
 Warning -- This program may not be used in any manner that
 competes with the business of Gaussian, Inc. or will provide
 assistance to any competitor of Gaussian, Inc.  The licensee
 of this program is prohibited from giving any competitor of
 Gaussian, Inc. access to this program.  By using this program,
 the user acknowledges that Gaussian, Inc. is engaged in the
 business of creating and licensing software in the field of
 computational chemistry and represents and warrants to the
 licensee that it is not a competitor of Gaussian, Inc. and that
 it will not use this program in any manner prohibited above.
 ---------------------------------------------------------------
  

 Cite this work as:
 Gaussian 16, Revision C.01,
 M. J. Frisch, G. W. Trucks, H. B. Schlegel, G. E. Scuseria, 
 M. A. Robb, J. R. Cheeseman, G. Scalmani, V. Barone, 
 G. A. Petersson, H. Nakatsuji, X. Li, M. Caricato, A. V. Marenich, 
 J. Bloino, B. G. Janesko, R. Gomperts, B. Mennucci, H. P. Hratchian, 
 J. V. Ortiz, A. F. Izmaylov, J. L. Sonnenberg, D. Williams-Young, 
 F. Ding, F. Lipparini, F. Egidi, J. Goings, B. Peng, A. Petrone, 
 T. Henderson, D. Ranasinghe, V. G. Zakrzewski, J. Gao, N. Rega, 
 G. Zheng, W. Liang, M. Hada, M. Ehara, K. Toyota, R. Fukuda, 
 J. Hasegawa, M. Ishida, T. Nakajima, Y. Honda, O. Kitao, H. Nakai, 
 T. Vreven, K. Throssell, J. A. Montgomery, Jr., J. E. Peralta, 
 F. Ogliaro, M. J. Bearpark, J. J. Heyd, E. N. Brothers, K. N. Kudin, 
 V. N. Staroverov, T. A. Keith, R. Kobayashi, J. Normand, 
 K. Raghavachari, A. P. Rendell, J. C. Burant, S. S. Iyengar, 
 J. Tomasi, M. Cossi, J. M. Millam, M. Klene, C. Adamo, R. Cammi, 
 J. W. Ochterski, R. L. Martin, K. Morokuma, O. Farkas, 
 J. B. Foresman, and D. J. Fox, Gaussian, Inc., Wallingford CT, 2019.
 
 ******************************************
 Gaussian 16:  ES64L-G16RevC.01  3-Jul-2019
                12-Jul-2024 
 ******************************************
 %NProcShared=16
 Will use up to   16 processors via shared memory.
 %Mem=32GB
 %chk=12326827_3.chk
 ------------------------------------------------------
 #N OPT FREQ=NORAMAN Integral(Ultrafine) wB97XD def2SVP
 ------------------------------------------------------
 1/18=20,19=15,26=4,38=1/1,3;
 2/9=110,12=2,17=6,18=5,40=1/2;
 3/5=43,7=101,11=2,25=1,30=1,71=1,74=-58,75=-5/1,2,3;
 4//1;
 5/5=2,38=5/2;
 6/7=2,8=2,9=2,10=2,28=1/1;
 7//1,2,3,16;
 1/18=20,19=15,26=4/3(2);
 2/9=110/2;
 99//99;
 2/9=110/2;
 3/5=43,7=101,11=2,25=1,30=1,71=1,74=-58,75=-5/1,2,3;
 4/5=5,16=3,69=1/1;
 5/5=2,38=5/2;
 7//1,2,3,16;
 1/18=20,19=15,26=4/3(-5);
 2/9=110/2;
 6/7=2,8=2,9=2,10=2,19=2,28=1/1;
 99/9=1/99;
 ----------
 12326827_3
 ----------
 Symbolic Z-matrix:
 Charge =  0 Multiplicity = 1
 C                    -3.27942  -0.81342  -0.75635 
 C                    -2.54162  -0.90397   0.5651 
 O                    -1.12917  -0.94137   0.38418 
 C                    -0.46019   0.18366   0.18655 
 N                    -1.12466   1.33168   0.19899 
 C                    -0.46115   2.47365   0.0404 
 C                     0.91449   2.53739  -0.13398 
 C                     1.61351   1.33166  -0.14929 
 C                     0.95157   0.11279  -0.00092 
 C                     1.69968  -1.18866  -0.05929 
 C                     3.21617  -1.12541   0.02492 
 O                     1.14259  -2.25304  -0.17888 
 H                    -3.07654   0.14735  -1.24915 
 H                    -4.36336  -0.8909   -0.58458 
 H                    -2.97428  -1.6306   -1.42577 
 H                    -2.77098  -1.84769   1.07801 
 H                    -2.80901  -0.06454   1.22306 
 H                    -1.06452   3.38791   0.05326 
 H                     1.4228    3.49373  -0.2582 
 H                     2.69562   1.34546  -0.28977 
 H                     3.55351  -0.54941   0.89931 
 H                     3.63921  -0.6517   -0.87454 
 H                     3.5946   -2.1522    0.09012 
 

 GradGradGradGradGradGradGradGradGradGradGradGradGradGradGradGradGradGrad
 Berny optimization.
 Initialization pass.
                           ----------------------------
                           !    Initial Parameters    !
                           ! (Angstroms and Degrees)  !
 --------------------------                            --------------------------
 ! Name  Definition              Value          Derivative Info.                !
 --------------------------------------------------------------------------------
 ! R1    R(1,2)                  1.5162         estimate D2E/DX2                !
 ! R2    R(1,13)                 1.0987         estimate D2E/DX2                !
 ! R3    R(1,14)                 1.1002         estimate D2E/DX2                !
 ! R4    R(1,15)                 1.0996         estimate D2E/DX2                !
 ! R5    R(2,3)                  1.4245         estimate D2E/DX2                !
 ! R6    R(2,16)                 1.0983         estimate D2E/DX2                !
 ! R7    R(2,17)                 1.0996         estimate D2E/DX2                !
 ! R8    R(3,4)                  1.3237         estimate D2E/DX2                !
 ! R9    R(4,5)                  1.3265         estimate D2E/DX2                !
 ! R10   R(4,9)                  1.4259         estimate D2E/DX2                !
 ! R11   R(5,6)                  1.3302         estimate D2E/DX2                !
 ! R12   R(6,7)                  1.3881         estimate D2E/DX2                !
 ! R13   R(6,18)                 1.0955         estimate D2E/DX2                !
 ! R14   R(7,8)                  1.3938         estimate D2E/DX2                !
 ! R15   R(7,19)                 1.0901         estimate D2E/DX2                !
 ! R16   R(8,9)                  1.3949         estimate D2E/DX2                !
 ! R17   R(8,20)                 1.0913         estimate D2E/DX2                !
 ! R18   R(9,10)                 1.5023         estimate D2E/DX2                !
 ! R19   R(10,11)                1.5201         estimate D2E/DX2                !
 ! R20   R(10,12)                1.2073         estimate D2E/DX2                !
 ! R21   R(11,21)                1.1001         estimate D2E/DX2                !
 ! R22   R(11,22)                1.1011         estimate D2E/DX2                !
 ! R23   R(11,23)                1.0962         estimate D2E/DX2                !
 ! A1    A(2,1,13)             110.6894         estimate D2E/DX2                !
 ! A2    A(2,1,14)             109.825          estimate D2E/DX2                !
 ! A3    A(2,1,15)             110.5603         estimate D2E/DX2                !
 ! A4    A(13,1,14)            108.2729         estimate D2E/DX2                !
 ! A5    A(13,1,15)            109.0011         estimate D2E/DX2                !
 ! A6    A(14,1,15)            108.4288         estimate D2E/DX2                !
 ! A7    A(1,2,3)              111.9244         estimate D2E/DX2                !
 ! A8    A(1,2,16)             110.8987         estimate D2E/DX2                !
 ! A9    A(1,2,17)             110.953          estimate D2E/DX2                !
 ! A10   A(3,2,16)             104.112          estimate D2E/DX2                !
 ! A11   A(3,2,17)             109.7043         estimate D2E/DX2                !
 ! A12   A(16,2,17)            109.0103         estimate D2E/DX2                !
 ! A13   A(2,3,4)              119.8513         estimate D2E/DX2                !
 ! A14   A(3,4,5)              118.7496         estimate D2E/DX2                !
 ! A15   A(3,4,9)              118.5381         estimate D2E/DX2                !
 ! A16   A(5,4,9)              122.6966         estimate D2E/DX2                !
 ! A17   A(4,5,6)              119.4717         estimate D2E/DX2                !
 ! A18   A(5,6,7)              123.2787         estimate D2E/DX2                !
 ! A19   A(5,6,18)             116.1253         estimate D2E/DX2                !
 ! A20   A(7,6,18)             120.596          estimate D2E/DX2                !
 ! A21   A(6,7,8)              117.3017         estimate D2E/DX2                !
 ! A22   A(6,7,19)             121.1104         estimate D2E/DX2                !
 ! A23   A(8,7,19)             121.5873         estimate D2E/DX2                !
 ! A24   A(7,8,9)              121.1133         estimate D2E/DX2                !
 ! A25   A(7,8,20)             119.1952         estimate D2E/DX2                !
 ! A26   A(9,8,20)             119.6888         estimate D2E/DX2                !
 ! A27   A(4,9,8)              116.128          estimate D2E/DX2                !
 ! A28   A(4,9,10)             122.7657         estimate D2E/DX2                !
 ! A29   A(8,9,10)             121.1            estimate D2E/DX2                !
 ! A30   A(9,10,11)            117.296          estimate D2E/DX2                !
 ! A31   A(9,10,12)            122.5358         estimate D2E/DX2                !
 ! A32   A(11,10,12)           120.1654         estimate D2E/DX2                !
 ! A33   A(10,11,21)           111.8228         estimate D2E/DX2                !
 ! A34   A(10,11,22)           110.8503         estimate D2E/DX2                !
 ! A35   A(10,11,23)           107.9808         estimate D2E/DX2                !
 ! A36   A(21,11,22)           107.8316         estimate D2E/DX2                !
 ! A37   A(21,11,23)           109.7124         estimate D2E/DX2                !
 ! A38   A(22,11,23)           108.5975         estimate D2E/DX2                !
 ! D1    D(13,1,2,3)           -66.2861         estimate D2E/DX2                !
 ! D2    D(13,1,2,16)          177.9272         estimate D2E/DX2                !
 ! D3    D(13,1,2,17)           56.6231         estimate D2E/DX2                !
 ! D4    D(14,1,2,3)           174.2139         estimate D2E/DX2                !
 ! D5    D(14,1,2,16)           58.4272         estimate D2E/DX2                !
 ! D6    D(14,1,2,17)          -62.8768         estimate D2E/DX2                !
 ! D7    D(15,1,2,3)            54.6018         estimate D2E/DX2                !
 ! D8    D(15,1,2,16)          -61.1849         estimate D2E/DX2                !
 ! D9    D(15,1,2,17)          177.511          estimate D2E/DX2                !
 ! D10   D(1,2,3,4)             81.3645         estimate D2E/DX2                !
 ! D11   D(16,2,3,4)          -158.7887         estimate D2E/DX2                !
 ! D12   D(17,2,3,4)           -42.25           estimate D2E/DX2                !
 ! D13   D(2,3,4,5)              1.851          estimate D2E/DX2                !
 ! D14   D(2,3,4,9)           -179.5523         estimate D2E/DX2                !
 ! D15   D(3,4,5,6)            178.0736         estimate D2E/DX2                !
 ! D16   D(9,4,5,6)             -0.4615         estimate D2E/DX2                !
 ! D17   D(3,4,9,8)           -177.4222         estimate D2E/DX2                !
 ! D18   D(3,4,9,10)             3.4788         estimate D2E/DX2                !
 ! D19   D(5,4,9,8)              1.1159         estimate D2E/DX2                !
 ! D20   D(5,4,9,10)          -177.9831         estimate D2E/DX2                !
 ! D21   D(4,5,6,7)             -0.3548         estimate D2E/DX2                !
 ! D22   D(4,5,6,18)           179.618          estimate D2E/DX2                !
 ! D23   D(5,6,7,8)              0.4438         estimate D2E/DX2                !
 ! D24   D(5,6,7,19)          -179.8337         estimate D2E/DX2                !
 ! D25   D(18,6,7,8)          -179.5279         estimate D2E/DX2                !
 ! D26   D(18,6,7,19)            0.1947         estimate D2E/DX2                !
 ! D27   D(6,7,8,9)              0.2797         estimate D2E/DX2                !
 ! D28   D(6,7,8,20)           179.6747         estimate D2E/DX2                !
 ! D29   D(19,7,8,9)          -179.4415         estimate D2E/DX2                !
 ! D30   D(19,7,8,20)           -0.0465         estimate D2E/DX2                !
 ! D31   D(7,8,9,4)             -0.9971         estimate D2E/DX2                !
 ! D32   D(7,8,9,10)           178.1181         estimate D2E/DX2                !
 ! D33   D(20,8,9,4)           179.6108         estimate D2E/DX2                !
 ! D34   D(20,8,9,10)           -1.2739         estimate D2E/DX2                !
 ! D35   D(4,9,10,11)         -167.7176         estimate D2E/DX2                !
 ! D36   D(4,9,10,12)           12.8765         estimate D2E/DX2                !
 ! D37   D(8,9,10,11)           13.227          estimate D2E/DX2                !
 ! D38   D(8,9,10,12)         -166.1788         estimate D2E/DX2                !
 ! D39   D(9,10,11,21)          52.4956         estimate D2E/DX2                !
 ! D40   D(9,10,11,22)         -67.8681         estimate D2E/DX2                !
 ! D41   D(9,10,11,23)         173.2896         estimate D2E/DX2                !
 ! D42   D(12,10,11,21)       -128.0838         estimate D2E/DX2                !
 ! D43   D(12,10,11,22)        111.5526         estimate D2E/DX2                !
 ! D44   D(12,10,11,23)         -7.2897         estimate D2E/DX2                !
 --------------------------------------------------------------------------------
 Trust Radius=3.00D-01 FncErr=1.00D-07 GrdErr=1.00D-06 EigMax=2.50D+02 EigMin=1.00D-04
 Number of steps in this run=    115 maximum allowed number of steps=    138.
 GradGradGradGradGradGradGradGradGradGradGradGradGradGradGradGradGradGrad

                          Input orientation:                          
 ---------------------------------------------------------------------
 Center     Atomic      Atomic             Coordinates (Angstroms)
 Number     Number       Type             X           Y           Z
 ---------------------------------------------------------------------
      1          6           0       -3.279420   -0.813420   -0.756350
      2          6           0       -2.541620   -0.903970    0.565100
      3          8           0       -1.129170   -0.941370    0.384180
      4          6           0       -0.460190    0.183660    0.186550
      5          7           0       -1.124660    1.331680    0.198990
      6          6           0       -0.461150    2.473650    0.040400
      7          6           0        0.914490    2.537390   -0.133980
      8          6           0        1.613510    1.331660   -0.149290
      9          6           0        0.951570    0.112790   -0.000920
     10          6           0        1.699680   -1.188660   -0.059290
     11          6           0        3.216170   -1.125410    0.024920
     12          8           0        1.142590   -2.253040   -0.178880
     13          1           0       -3.076540    0.147350   -1.249150
     14          1           0       -4.363360   -0.890900   -0.584580
     15          1           0       -2.974280   -1.630600   -1.425770
     16          1           0       -2.770980   -1.847690    1.078010
     17          1           0       -2.809010   -0.064540    1.223060
     18          1           0       -1.064520    3.387910    0.053260
     19          1           0        1.422800    3.493730   -0.258200
     20          1           0        2.695620    1.345460   -0.289770
     21          1           0        3.553510   -0.549410    0.899310
     22          1           0        3.639210   -0.651700   -0.874540
     23          1           0        3.594600   -2.152200    0.090120
 ---------------------------------------------------------------------
                    Distance matrix (angstroms):
                    1          2          3          4          5
     1  C    0.000000
     2  C    1.516172   0.000000
     3  O    2.437366   1.424481   0.000000
     4  C    3.135488   2.378779   1.323739   0.000000
     5  N    3.187024   2.672067   2.280586   1.326509   0.000000
     6  C    4.402532   4.001498   3.496684   2.294649   1.330222
     7  C    5.404087   4.927105   4.067777   2.744545   2.392225
     8  C    5.376863   4.772159   3.601881   2.393935   2.760231
     9  C    4.396569   3.681923   2.364114   1.425915   2.415862
    10  C    5.041640   4.296456   2.874058   2.570747   3.794169
    11  C    6.549840   5.787312   4.364048   3.905818   4.991032
    12  O    4.686166   3.993357   2.682985   2.939379   4.258336
    13  H    1.098677   2.164005   2.765019   2.984601   2.703624
    14  H    1.100197   2.154222   3.376541   4.121172   4.005374
    15  H    1.099553   2.163042   2.674956   3.494533   3.851758
    16  H    2.166357   1.098312   1.999589   3.203254   3.686657
    17  H    2.167988   1.099569   2.072297   2.579324   2.415613
    18  H    4.817927   4.567717   4.342390   3.263464   2.062265
    19  H    6.396137   5.977810   5.157065   3.834060   3.372393
    20  H    6.370209   5.763629   4.506974   3.396439   3.851443
    21  H    7.035613   6.114574   4.727207   4.141884   5.090601
    22  H    6.921529   6.351288   4.940216   4.316112   5.270742
    23  H    7.054147   6.279879   4.885344   4.680477   5.866915
                    6          7          8          9         10
     6  C    0.000000
     7  C    1.388113   0.000000
     8  C    2.375781   1.393789   0.000000
     9  C    2.751571   2.428531   1.394927   0.000000
    10  C    4.253427   3.808615   2.523398   1.502281   0.000000
    11  C    5.145499   4.328866   2.938718   2.581128   1.520143
    12  O    4.996165   4.796068   3.615621   2.380191   1.207293
    13  H    3.730265   4.783745   4.960731   4.217220   5.100291
    14  H    5.190187   6.309668   6.391575   5.440270   6.093032
    15  H    5.030939   5.844946   5.608226   4.525694   4.889630
    16  H    5.008585   5.854958   5.553223   4.343380   4.659890
    17  H    3.654250   4.740891   4.836466   3.958729   4.820410
    18  H    1.095487   2.162157   3.382460   3.846292   5.347753
    19  H    2.163098   1.090136   2.173195   3.423303   4.694785
    20  H    3.368534   2.148812   1.091278   2.155138   2.732541
    21  H    5.098442   4.190519   2.898549   2.831786   2.182714
    22  H    5.236209   4.259439   2.926289   2.927638   2.171344
    23  H    6.152241   5.406058   4.014887   3.481964   2.131069
                   11         12         13         14         15
    11  C    0.000000
    12  O    2.369139   0.000000
    13  H    6.545332   4.970755   0.000000
    14  H    7.607612   5.686432   1.781999   0.000000
    15  H    6.378196   4.346353   1.789625   1.784461   0.000000
    16  H    6.121818   4.130389   3.080459   2.493056   2.521383
    17  H    6.234082   4.729705   2.495655   2.523180   3.081584
    18  H    6.220544   6.061810   4.030599   5.440349   5.569574
    19  H    4.963143   5.754144   5.694234   7.267128   6.852466
    20  H    2.544642   3.920893   5.972747   7.410629   6.503476
    21  H    1.100060   3.142831   7.004207   8.061971   7.013345
    22  H    1.101087   3.046530   6.773486   8.011393   6.708230
    23  H    1.096247   2.468782   7.182317   8.085495   6.761669
                   16         17         18         19         20
    16  H    0.000000
    17  H    1.789444   0.000000
    18  H    5.601216   4.041174   0.000000
    19  H    6.921273   5.723953   2.508977   0.000000
    20  H    6.476939   5.880281   4.292776   2.497225   0.000000
    21  H    6.458842   6.389176   6.127356   4.714524   2.395917
    22  H    6.806863   6.806190   6.269317   4.740985   2.284943
    23  H    6.448974   6.829941   7.238893   6.059255   3.631268
                   21         22         23
    21  H    0.000000
    22  H    1.778862   0.000000
    23  H    1.795943   1.784393   0.000000
 Stoichiometry    C9H11NO2
 Framework group  C1[X(C9H11NO2)]
 Deg. of freedom    63
 Full point group                 C1      NOp   1
 Largest Abelian subgroup         C1      NOp   1
 Largest concise Abelian subgroup C1      NOp   1
                         Standard orientation:                         
 ---------------------------------------------------------------------
 Center     Atomic      Atomic             Coordinates (Angstroms)
 Number     Number       Type             X           Y           Z
 ---------------------------------------------------------------------
      1          6           0        3.279419   -0.813424    0.756349
      2          6           0        2.541619   -0.903973   -0.565101
      3          8           0        1.129169   -0.941372   -0.384181
      4          6           0        0.460191    0.183659   -0.186551
      5          7           0        1.124662    1.331678   -0.198991
      6          6           0        0.461153    2.473649   -0.040401
      7          6           0       -0.914487    2.537391    0.133979
      8          6           0       -1.613508    1.331661    0.149289
      9          6           0       -0.951570    0.112791    0.000919
     10          6           0       -1.699681   -1.188658    0.059289
     11          6           0       -3.216171   -1.125407   -0.024921
     12          8           0       -1.142592   -2.253039    0.178879
     13          1           0        3.076541    0.147346    1.249149
     14          1           0        4.363359   -0.890905    0.584579
     15          1           0        2.974279   -1.630604    1.425769
     16          1           0        2.770978   -1.847693   -1.078011
     17          1           0        2.809010   -0.064543   -1.223061
     18          1           0        1.064524    3.387908   -0.053261
     19          1           0       -1.422796    3.493731    0.258199
     20          1           0       -2.695618    1.345463    0.289769
     21          1           0       -3.553510   -0.549406   -0.899311
     22          1           0       -3.639210   -0.651696    0.874539
     23          1           0       -3.594602   -2.152196   -0.090121
 ---------------------------------------------------------------------
 Rotational constants (GHZ):           1.2512017           0.8309766           0.5236117
 Standard basis: def2SVP (5D, 7F)
 There are   235 symmetry adapted cartesian basis functions of A   symmetry.
 There are   223 symmetry adapted basis functions of A   symmetry.
   223 basis functions,   377 primitive gaussians,   235 cartesian basis functions
    44 alpha electrons       44 beta electrons
       nuclear repulsion energy       691.9369647787 Hartrees.
 NAtoms=   23 NActive=   23 NUniq=   23 SFac= 1.00D+00 NAtFMM=   60 NAOKFM=F Big=F
 Integral buffers will be    131072 words long.
 Raffenetti 2 integral format.
 Two-electron integral symmetry is turned on.
 Nuclear repulsion after empirical dispersion term =      691.9244498200 Hartrees.
 One-electron integrals computed using PRISM.
   1 Symmetry operations used in ECPInt.
 ECPInt:  NShTT=    5565 NPrTT=   20089 LenC2=    5402 LenP2D=   14545.
 LDataN:  DoStor=T MaxTD1= 4 Len=   56
 NBasis=   223 RedAO= T EigKep=  6.27D-04  NBF=   223
 NBsUse=   223 1.00D-06 EigRej= -1.00D+00 NBFU=   223
 ExpMin= 1.22D-01 ExpMax= 2.27D+03 ExpMxC= 3.41D+02 IAcc=3 IRadAn=         5 AccDes= 0.00D+00
 Harris functional with IExCor= 4639 and IRadAn=       5 diagonalized for initial guess.
 HarFok:  IExCor= 4639 AccDes= 0.00D+00 IRadAn=         5 IDoV= 1 UseB2=F ITyADJ=14
 ICtDFT=  3500011 ScaDFX=  1.000000  1.000000  1.000000  1.000000
 FoFCou: FMM=F IPFlag=           0 FMFlag=      100000 FMFlg1=           0
         NFxFlg=           0 DoJE=T BraDBF=F KetDBF=T FulRan=T
         wScrn=  0.000000 ICntrl=       500 IOpCl=  0 I1Cent=   200000004 NGrid=           0
         NMat0=    1 NMatS0=      1 NMatT0=    0 NMatD0=    1 NMtDS0=    0 NMtDT0=    0
 Petite list used in FoFCou.
 Requested convergence on RMS density matrix=1.00D-08 within 128 cycles.
 Requested convergence on MAX density matrix=1.00D-06.
 Requested convergence on             energy=1.00D-06.
 No special actions if energy rises.
 Integral accuracy reduced to 1.0D-05 until final iterations.
 Initial convergence to 1.0D-05 achieved.  Increase integral accuracy.
 SCF Done:  E(RwB97XD) =  -554.194397989     A.U. after   16 cycles
            NFock= 16  Conv=0.63D-08     -V/T= 2.0100

 **********************************************************************

            Population analysis using the SCF Density.

 **********************************************************************

 Orbital symmetries:
       Occupied  (A) (A) (A) (A) (A) (A) (A) (A) (A) (A) (A) (A)
                 (A) (A) (A) (A) (A) (A) (A) (A) (A) (A) (A) (A)
                 (A) (A) (A) (A) (A) (A) (A) (A) (A) (A) (A) (A)
                 (A) (A) (A) (A) (A) (A) (A) (A)
       Virtual   (A) (A) (A) (A) (A) (A) (A) (A) (A) (A) (A) (A)
                 (A) (A) (A) (A) (A) (A) (A) (A) (A) (A) (A) (A)
                 (A) (A) (A) (A) (A) (A) (A) (A) (A) (A) (A) (A)
                 (A) (A) (A) (A) (A) (A) (A) (A) (A) (A) (A) (A)
                 (A) (A) (A) (A) (A) (A) (A) (A) (A) (A) (A) (A)
                 (A) (A) (A) (A) (A) (A) (A) (A) (A) (A) (A) (A)
                 (A) (A) (A) (A) (A) (A) (A) (A) (A) (A) (A) (A)
                 (A) (A) (A) (A) (A) (A) (A) (A) (A) (A) (A) (A)
                 (A) (A) (A) (A) (A) (A) (A) (A) (A) (A) (A) (A)
                 (A) (A) (A) (A) (A) (A) (A) (A) (A) (A) (A) (A)
                 (A) (A) (A) (A) (A) (A) (A) (A) (A) (A) (A) (A)
                 (A) (A) (A) (A) (A) (A) (A) (A) (A) (A) (A) (A)
                 (A) (A) (A) (A) (A) (A) (A) (A) (A) (A) (A) (A)
                 (A) (A) (A) (A) (A) (A) (A) (A) (A) (A) (A) (A)
                 (A) (A) (A) (A) (A) (A) (A) (A) (A) (A) (A)
 The electronic state is 1-A.
 Alpha  occ. eigenvalues --  -19.29005 -19.23825 -14.44491 -10.40598 -10.38790
 Alpha  occ. eigenvalues --  -10.35099 -10.34769 -10.33486 -10.31840 -10.31206
 Alpha  occ. eigenvalues --  -10.30267 -10.28829  -1.18178  -1.12895  -1.04377
 Alpha  occ. eigenvalues --   -0.91832  -0.88087  -0.84761  -0.82384  -0.75294
 Alpha  occ. eigenvalues --   -0.74897  -0.69131  -0.65877  -0.62288  -0.60256
 Alpha  occ. eigenvalues --   -0.58043  -0.55785  -0.55116  -0.54302  -0.52954
 Alpha  occ. eigenvalues --   -0.51572  -0.49708  -0.49565  -0.48511  -0.47203
 Alpha  occ. eigenvalues --   -0.46699  -0.45447  -0.44530  -0.41904  -0.41269
 Alpha  occ. eigenvalues --   -0.37604  -0.35962  -0.32428  -0.31601
 Alpha virt. eigenvalues --    0.00586   0.05343   0.10414   0.13549   0.15861
 Alpha virt. eigenvalues --    0.16541   0.19294   0.19590   0.20417   0.20692
 Alpha virt. eigenvalues --    0.21356   0.21548   0.23109   0.23861   0.24297
 Alpha virt. eigenvalues --    0.24672   0.28383   0.29013   0.31276   0.32947
 Alpha virt. eigenvalues --    0.34580   0.36218   0.37669   0.39042   0.43297
 Alpha virt. eigenvalues --    0.44624   0.47054   0.48698   0.50980   0.51300
 Alpha virt. eigenvalues --    0.51650   0.52706   0.53511   0.53862   0.55590
 Alpha virt. eigenvalues --    0.57181   0.59260   0.60735   0.61825   0.62309
 Alpha virt. eigenvalues --    0.64892   0.66516   0.67618   0.69188   0.69622
 Alpha virt. eigenvalues --    0.69906   0.71552   0.72549   0.72834   0.73969
 Alpha virt. eigenvalues --    0.74034   0.75674   0.76008   0.76303   0.76881
 Alpha virt. eigenvalues --    0.77419   0.78047   0.79250   0.79614   0.80300
 Alpha virt. eigenvalues --    0.81772   0.83660   0.84886   0.85871   0.88039
 Alpha virt. eigenvalues --    0.91399   0.95204   0.98147   0.99356   1.00693
 Alpha virt. eigenvalues --    1.06298   1.09496   1.10518   1.12905   1.14048
 Alpha virt. eigenvalues --    1.15622   1.17791   1.20661   1.24616   1.27524
 Alpha virt. eigenvalues --    1.28935   1.31081   1.31949   1.33411   1.36552
 Alpha virt. eigenvalues --    1.38303   1.41164   1.42959   1.44735   1.49260
 Alpha virt. eigenvalues --    1.49469   1.52620   1.53589   1.58484   1.60204
 Alpha virt. eigenvalues --    1.61772   1.65397   1.67345   1.68177   1.68955
 Alpha virt. eigenvalues --    1.75130   1.77045   1.79286   1.80690   1.81259
 Alpha virt. eigenvalues --    1.81858   1.83056   1.84280   1.85390   1.86519
 Alpha virt. eigenvalues --    1.87782   1.88166   1.88538   1.89474   1.90921
 Alpha virt. eigenvalues --    1.91828   1.94484   1.96102   1.97405   2.00257
 Alpha virt. eigenvalues --    2.00843   2.02135   2.02774   2.03303   2.07622
 Alpha virt. eigenvalues --    2.10097   2.11600   2.13307   2.17189   2.18391
 Alpha virt. eigenvalues --    2.20926   2.24495   2.25082   2.28875   2.29833
 Alpha virt. eigenvalues --    2.31879   2.37206   2.40722   2.44883   2.46982
 Alpha virt. eigenvalues --    2.48281   2.48955   2.49375   2.50078   2.52254
 Alpha virt. eigenvalues --    2.54567   2.59511   2.62342   2.63730   2.64471
 Alpha virt. eigenvalues --    2.66871   2.73892   2.76775   2.78488   2.79511
 Alpha virt. eigenvalues --    2.80355   2.82765   2.84014   2.87752   2.90404
 Alpha virt. eigenvalues --    2.93165   2.96276   3.00130   3.01520   3.02511
 Alpha virt. eigenvalues --    3.04774   3.05962   3.08474   3.12956   3.17962
 Alpha virt. eigenvalues --    3.19815   3.22327   3.26156   3.34496   3.46676
 Alpha virt. eigenvalues --    3.54526   3.64429   3.74153   3.80325
          Condensed to atoms (all electrons):
               1          2          3          4          5          6
     1  C    4.613776   0.447445  -0.041035  -0.006715  -0.011077  -0.000262
     2  C    0.447445   4.449962   0.270728  -0.040335  -0.009984   0.000252
     3  O   -0.041035   0.270728   7.844085   0.458548  -0.084442   0.001805
     4  C   -0.006715  -0.040335   0.458548   4.744443   0.528148  -0.035094
     5  N   -0.011077  -0.009984  -0.084442   0.528148   6.409457   0.512051
     6  C   -0.000262   0.000252   0.001805  -0.035094   0.512051   4.701651
     7  C   -0.000074   0.000044   0.000451  -0.060638  -0.043954   0.447088
     8  C    0.000014  -0.000268   0.000332  -0.061562  -0.036286  -0.004578
     9  C   -0.001170   0.005553  -0.113652   0.303185  -0.092340  -0.069057
    10  C   -0.000017  -0.000003   0.009148  -0.035264   0.005891  -0.000035
    11  C   -0.000002   0.000015  -0.000153   0.008178  -0.000007  -0.000052
    12  O   -0.000114   0.000324  -0.009229   0.008176   0.000084   0.000012
    13  H    0.390557  -0.018749  -0.004827   0.004095   0.011987   0.000372
    14  H    0.378959  -0.015627   0.003708   0.000190  -0.000048   0.000006
    15  H    0.388664  -0.020042   0.001479   0.000029   0.000412   0.000001
    16  H   -0.025319   0.388346  -0.025433   0.005035   0.000431   0.000030
    17  H   -0.029746   0.386288  -0.025232  -0.014076   0.026893   0.000506
    18  H    0.000105  -0.000014  -0.000078   0.004358  -0.038856   0.422132
    19  H    0.000001   0.000000   0.000013   0.000922   0.005257  -0.045745
    20  H   -0.000000   0.000008  -0.000058   0.011070  -0.000089   0.009589
    21  H    0.000000  -0.000001   0.000025  -0.000151  -0.000009  -0.000023
    22  H    0.000000  -0.000000   0.000001  -0.000212  -0.000003  -0.000006
    23  H    0.000000  -0.000000   0.000007  -0.000087   0.000001   0.000002
               7          8          9         10         11         12
     1  C   -0.000074   0.000014  -0.001170  -0.000017  -0.000002  -0.000114
     2  C    0.000044  -0.000268   0.005553  -0.000003   0.000015   0.000324
     3  O    0.000451   0.000332  -0.113652   0.009148  -0.000153  -0.009229
     4  C   -0.060638  -0.061562   0.303185  -0.035264   0.008178   0.008176
     5  N   -0.043954  -0.036286  -0.092340   0.005891  -0.000007   0.000084
     6  C    0.447088  -0.004578  -0.069057  -0.000035  -0.000052   0.000012
     7  C    4.982888   0.431954  -0.005214   0.010626   0.000093  -0.000042
     8  C    0.431954   4.845560   0.445956  -0.041267   0.002421   0.002478
     9  C   -0.005214   0.445956   5.948288   0.035051  -0.202701  -0.127550
    10  C    0.010626  -0.041267   0.035051   4.805869   0.430616   0.769391
    11  C    0.000093   0.002421  -0.202701   0.430616   4.793902  -0.083394
    12  O   -0.000042   0.002478  -0.127550   0.769391  -0.083394   7.613858
    13  H    0.000109   0.000093   0.000441  -0.000075   0.000001   0.000010
    14  H    0.000001  -0.000001   0.000033  -0.000000   0.000000   0.000000
    15  H    0.000002  -0.000011  -0.000415   0.000090   0.000002   0.000066
    16  H    0.000003   0.000032   0.000420  -0.000182   0.000001   0.000178
    17  H    0.000077   0.000004   0.000103  -0.000001   0.000002  -0.000033
    18  H   -0.067203   0.006836   0.000929   0.000066  -0.000002  -0.000000
    19  H    0.422406  -0.050338   0.011236  -0.000090   0.000015   0.000001
    20  H   -0.051999   0.431509  -0.046676  -0.024536   0.013275   0.000066
    21  H    0.000399  -0.001315   0.005940  -0.013805   0.370248   0.001995
    22  H    0.000698   0.002709  -0.004454   0.002990   0.358746   0.001154
    23  H   -0.000023  -0.000099   0.015418  -0.011484   0.360501   0.009770
              13         14         15         16         17         18
     1  C    0.390557   0.378959   0.388664  -0.025319  -0.029746   0.000105
     2  C   -0.018749  -0.015627  -0.020042   0.388346   0.386288  -0.000014
     3  O   -0.004827   0.003708   0.001479  -0.025433  -0.025232  -0.000078
     4  C    0.004095   0.000190   0.000029   0.005035  -0.014076   0.004358
     5  N    0.011987  -0.000048   0.000412   0.000431   0.026893  -0.038856
     6  C    0.000372   0.000006   0.000001   0.000030   0.000506   0.422132
     7  C    0.000109   0.000001   0.000002   0.000003   0.000077  -0.067203
     8  C    0.000093  -0.000001  -0.000011   0.000032   0.000004   0.006836
     9  C    0.000441   0.000033  -0.000415   0.000420   0.000103   0.000929
    10  C   -0.000075  -0.000000   0.000090  -0.000182  -0.000001   0.000066
    11  C    0.000001   0.000000   0.000002   0.000001   0.000002  -0.000002
    12  O    0.000010   0.000000   0.000066   0.000178  -0.000033  -0.000000
    13  H    0.610379  -0.017577  -0.024098   0.006896  -0.010117  -0.000307
    14  H   -0.017577   0.629558  -0.017037  -0.003201  -0.000992  -0.000002
    15  H   -0.024098  -0.017037   0.617571  -0.009429   0.007651   0.000002
    16  H    0.006896  -0.003201  -0.009429   0.646249  -0.029801  -0.000006
    17  H   -0.010117  -0.000992   0.007651  -0.029801   0.647563  -0.000124
    18  H   -0.000307  -0.000002   0.000002  -0.000006  -0.000124   0.638422
    19  H   -0.000005  -0.000000  -0.000000  -0.000000  -0.000004  -0.005933
    20  H    0.000000   0.000000  -0.000000  -0.000000   0.000001  -0.000278
    21  H   -0.000000  -0.000000  -0.000000  -0.000000   0.000000   0.000000
    22  H   -0.000000   0.000000  -0.000000   0.000000   0.000000   0.000000
    23  H   -0.000000  -0.000000  -0.000000  -0.000000  -0.000000   0.000000
              19         20         21         22         23
     1  C    0.000001  -0.000000   0.000000   0.000000   0.000000
     2  C    0.000000   0.000008  -0.000001  -0.000000  -0.000000
     3  O    0.000013  -0.000058   0.000025   0.000001   0.000007
     4  C    0.000922   0.011070  -0.000151  -0.000212  -0.000087
     5  N    0.005257  -0.000089  -0.000009  -0.000003   0.000001
     6  C   -0.045745   0.009589  -0.000023  -0.000006   0.000002
     7  C    0.422406  -0.051999   0.000399   0.000698  -0.000023
     8  C   -0.050338   0.431509  -0.001315   0.002709  -0.000099
     9  C    0.011236  -0.046676   0.005940  -0.004454   0.015418
    10  C   -0.000090  -0.024536  -0.013805   0.002990  -0.011484
    11  C    0.000015   0.013275   0.370248   0.358746   0.360501
    12  O    0.000001   0.000066   0.001995   0.001154   0.009770
    13  H   -0.000005   0.000000  -0.000000  -0.000000  -0.000000
    14  H   -0.000000   0.000000  -0.000000   0.000000  -0.000000
    15  H   -0.000000  -0.000000  -0.000000  -0.000000  -0.000000
    16  H   -0.000000  -0.000000  -0.000000   0.000000  -0.000000
    17  H   -0.000004   0.000001   0.000000   0.000000  -0.000000
    18  H   -0.005933  -0.000278   0.000000   0.000000   0.000000
    19  H    0.644149  -0.010551  -0.000001  -0.000007  -0.000001
    20  H   -0.010551   0.640610   0.000220   0.001740  -0.000148
    21  H   -0.000001   0.000220   0.609376  -0.019083  -0.012699
    22  H   -0.000007   0.001740  -0.019083   0.603216  -0.009920
    23  H   -0.000001  -0.000148  -0.012699  -0.009920   0.586034
 Mulliken charges:
               1
     1  C   -0.103991
     2  C    0.156058
     3  O   -0.286192
     4  C    0.177757
     5  N   -0.183518
     6  C    0.059354
     7  C   -0.067692
     8  C    0.025826
     9  C   -0.109325
    10  C    0.057019
    11  C   -0.051704
    12  O   -0.187200
    13  H    0.050816
    14  H    0.042028
    15  H    0.055063
    16  H    0.045751
    17  H    0.041040
    18  H    0.039951
    19  H    0.028673
    20  H    0.026247
    21  H    0.058881
    22  H    0.062430
    23  H    0.062728
 Sum of Mulliken charges =  -0.00000
 Mulliken charges with hydrogens summed into heavy atoms:
               1
     1  C    0.043916
     2  C    0.242849
     3  O   -0.286192
     4  C    0.177757
     5  N   -0.183518
     6  C    0.099305
     7  C   -0.039018
     8  C    0.052073
     9  C   -0.109325
    10  C    0.057019
    11  C    0.132335
    12  O   -0.187200
 Electronic spatial extent (au):  <R**2>=           2178.0062
 Charge=              0.0000 electrons
 Dipole moment (field-independent basis, Debye):
    X=             -0.9684    Y=              2.8147    Z=             -0.0986  Tot=              2.9783
 Quadrupole moment (field-independent basis, Debye-Ang):
   XX=            -58.7792   YY=            -72.1993   ZZ=            -70.8741
   XY=             -4.6369   XZ=             -0.9846   YZ=              1.4331
 Traceless Quadrupole moment (field-independent basis, Debye-Ang):
   XX=              8.5050   YY=             -4.9151   ZZ=             -3.5899
   XY=             -4.6369   XZ=             -0.9846   YZ=              1.4331
 Octapole moment (field-independent basis, Debye-Ang**2):
  XXX=             -4.0993  YYY=             25.8207  ZZZ=             -2.0730  XYY=              5.8225
  XXY=            -12.8202  XXZ=             -1.4900  XZZ=              2.0208  YZZ=             -8.9133
  YYZ=             -0.8059  XYZ=             -0.3427
 Hexadecapole moment (field-independent basis, Debye-Ang**3):
 XXXX=          -1602.0188 YYYY=          -1001.9369 ZZZZ=           -144.4723 XXXY=            -14.6991
 XXXZ=            -19.7491 YYYX=            -14.4148 YYYZ=             10.7007 ZZZX=             -5.4909
 ZZZY=             -1.2256 XXYY=           -437.3544 XXZZ=           -305.9333 YYZZ=           -205.0029
 XXYZ=              8.1110 YYXZ=             -2.8680 ZZXY=              3.2079
 N-N= 6.919244498200D+02 E-N=-2.673487573197D+03  KE= 5.486805714832D+02
   1 Symmetry operations used in ECPInt.
 ECPInt:  NShTT=    5565 NPrTT=   20089 LenC2=    5402 LenP2D=   14545.
 LDataN:  DoStor=T MaxTD1= 5 Len=  102
 Calling FoFJK, ICntrl=      2127 FMM=F ISym2X=0 I1Cent= 0 IOpClX= 0 NMat=1 NMatS=1 NMatT=0.
 ***** Axes restored to original set *****
 -------------------------------------------------------------------
 Center     Atomic                   Forces (Hartrees/Bohr)
 Number     Number              X              Y              Z
 -------------------------------------------------------------------
      1        6           0.000003883    0.000001590    0.000000836
      2        6          -0.000003119   -0.000002511    0.000003854
      3        8          -0.000003225    0.000003516   -0.000004800
      4        6          -0.000000924   -0.000002424    0.000003819
      5        7           0.000001705   -0.000001701   -0.000003316
      6        6           0.000003284    0.000001410    0.000002306
      7        6          -0.000006335    0.000000558   -0.000001063
      8        6           0.000005794    0.000002417   -0.000001236
      9        6           0.000000566   -0.000005775   -0.000002334
     10        6          -0.000007965   -0.000003278    0.000004538
     11        6          -0.000000845   -0.000008142   -0.000004840
     12        8           0.000004666    0.000005748   -0.000000593
     13        1           0.000000459    0.000001023    0.000000177
     14        1          -0.000001838    0.000000066    0.000003153
     15        1           0.000000543   -0.000001251    0.000001331
     16        1           0.000000020    0.000000339    0.000001917
     17        1           0.000000825    0.000000653   -0.000001306
     18        1          -0.000000883    0.000001424   -0.000002230
     19        1           0.000002344   -0.000000372   -0.000001447
     20        1          -0.000001232   -0.000000451   -0.000000860
     21        1           0.000001104    0.000003656    0.000005240
     22        1           0.000002129    0.000002846   -0.000003866
     23        1          -0.000000954    0.000000659    0.000000719
 -------------------------------------------------------------------
 Cartesian Forces:  Max     0.000008142 RMS     0.000003016

 GradGradGradGradGradGradGradGradGradGradGradGradGradGradGradGradGradGrad
 Berny optimization.
 FormGI is forming the generalized inverse of G from B-inverse, IUseBI=4.
 Internal  Forces:  Max     0.000007329 RMS     0.000001783
 Search for a local minimum.
 Step number   1 out of a maximum of  115
 All quantities printed in internal units (Hartrees-Bohrs-Radians)
 Mixed Optimization -- En-DIIS/RFO-DIIS
 Second derivative matrix not updated -- first step.
 ITU=  0
     Eigenvalues ---    0.00499   0.00552   0.00597   0.00736   0.01368
     Eigenvalues ---    0.01564   0.01953   0.02163   0.02208   0.02210
     Eigenvalues ---    0.02218   0.02363   0.02527   0.02701   0.04975
     Eigenvalues ---    0.05703   0.05738   0.05824   0.07048   0.07418
     Eigenvalues ---    0.11757   0.13929   0.15999   0.16000   0.16000
     Eigenvalues ---    0.16000   0.16000   0.16000   0.16000   0.16000
     Eigenvalues ---    0.16000   0.22064   0.22084   0.23309   0.24907
     Eigenvalues ---    0.24994   0.24997   0.24999   0.25000   0.25000
     Eigenvalues ---    0.30353   0.30738   0.32139   0.33562   0.33660
     Eigenvalues ---    0.33675   0.33730   0.33732   0.33829   0.33869
     Eigenvalues ---    0.34101   0.34186   0.34665   0.34797   0.39880
     Eigenvalues ---    0.41793   0.44294   0.45376   0.47057   0.57342
     Eigenvalues ---    0.59087   0.61009   1.01242
 RFO step:  Lambda= 0.00000000D+00 EMin= 4.99498315D-03
 Linear search not attempted -- first point.
 Iteration  1 RMS(Cart)=  0.00009209 RMS(Int)=  0.00000001
 Iteration  2 RMS(Cart)=  0.00000001 RMS(Int)=  0.00000000
 Variable       Old X    -DE/DX   Delta X   Delta X   Delta X     New X
                                 (Linear)    (Quad)   (Total)
    R1        2.86515  -0.00000   0.00000  -0.00001  -0.00001   2.86514
    R2        2.07620   0.00000   0.00000   0.00000   0.00000   2.07620
    R3        2.07907   0.00000   0.00000   0.00001   0.00001   2.07908
    R4        2.07785   0.00000   0.00000   0.00000   0.00000   2.07786
    R5        2.69188  -0.00000   0.00000  -0.00000  -0.00000   2.69188
    R6        2.07551   0.00000   0.00000   0.00000   0.00000   2.07551
    R7        2.07788  -0.00000   0.00000  -0.00000  -0.00000   2.07788
    R8        2.50150  -0.00000   0.00000  -0.00000  -0.00000   2.50150
    R9        2.50674  -0.00000   0.00000  -0.00000  -0.00000   2.50674
   R10        2.69459   0.00000   0.00000   0.00000   0.00000   2.69459
   R11        2.51376   0.00000   0.00000   0.00000   0.00000   2.51376
   R12        2.62315  -0.00000   0.00000  -0.00001  -0.00001   2.62315
   R13        2.07017   0.00000   0.00000   0.00001   0.00001   2.07018
   R14        2.63388   0.00000   0.00000   0.00000   0.00000   2.63388
   R15        2.06006   0.00000   0.00000   0.00000   0.00000   2.06006
   R16        2.63603   0.00000   0.00000   0.00001   0.00001   2.63604
   R17        2.06222  -0.00000   0.00000  -0.00000  -0.00000   2.06221
   R18        2.83890  -0.00000   0.00000  -0.00001  -0.00001   2.83889
   R19        2.87265   0.00000   0.00000   0.00001   0.00001   2.87266
   R20        2.28145  -0.00001   0.00000  -0.00001  -0.00001   2.28145
   R21        2.07881   0.00001   0.00000   0.00002   0.00002   2.07883
   R22        2.08075   0.00001   0.00000   0.00002   0.00002   2.08077
   R23        2.07161  -0.00000   0.00000  -0.00000  -0.00000   2.07160
    A1        1.93189   0.00000   0.00000   0.00000   0.00000   1.93190
    A2        1.91681  -0.00000   0.00000  -0.00002  -0.00002   1.91679
    A3        1.92964  -0.00000   0.00000  -0.00001  -0.00001   1.92963
    A4        1.88972   0.00000   0.00000   0.00001   0.00001   1.88973
    A5        1.90243   0.00000   0.00000   0.00001   0.00001   1.90243
    A6        1.89244   0.00000   0.00000   0.00001   0.00001   1.89245
    A7        1.95345  -0.00000   0.00000  -0.00002  -0.00002   1.95343
    A8        1.93555   0.00000   0.00000   0.00002   0.00002   1.93556
    A9        1.93649  -0.00000   0.00000  -0.00001  -0.00001   1.93649
   A10        1.81710   0.00000   0.00000   0.00001   0.00001   1.81711
   A11        1.91470   0.00000   0.00000  -0.00001  -0.00001   1.91469
   A12        1.90259  -0.00000   0.00000   0.00001   0.00001   1.90260
   A13        2.09180   0.00000   0.00000   0.00000   0.00000   2.09180
   A14        2.07257  -0.00000   0.00000  -0.00001  -0.00001   2.07256
   A15        2.06888   0.00000   0.00000   0.00001   0.00001   2.06889
   A16        2.14146  -0.00000   0.00000  -0.00001  -0.00001   2.14145
   A17        2.08518   0.00000   0.00000   0.00001   0.00001   2.08519
   A18        2.15162  -0.00000   0.00000  -0.00001  -0.00001   2.15161
   A19        2.02677   0.00000   0.00000   0.00000   0.00000   2.02677
   A20        2.10480   0.00000   0.00000   0.00000   0.00000   2.10480
   A21        2.04730   0.00000   0.00000   0.00000   0.00000   2.04730
   A22        2.11378   0.00000   0.00000   0.00001   0.00001   2.11379
   A23        2.12210  -0.00000   0.00000  -0.00001  -0.00001   2.12208
   A24        2.11383  -0.00000   0.00000   0.00000   0.00000   2.11383
   A25        2.08035   0.00000   0.00000   0.00000   0.00000   2.08035
   A26        2.08896  -0.00000   0.00000  -0.00000  -0.00000   2.08896
   A27        2.02682  -0.00000   0.00000  -0.00000  -0.00000   2.02681
   A28        2.14267   0.00000   0.00000   0.00001   0.00001   2.14268
   A29        2.11359  -0.00000   0.00000  -0.00001  -0.00001   2.11358
   A30        2.04720  -0.00000   0.00000  -0.00001  -0.00001   2.04719
   A31        2.13865   0.00000   0.00000   0.00001   0.00001   2.13866
   A32        2.09728  -0.00000   0.00000  -0.00000  -0.00000   2.09728
   A33        1.95168  -0.00000   0.00000  -0.00002  -0.00002   1.95166
   A34        1.93470   0.00000   0.00000   0.00001   0.00001   1.93471
   A35        1.88462  -0.00000   0.00000   0.00000   0.00000   1.88462
   A36        1.88202  -0.00000   0.00000  -0.00000  -0.00000   1.88201
   A37        1.91484   0.00000   0.00000  -0.00000  -0.00000   1.91484
   A38        1.89538   0.00000   0.00000   0.00001   0.00001   1.89540
    D1       -1.15691   0.00000   0.00000   0.00003   0.00003  -1.15688
    D2        3.10542   0.00000   0.00000   0.00002   0.00002   3.10543
    D3        0.98826  -0.00000   0.00000  -0.00000  -0.00000   0.98826
    D4        3.04061   0.00000   0.00000   0.00003   0.00003   3.04064
    D5        1.01975   0.00000   0.00000   0.00002   0.00002   1.01976
    D6       -1.09741  -0.00000   0.00000  -0.00000  -0.00000  -1.09741
    D7        0.95298   0.00000   0.00000   0.00003   0.00003   0.95302
    D8       -1.06788   0.00000   0.00000   0.00002   0.00002  -1.06786
    D9        3.09815  -0.00000   0.00000   0.00000   0.00000   3.09816
   D10        1.42008  -0.00000   0.00000   0.00000   0.00000   1.42008
   D11       -2.77139   0.00000   0.00000   0.00002   0.00002  -2.77136
   D12       -0.73740   0.00000   0.00000   0.00004   0.00004  -0.73737
   D13        0.03231  -0.00000   0.00000  -0.00010  -0.00010   0.03220
   D14       -3.13378  -0.00000   0.00000  -0.00010  -0.00010  -3.13388
   D15        3.10797  -0.00000   0.00000  -0.00003  -0.00003   3.10794
   D16       -0.00806  -0.00000   0.00000  -0.00003  -0.00003  -0.00809
   D17       -3.09660   0.00000   0.00000   0.00002   0.00002  -3.09658
   D18        0.06072   0.00000   0.00000  -0.00000  -0.00000   0.06071
   D19        0.01948   0.00000   0.00000   0.00003   0.00003   0.01950
   D20       -3.10639   0.00000   0.00000   0.00000   0.00000  -3.10639
   D21       -0.00619   0.00000   0.00000   0.00002   0.00002  -0.00617
   D22        3.13493  -0.00000   0.00000  -0.00003  -0.00003   3.13490
   D23        0.00775  -0.00000   0.00000  -0.00001  -0.00001   0.00773
   D24       -3.13869  -0.00000   0.00000  -0.00001  -0.00001  -3.13870
   D25       -3.13335   0.00000   0.00000   0.00004   0.00004  -3.13331
   D26        0.00340   0.00000   0.00000   0.00004   0.00004   0.00344
   D27        0.00488   0.00000   0.00000   0.00001   0.00001   0.00489
   D28        3.13591  -0.00000   0.00000  -0.00000  -0.00000   3.13591
   D29       -3.13185   0.00000   0.00000   0.00001   0.00001  -3.13183
   D30       -0.00081   0.00000   0.00000   0.00000   0.00000  -0.00081
   D31       -0.01740  -0.00000   0.00000  -0.00002  -0.00002  -0.01742
   D32        3.10875   0.00000   0.00000   0.00001   0.00001   3.10876
   D33        3.13480  -0.00000   0.00000  -0.00001  -0.00001   3.13479
   D34       -0.02223   0.00000   0.00000   0.00002   0.00002  -0.02222
   D35       -2.92722   0.00000   0.00000   0.00001   0.00001  -2.92721
   D36        0.22474   0.00000   0.00000   0.00021   0.00021   0.22495
   D37        0.23086  -0.00000   0.00000  -0.00002  -0.00002   0.23084
   D38       -2.90037   0.00000   0.00000   0.00018   0.00018  -2.90019
   D39        0.91622   0.00000   0.00000   0.00014   0.00014   0.91636
   D40       -1.18452   0.00000   0.00000   0.00015   0.00015  -1.18437
   D41        3.02447  -0.00000   0.00000   0.00013   0.00013   3.02461
   D42       -2.23548  -0.00000   0.00000  -0.00005  -0.00005  -2.23553
   D43        1.94696   0.00000   0.00000  -0.00004  -0.00004   1.94692
   D44       -0.12723  -0.00000   0.00000  -0.00006  -0.00006  -0.12729
         Item               Value     Threshold  Converged?
 Maximum Force            0.000007     0.000450     YES
 RMS     Force            0.000002     0.000300     YES
 Maximum Displacement     0.000394     0.001800     YES
 RMS     Displacement     0.000092     0.001200     YES
 Predicted change in Energy=-1.393638D-09
 Optimization completed.
    -- Stationary point found.
                           ----------------------------
                           !   Optimized Parameters   !
                           ! (Angstroms and Degrees)  !
 --------------------------                            --------------------------
 ! Name  Definition              Value          Derivative Info.                !
 --------------------------------------------------------------------------------
 ! R1    R(1,2)                  1.5162         -DE/DX =    0.0                 !
 ! R2    R(1,13)                 1.0987         -DE/DX =    0.0                 !
 ! R3    R(1,14)                 1.1002         -DE/DX =    0.0                 !
 ! R4    R(1,15)                 1.0996         -DE/DX =    0.0                 !
 ! R5    R(2,3)                  1.4245         -DE/DX =    0.0                 !
 ! R6    R(2,16)                 1.0983         -DE/DX =    0.0                 !
 ! R7    R(2,17)                 1.0996         -DE/DX =    0.0                 !
 ! R8    R(3,4)                  1.3237         -DE/DX =    0.0                 !
 ! R9    R(4,5)                  1.3265         -DE/DX =    0.0                 !
 ! R10   R(4,9)                  1.4259         -DE/DX =    0.0                 !
 ! R11   R(5,6)                  1.3302         -DE/DX =    0.0                 !
 ! R12   R(6,7)                  1.3881         -DE/DX =    0.0                 !
 ! R13   R(6,18)                 1.0955         -DE/DX =    0.0                 !
 ! R14   R(7,8)                  1.3938         -DE/DX =    0.0                 !
 ! R15   R(7,19)                 1.0901         -DE/DX =    0.0                 !
 ! R16   R(8,9)                  1.3949         -DE/DX =    0.0                 !
 ! R17   R(8,20)                 1.0913         -DE/DX =    0.0                 !
 ! R18   R(9,10)                 1.5023         -DE/DX =    0.0                 !
 ! R19   R(10,11)                1.5201         -DE/DX =    0.0                 !
 ! R20   R(10,12)                1.2073         -DE/DX =    0.0                 !
 ! R21   R(11,21)                1.1001         -DE/DX =    0.0                 !
 ! R22   R(11,22)                1.1011         -DE/DX =    0.0                 !
 ! R23   R(11,23)                1.0962         -DE/DX =    0.0                 !
 ! A1    A(2,1,13)             110.6894         -DE/DX =    0.0                 !
 ! A2    A(2,1,14)             109.825          -DE/DX =    0.0                 !
 ! A3    A(2,1,15)             110.5603         -DE/DX =    0.0                 !
 ! A4    A(13,1,14)            108.2729         -DE/DX =    0.0                 !
 ! A5    A(13,1,15)            109.0011         -DE/DX =    0.0                 !
 ! A6    A(14,1,15)            108.4288         -DE/DX =    0.0                 !
 ! A7    A(1,2,3)              111.9244         -DE/DX =    0.0                 !
 ! A8    A(1,2,16)             110.8987         -DE/DX =    0.0                 !
 ! A9    A(1,2,17)             110.953          -DE/DX =    0.0                 !
 ! A10   A(3,2,16)             104.112          -DE/DX =    0.0                 !
 ! A11   A(3,2,17)             109.7043         -DE/DX =    0.0                 !
 ! A12   A(16,2,17)            109.0103         -DE/DX =    0.0                 !
 ! A13   A(2,3,4)              119.8513         -DE/DX =    0.0                 !
 ! A14   A(3,4,5)              118.7496         -DE/DX =    0.0                 !
 ! A15   A(3,4,9)              118.5381         -DE/DX =    0.0                 !
 ! A16   A(5,4,9)              122.6966         -DE/DX =    0.0                 !
 ! A17   A(4,5,6)              119.4717         -DE/DX =    0.0                 !
 ! A18   A(5,6,7)              123.2787         -DE/DX =    0.0                 !
 ! A19   A(5,6,18)             116.1253         -DE/DX =    0.0                 !
 ! A20   A(7,6,18)             120.596          -DE/DX =    0.0                 !
 ! A21   A(6,7,8)              117.3017         -DE/DX =    0.0                 !
 ! A22   A(6,7,19)             121.1104         -DE/DX =    0.0                 !
 ! A23   A(8,7,19)             121.5873         -DE/DX =    0.0                 !
 ! A24   A(7,8,9)              121.1133         -DE/DX =    0.0                 !
 ! A25   A(7,8,20)             119.1952         -DE/DX =    0.0                 !
 ! A26   A(9,8,20)             119.6888         -DE/DX =    0.0                 !
 ! A27   A(4,9,8)              116.128          -DE/DX =    0.0                 !
 ! A28   A(4,9,10)             122.7657         -DE/DX =    0.0                 !
 ! A29   A(8,9,10)             121.1            -DE/DX =    0.0                 !
 ! A30   A(9,10,11)            117.296          -DE/DX =    0.0                 !
 ! A31   A(9,10,12)            122.5358         -DE/DX =    0.0                 !
 ! A32   A(11,10,12)           120.1654         -DE/DX =    0.0                 !
 ! A33   A(10,11,21)           111.8228         -DE/DX =    0.0                 !
 ! A34   A(10,11,22)           110.8503         -DE/DX =    0.0                 !
 ! A35   A(10,11,23)           107.9808         -DE/DX =    0.0                 !
 ! A36   A(21,11,22)           107.8316         -DE/DX =    0.0                 !
 ! A37   A(21,11,23)           109.7124         -DE/DX =    0.0                 !
 ! A38   A(22,11,23)           108.5975         -DE/DX =    0.0                 !
 ! D1    D(13,1,2,3)           -66.2861         -DE/DX =    0.0                 !
 ! D2    D(13,1,2,16)          177.9272         -DE/DX =    0.0                 !
 ! D3    D(13,1,2,17)           56.6231         -DE/DX =    0.0                 !
 ! D4    D(14,1,2,3)           174.2139         -DE/DX =    0.0                 !
 ! D5    D(14,1,2,16)           58.4272         -DE/DX =    0.0                 !
 ! D6    D(14,1,2,17)          -62.8768         -DE/DX =    0.0                 !
 ! D7    D(15,1,2,3)            54.6018         -DE/DX =    0.0                 !
 ! D8    D(15,1,2,16)          -61.1849         -DE/DX =    0.0                 !
 ! D9    D(15,1,2,17)          177.511          -DE/DX =    0.0                 !
 ! D10   D(1,2,3,4)             81.3645         -DE/DX =    0.0                 !
 ! D11   D(16,2,3,4)          -158.7887         -DE/DX =    0.0                 !
 ! D12   D(17,2,3,4)           -42.25           -DE/DX =    0.0                 !
 ! D13   D(2,3,4,5)              1.851          -DE/DX =    0.0                 !
 ! D14   D(2,3,4,9)           -179.5523         -DE/DX =    0.0                 !
 ! D15   D(3,4,5,6)            178.0736         -DE/DX =    0.0                 !
 ! D16   D(9,4,5,6)             -0.4615         -DE/DX =    0.0                 !
 ! D17   D(3,4,9,8)           -177.4222         -DE/DX =    0.0                 !
 ! D18   D(3,4,9,10)             3.4788         -DE/DX =    0.0                 !
 ! D19   D(5,4,9,8)              1.1159         -DE/DX =    0.0                 !
 ! D20   D(5,4,9,10)          -177.9831         -DE/DX =    0.0                 !
 ! D21   D(4,5,6,7)             -0.3548         -DE/DX =    0.0                 !
 ! D22   D(4,5,6,18)           179.618          -DE/DX =    0.0                 !
 ! D23   D(5,6,7,8)              0.4438         -DE/DX =    0.0                 !
 ! D24   D(5,6,7,19)          -179.8337         -DE/DX =    0.0                 !
 ! D25   D(18,6,7,8)          -179.5279         -DE/DX =    0.0                 !
 ! D26   D(18,6,7,19)            0.1947         -DE/DX =    0.0                 !
 ! D27   D(6,7,8,9)              0.2797         -DE/DX =    0.0                 !
 ! D28   D(6,7,8,20)           179.6747         -DE/DX =    0.0                 !
 ! D29   D(19,7,8,9)          -179.4415         -DE/DX =    0.0                 !
 ! D30   D(19,7,8,20)           -0.0465         -DE/DX =    0.0                 !
 ! D31   D(7,8,9,4)             -0.9971         -DE/DX =    0.0                 !
 ! D32   D(7,8,9,10)           178.1181         -DE/DX =    0.0                 !
 ! D33   D(20,8,9,4)           179.6108         -DE/DX =    0.0                 !
 ! D34   D(20,8,9,10)           -1.2739         -DE/DX =    0.0                 !
 ! D35   D(4,9,10,11)         -167.7176         -DE/DX =    0.0                 !
 ! D36   D(4,9,10,12)           12.8765         -DE/DX =    0.0                 !
 ! D37   D(8,9,10,11)           13.227          -DE/DX =    0.0                 !
 ! D38   D(8,9,10,12)         -166.1788         -DE/DX =    0.0                 !
 ! D39   D(9,10,11,21)          52.4956         -DE/DX =    0.0                 !
 ! D40   D(9,10,11,22)         -67.8681         -DE/DX =    0.0                 !
 ! D41   D(9,10,11,23)         173.2896         -DE/DX =    0.0                 !
 ! D42   D(12,10,11,21)       -128.0838         -DE/DX =    0.0                 !
 ! D43   D(12,10,11,22)        111.5526         -DE/DX =    0.0                 !
 ! D44   D(12,10,11,23)         -7.2897         -DE/DX =    0.0                 !
 --------------------------------------------------------------------------------
 GradGradGradGradGradGradGradGradGradGradGradGradGradGradGradGradGradGrad

                          Input orientation:                          
 ---------------------------------------------------------------------
 Center     Atomic      Atomic             Coordinates (Angstroms)
 Number     Number       Type             X           Y           Z
 ---------------------------------------------------------------------
      1          6           0       -3.279420   -0.813420   -0.756350
      2          6           0       -2.541620   -0.903970    0.565100
      3          8           0       -1.129170   -0.941370    0.384180
      4          6           0       -0.460190    0.183660    0.186550
      5          7           0       -1.124660    1.331680    0.198990
      6          6           0       -0.461150    2.473650    0.040400
      7          6           0        0.914490    2.537390   -0.133980
      8          6           0        1.613510    1.331660   -0.149290
      9          6           0        0.951570    0.112790   -0.000920
     10          6           0        1.699680   -1.188660   -0.059290
     11          6           0        3.216170   -1.125410    0.024920
     12          8           0        1.142590   -2.253040   -0.178880
     13          1           0       -3.076540    0.147350   -1.249150
     14          1           0       -4.363360   -0.890900   -0.584580
     15          1           0       -2.974280   -1.630600   -1.425770
     16          1           0       -2.770980   -1.847690    1.078010
     17          1           0       -2.809010   -0.064540    1.223060
     18          1           0       -1.064520    3.387910    0.053260
     19          1           0        1.422800    3.493730   -0.258200
     20          1           0        2.695620    1.345460   -0.289770
     21          1           0        3.553510   -0.549410    0.899310
     22          1           0        3.639210   -0.651700   -0.874540
     23          1           0        3.594600   -2.152200    0.090120
 ---------------------------------------------------------------------
                    Distance matrix (angstroms):
                    1          2          3          4          5
     1  C    0.000000
     2  C    1.516172   0.000000
     3  O    2.437366   1.424481   0.000000
     4  C    3.135488   2.378779   1.323739   0.000000
     5  N    3.187024   2.672067   2.280586   1.326509   0.000000
     6  C    4.402532   4.001498   3.496684   2.294649   1.330222
     7  C    5.404087   4.927105   4.067777   2.744545   2.392225
     8  C    5.376863   4.772159   3.601881   2.393935   2.760231
     9  C    4.396569   3.681923   2.364114   1.425915   2.415862
    10  C    5.041640   4.296456   2.874058   2.570747   3.794169
    11  C    6.549840   5.787312   4.364048   3.905818   4.991032
    12  O    4.686166   3.993357   2.682985   2.939379   4.258336
    13  H    1.098677   2.164005   2.765019   2.984601   2.703624
    14  H    1.100197   2.154222   3.376541   4.121172   4.005374
    15  H    1.099553   2.163042   2.674956   3.494533   3.851758
    16  H    2.166357   1.098312   1.999589   3.203254   3.686657
    17  H    2.167988   1.099569   2.072297   2.579324   2.415613
    18  H    4.817927   4.567717   4.342390   3.263464   2.062265
    19  H    6.396137   5.977810   5.157065   3.834060   3.372393
    20  H    6.370209   5.763629   4.506974   3.396439   3.851443
    21  H    7.035613   6.114574   4.727207   4.141884   5.090601
    22  H    6.921529   6.351288   4.940216   4.316112   5.270742
    23  H    7.054147   6.279879   4.885344   4.680477   5.866915
                    6          7          8          9         10
     6  C    0.000000
     7  C    1.388113   0.000000
     8  C    2.375781   1.393789   0.000000
     9  C    2.751571   2.428531   1.394927   0.000000
    10  C    4.253427   3.808615   2.523398   1.502281   0.000000
    11  C    5.145499   4.328866   2.938718   2.581128   1.520143
    12  O    4.996165   4.796068   3.615621   2.380191   1.207293
    13  H    3.730265   4.783745   4.960731   4.217220   5.100291
    14  H    5.190187   6.309668   6.391575   5.440270   6.093032
    15  H    5.030939   5.844946   5.608226   4.525694   4.889630
    16  H    5.008585   5.854958   5.553223   4.343380   4.659890
    17  H    3.654250   4.740891   4.836466   3.958729   4.820410
    18  H    1.095487   2.162157   3.382460   3.846292   5.347753
    19  H    2.163098   1.090136   2.173195   3.423303   4.694785
    20  H    3.368534   2.148812   1.091278   2.155138   2.732541
    21  H    5.098442   4.190519   2.898549   2.831786   2.182714
    22  H    5.236209   4.259439   2.926289   2.927638   2.171344
    23  H    6.152241   5.406058   4.014887   3.481964   2.131069
                   11         12         13         14         15
    11  C    0.000000
    12  O    2.369139   0.000000
    13  H    6.545332   4.970755   0.000000
    14  H    7.607612   5.686432   1.781999   0.000000
    15  H    6.378196   4.346353   1.789625   1.784461   0.000000
    16  H    6.121818   4.130389   3.080459   2.493056   2.521383
    17  H    6.234082   4.729705   2.495655   2.523180   3.081584
    18  H    6.220544   6.061810   4.030599   5.440349   5.569574
    19  H    4.963143   5.754144   5.694234   7.267128   6.852466
    20  H    2.544642   3.920893   5.972747   7.410629   6.503476
    21  H    1.100060   3.142831   7.004207   8.061971   7.013345
    22  H    1.101087   3.046530   6.773486   8.011393   6.708230
    23  H    1.096247   2.468782   7.182317   8.085495   6.761669
                   16         17         18         19         20
    16  H    0.000000
    17  H    1.789444   0.000000
    18  H    5.601216   4.041174   0.000000
    19  H    6.921273   5.723953   2.508977   0.000000
    20  H    6.476939   5.880281   4.292776   2.497225   0.000000
    21  H    6.458842   6.389176   6.127356   4.714524   2.395917
    22  H    6.806863   6.806190   6.269317   4.740985   2.284943
    23  H    6.448974   6.829941   7.238893   6.059255   3.631268
                   21         22         23
    21  H    0.000000
    22  H    1.778862   0.000000
    23  H    1.795943   1.784393   0.000000
 Stoichiometry    C9H11NO2
 Framework group  C1[X(C9H11NO2)]
 Deg. of freedom    63
 Full point group                 C1      NOp   1
 Largest Abelian subgroup         C1      NOp   1
 Largest concise Abelian subgroup C1      NOp   1
                         Standard orientation:                         
 ---------------------------------------------------------------------
 Center     Atomic      Atomic             Coordinates (Angstroms)
 Number     Number       Type             X           Y           Z
 ---------------------------------------------------------------------
      1          6           0        3.279419   -0.813424    0.756349
      2          6           0        2.541619   -0.903973   -0.565101
      3          8           0        1.129169   -0.941372   -0.384181
      4          6           0        0.460191    0.183659   -0.186551
      5          7           0        1.124662    1.331678   -0.198991
      6          6           0        0.461153    2.473649   -0.040401
      7          6           0       -0.914487    2.537391    0.133979
      8          6           0       -1.613508    1.331661    0.149289
      9          6           0       -0.951570    0.112791    0.000919
     10          6           0       -1.699681   -1.188658    0.059289
     11          6           0       -3.216171   -1.125407   -0.024921
     12          8           0       -1.142592   -2.253039    0.178879
     13          1           0        3.076541    0.147346    1.249149
     14          1           0        4.363359   -0.890905    0.584579
     15          1           0        2.974279   -1.630604    1.425769
     16          1           0        2.770978   -1.847693   -1.078011
     17          1           0        2.809010   -0.064543   -1.223061
     18          1           0        1.064524    3.387908   -0.053261
     19          1           0       -1.422796    3.493731    0.258199
     20          1           0       -2.695618    1.345463    0.289769
     21          1           0       -3.553510   -0.549406   -0.899311
     22          1           0       -3.639210   -0.651696    0.874539
     23          1           0       -3.594602   -2.152196   -0.090121
 ---------------------------------------------------------------------
 Rotational constants (GHZ):           1.2512017           0.8309766           0.5236117
 Unable to Open any file for archive entry.
 1\1\GINC-NOTCH346\FOpt\RwB97XD\def2SVP\C9H11N1O2\U6053008\12-Jul-2024\
 0\\#N OPT FREQ=NORAMAN Integral(Ultrafine) wB97XD def2SVP\\12326827_3\
 \0,1\C,-3.27942,-0.81342,-0.75635\C,-2.54162,-0.90397,0.5651\O,-1.1291
 7,-0.94137,0.38418\C,-0.46019,0.18366,0.18655\N,-1.12466,1.33168,0.198
 99\C,-0.46115,2.47365,0.0404\C,0.91449,2.53739,-0.13398\C,1.61351,1.33
 166,-0.14929\C,0.95157,0.11279,-0.00092\C,1.69968,-1.18866,-0.05929\C,
 3.21617,-1.12541,0.02492\O,1.14259,-2.25304,-0.17888\H,-3.07654,0.1473
 5,-1.24915\H,-4.36336,-0.8909,-0.58458\H,-2.97428,-1.6306,-1.42577\H,-
 2.77098,-1.84769,1.07801\H,-2.80901,-0.06454,1.22306\H,-1.06452,3.3879
 1,0.05326\H,1.4228,3.49373,-0.2582\H,2.69562,1.34546,-0.28977\H,3.5535
 1,-0.54941,0.89931\H,3.63921,-0.6517,-0.87454\H,3.5946,-2.1522,0.09012
 \\Version=ES64L-G16RevC.01\State=1-A\HF=-554.194398\RMSD=6.299e-09\RMS
 F=3.016e-06\Dipole=0.3810174,1.107395,0.0388117\Quadrupole=6.3232598,-
 3.654272,-2.6689878,3.4474317,-0.7320088,-1.0655096\PG=C01 [X(C9H11N1O
 2)]\\@
 The archive entry for this job was punched.


 I WOULD TAKE COUNSEL OF MYSELF.
 I WOULD STOP AND LOOK WITHIN
 AND LOOKING WITHIN, LOOK BACK, ALSO
 THAT I MAY LOOK AHEAD WITH CLEARER UNDERSTANDING
 OF THE WAY I HAVE BEEN MOVING, AND IN WHAT DIRECTION.
 I NEED TO KNOW IF I AM GOING FORWARD OR RETREATING,
 WHETHER I HAVE BEEN WASTING, OR ENJOYING
 THE PRECIOUS MOMENTS OF LIFE.  THERE HAVE BEEN FRICTIONS,
 ANNOYANCES AND SOMETIMES WRATH,
 BUT WERE THEY BECAUSE I WAS RIGHT AND OTHERS WRONG.....
 HAVE I HAD MY THOUGHTS TOO SHARPLY FOCUSED
 ON THAT WHICH PLEASED ME, SERVED MY SELF-ESTEEM,
 UNDERGIRDED MY SECURITY,
 OF WHICH I DID NOT INQUIRE WHETHER IT SERVED OR HAMPERED OTHERS.....
 HAVE I BEEN TRYING TO STOP THE CLOCK
 TO HOLD THE WORLD
 IN PERPETUATION OF WHAT WAS AN IS ALREADY SLIPPING AWAY.....
 HAVE I BEEN CRITICAL OF OTHERS FOR WHAT REALLY NEEDED CHANGING IN ME...
 LET ME INDEED TAKE COUNSEL OF MYSELF
 AND SET MY DIRECTIONS STRAIGHT.

                          R.T. WESTON AS ADAPTED BY D. OSBORN 1967
 Job cpu time:       0 days  0 hours 12 minutes  2.5 seconds.
 Elapsed time:       0 days  0 hours  0 minutes 46.9 seconds.
 File lengths (MBytes):  RWF=     46 Int=      0 D2E=      0 Chk=      6 Scr=      2
 Normal termination of Gaussian 16 at Fri Jul 12 13:09:29 2024.
 Link1:  Proceeding to internal job step number  2.
 --------------------------------------------------------------------
 #N Geom=AllCheck Guess=TCheck SCRF=Check GenChk RwB97XD/def2SVP Freq
 --------------------------------------------------------------------
 1/10=4,29=7,30=1,38=1,40=1/1,3;
 2/12=2,40=1/2;
 3/5=43,7=101,11=2,14=-4,25=1,30=1,70=2,71=2,74=-58,75=-5,116=1,140=1/1,2,3;
 4/5=101/1;
 5/5=2,38=6,98=1/2;
 8/6=4,10=90,11=11/1;
 11/6=1,8=1,9=11,15=111,16=1/1,2,10;
 10/6=1/2;
 6/7=2,8=2,9=2,10=2,28=1/1;
 7/8=1,10=1,25=1/1,2,3,16;
 1/10=4,30=1/3;
 99//99;
 Structure from the checkpoint file:  "12326827_3.chk"
 ----------
 12326827_3
 ----------
 Charge =  0 Multiplicity = 1
 Redundant internal coordinates found in file.  (old form).
 C,0,-3.27942,-0.81342,-0.75635
 C,0,-2.54162,-0.90397,0.5651
 O,0,-1.12917,-0.94137,0.38418
 C,0,-0.46019,0.18366,0.18655
 N,0,-1.12466,1.33168,0.19899
 C,0,-0.46115,2.47365,0.0404
 C,0,0.91449,2.53739,-0.13398
 C,0,1.61351,1.33166,-0.14929
 C,0,0.95157,0.11279,-0.00092
 C,0,1.69968,-1.18866,-0.05929
 C,0,3.21617,-1.12541,0.02492
 O,0,1.14259,-2.25304,-0.17888
 H,0,-3.07654,0.14735,-1.24915
 H,0,-4.36336,-0.8909,-0.58458
 H,0,-2.97428,-1.6306,-1.42577
 H,0,-2.77098,-1.84769,1.07801
 H,0,-2.80901,-0.06454,1.22306
 H,0,-1.06452,3.38791,0.05326
 H,0,1.4228,3.49373,-0.2582
 H,0,2.69562,1.34546,-0.28977
 H,0,3.55351,-0.54941,0.89931
 H,0,3.63921,-0.6517,-0.87454
 H,0,3.5946,-2.1522,0.09012
 Recover connectivity data from disk.

 GradGradGradGradGradGradGradGradGradGradGradGradGradGradGradGradGradGrad
 Berny optimization.
 Initialization pass.
                           ----------------------------
                           !    Initial Parameters    !
                           ! (Angstroms and Degrees)  !
 --------------------------                            --------------------------
 ! Name  Definition              Value          Derivative Info.                !
 --------------------------------------------------------------------------------
 ! R1    R(1,2)                  1.5162         calculate D2E/DX2 analytically  !
 ! R2    R(1,13)                 1.0987         calculate D2E/DX2 analytically  !
 ! R3    R(1,14)                 1.1002         calculate D2E/DX2 analytically  !
 ! R4    R(1,15)                 1.0996         calculate D2E/DX2 analytically  !
 ! R5    R(2,3)                  1.4245         calculate D2E/DX2 analytically  !
 ! R6    R(2,16)                 1.0983         calculate D2E/DX2 analytically  !
 ! R7    R(2,17)                 1.0996         calculate D2E/DX2 analytically  !
 ! R8    R(3,4)                  1.3237         calculate D2E/DX2 analytically  !
 ! R9    R(4,5)                  1.3265         calculate D2E/DX2 analytically  !
 ! R10   R(4,9)                  1.4259         calculate D2E/DX2 analytically  !
 ! R11   R(5,6)                  1.3302         calculate D2E/DX2 analytically  !
 ! R12   R(6,7)                  1.3881         calculate D2E/DX2 analytically  !
 ! R13   R(6,18)                 1.0955         calculate D2E/DX2 analytically  !
 ! R14   R(7,8)                  1.3938         calculate D2E/DX2 analytically  !
 ! R15   R(7,19)                 1.0901         calculate D2E/DX2 analytically  !
 ! R16   R(8,9)                  1.3949         calculate D2E/DX2 analytically  !
 ! R17   R(8,20)                 1.0913         calculate D2E/DX2 analytically  !
 ! R18   R(9,10)                 1.5023         calculate D2E/DX2 analytically  !
 ! R19   R(10,11)                1.5201         calculate D2E/DX2 analytically  !
 ! R20   R(10,12)                1.2073         calculate D2E/DX2 analytically  !
 ! R21   R(11,21)                1.1001         calculate D2E/DX2 analytically  !
 ! R22   R(11,22)                1.1011         calculate D2E/DX2 analytically  !
 ! R23   R(11,23)                1.0962         calculate D2E/DX2 analytically  !
 ! A1    A(2,1,13)             110.6894         calculate D2E/DX2 analytically  !
 ! A2    A(2,1,14)             109.825          calculate D2E/DX2 analytically  !
 ! A3    A(2,1,15)             110.5603         calculate D2E/DX2 analytically  !
 ! A4    A(13,1,14)            108.2729         calculate D2E/DX2 analytically  !
 ! A5    A(13,1,15)            109.0011         calculate D2E/DX2 analytically  !
 ! A6    A(14,1,15)            108.4288         calculate D2E/DX2 analytically  !
 ! A7    A(1,2,3)              111.9244         calculate D2E/DX2 analytically  !
 ! A8    A(1,2,16)             110.8987         calculate D2E/DX2 analytically  !
 ! A9    A(1,2,17)             110.953          calculate D2E/DX2 analytically  !
 ! A10   A(3,2,16)             104.112          calculate D2E/DX2 analytically  !
 ! A11   A(3,2,17)             109.7043         calculate D2E/DX2 analytically  !
 ! A12   A(16,2,17)            109.0103         calculate D2E/DX2 analytically  !
 ! A13   A(2,3,4)              119.8513         calculate D2E/DX2 analytically  !
 ! A14   A(3,4,5)              118.7496         calculate D2E/DX2 analytically  !
 ! A15   A(3,4,9)              118.5381         calculate D2E/DX2 analytically  !
 ! A16   A(5,4,9)              122.6966         calculate D2E/DX2 analytically  !
 ! A17   A(4,5,6)              119.4717         calculate D2E/DX2 analytically  !
 ! A18   A(5,6,7)              123.2787         calculate D2E/DX2 analytically  !
 ! A19   A(5,6,18)             116.1253         calculate D2E/DX2 analytically  !
 ! A20   A(7,6,18)             120.596          calculate D2E/DX2 analytically  !
 ! A21   A(6,7,8)              117.3017         calculate D2E/DX2 analytically  !
 ! A22   A(6,7,19)             121.1104         calculate D2E/DX2 analytically  !
 ! A23   A(8,7,19)             121.5873         calculate D2E/DX2 analytically  !
 ! A24   A(7,8,9)              121.1133         calculate D2E/DX2 analytically  !
 ! A25   A(7,8,20)             119.1952         calculate D2E/DX2 analytically  !
 ! A26   A(9,8,20)             119.6888         calculate D2E/DX2 analytically  !
 ! A27   A(4,9,8)              116.128          calculate D2E/DX2 analytically  !
 ! A28   A(4,9,10)             122.7657         calculate D2E/DX2 analytically  !
 ! A29   A(8,9,10)             121.1            calculate D2E/DX2 analytically  !
 ! A30   A(9,10,11)            117.296          calculate D2E/DX2 analytically  !
 ! A31   A(9,10,12)            122.5358         calculate D2E/DX2 analytically  !
 ! A32   A(11,10,12)           120.1654         calculate D2E/DX2 analytically  !
 ! A33   A(10,11,21)           111.8228         calculate D2E/DX2 analytically  !
 ! A34   A(10,11,22)           110.8503         calculate D2E/DX2 analytically  !
 ! A35   A(10,11,23)           107.9808         calculate D2E/DX2 analytically  !
 ! A36   A(21,11,22)           107.8316         calculate D2E/DX2 analytically  !
 ! A37   A(21,11,23)           109.7124         calculate D2E/DX2 analytically  !
 ! A38   A(22,11,23)           108.5975         calculate D2E/DX2 analytically  !
 ! D1    D(13,1,2,3)           -66.2861         calculate D2E/DX2 analytically  !
 ! D2    D(13,1,2,16)          177.9272         calculate D2E/DX2 analytically  !
 ! D3    D(13,1,2,17)           56.6231         calculate D2E/DX2 analytically  !
 ! D4    D(14,1,2,3)           174.2139         calculate D2E/DX2 analytically  !
[...]
 Alpha virt. eigenvalues --    1.43637   1.44687   1.46315   1.46767   1.51155
 Alpha virt. eigenvalues --    1.52727   1.55634   1.56834   1.57706   1.58486
 Alpha virt. eigenvalues --    1.59886   1.59916   1.59978   1.60861   1.61121
 Alpha virt. eigenvalues --    1.62696   1.63936   1.65618   1.66173   1.67728
 Alpha virt. eigenvalues --    1.67887   1.70069   1.70671   1.70863   1.72590
 Alpha virt. eigenvalues --    1.74676   1.77422   1.77656   1.79458   1.80872
 Alpha virt. eigenvalues --    1.82386   1.83709   1.87232   1.88058   1.89992
 Alpha virt. eigenvalues --    1.91412   1.91590   1.94250   1.94563   1.96017
 Alpha virt. eigenvalues --    1.97194   1.97908   2.00137   2.02460   2.03747
 Alpha virt. eigenvalues --    2.04279   2.05590   2.06107   2.08039   2.09426
 Alpha virt. eigenvalues --    2.09899   2.14635   2.16844   2.19851   2.20498
 Alpha virt. eigenvalues --    2.22458   2.23333   2.25178   2.28186   2.29651
 Alpha virt. eigenvalues --    2.31254   2.32695   2.34125   2.36960   2.37356
 Alpha virt. eigenvalues --    2.38655   2.41143   2.41684   2.42607   2.43378
 Alpha virt. eigenvalues --    2.44329   2.46537   2.47489   2.48840   2.50066
 Alpha virt. eigenvalues --    2.51736   2.54425   2.55688   2.55912   2.57524
 Alpha virt. eigenvalues --    2.58835   2.60059   2.62825   2.63176   2.65380
 Alpha virt. eigenvalues --    2.65872   2.67594   2.68593   2.68601   2.70040
 Alpha virt. eigenvalues --    2.71792   2.73973   2.74605   2.75508   2.77108
 Alpha virt. eigenvalues --    2.77741   2.78551   2.80767   2.84587   2.85465
 Alpha virt. eigenvalues --    2.86325   2.87768   2.88360   2.90984   2.91131
 Alpha virt. eigenvalues --    2.91841   2.93720   2.96317   2.96730   3.00130
 Alpha virt. eigenvalues --    3.00749   3.02713   3.04032   3.05486   3.05943
 Alpha virt. eigenvalues --    3.06589   3.08121   3.09912   3.11263   3.12402
 Alpha virt. eigenvalues --    3.14337   3.15412   3.16842   3.17374   3.17875
 Alpha virt. eigenvalues --    3.18477   3.19462   3.22027   3.22584   3.23651
 Alpha virt. eigenvalues --    3.24007   3.24642   3.26402   3.28194   3.29372
 Alpha virt. eigenvalues --    3.29774   3.31877   3.32788   3.34534   3.34842
 Alpha virt. eigenvalues --    3.36301   3.36616   3.37971   3.39344   3.40724
 Alpha virt. eigenvalues --    3.42753   3.43176   3.43467   3.45333   3.46428
 Alpha virt. eigenvalues --    3.46908   3.49549   3.50772   3.51050   3.53404
 Alpha virt. eigenvalues --    3.54131   3.55508   3.56530   3.57687   3.59887
 Alpha virt. eigenvalues --    3.60861   3.63636   3.63963   3.65809   3.67212
 Alpha virt. eigenvalues --    3.69251   3.71956   3.74758   3.77643   3.80443
 Alpha virt. eigenvalues --    3.81745   3.85248   3.85638   3.86550   3.88063
 Alpha virt. eigenvalues --    3.91870   3.93828   3.96097   3.97618   3.98906
 Alpha virt. eigenvalues --    4.00504   4.02554   4.04144   4.06273   4.07366
 Alpha virt. eigenvalues --    4.08759   4.13240   4.16509   4.21664   4.22500
 Alpha virt. eigenvalues --    4.23553   4.27079   4.27648   4.32829   4.36066
 Alpha virt. eigenvalues --    4.39261   4.41076   4.42525   4.43871   4.45563
 Alpha virt. eigenvalues --    4.46581   4.48325   4.50879   4.51947   4.52988
 Alpha virt. eigenvalues --    4.57114   4.59411   4.61941   4.63257   4.67358
 Alpha virt. eigenvalues --    4.70185   4.76077   4.81877   4.83650   4.85791
 Alpha virt. eigenvalues --    4.94319   4.96488   4.98114   5.00883   5.02691
 Alpha virt. eigenvalues --    5.09920   5.16801   5.18909   5.26401   5.29993
 Alpha virt. eigenvalues --    5.31928   5.33827   5.34729   5.35829   5.47935
 Alpha virt. eigenvalues --    5.49682   5.50958   5.56428   5.69222   5.75714
 Alpha virt. eigenvalues --    5.81017   5.83810   5.88363   5.93924   5.98963
 Alpha virt. eigenvalues --    6.06528   6.17302   6.25042   6.43985   6.49986
 Alpha virt. eigenvalues --    6.50231   6.66200   6.72380   6.75085   6.91091
 Alpha virt. eigenvalues --    6.91664   6.94857   7.03691   7.17621   7.19397
 Alpha virt. eigenvalues --    7.31905   7.55916  22.42249  22.46753  22.52096
 Alpha virt. eigenvalues --   22.60944  22.73999  22.91312  23.09694  23.25317
 Alpha virt. eigenvalues --   23.54093  32.67596  44.02746  44.44818
          Condensed to atoms (all electrons):
               1          2          3          4          5          6
     1  C    4.964125   0.323816  -0.041246   0.001931  -0.008576  -0.000506
     2  C    0.323816   4.783992   0.224950  -0.028138  -0.019073  -0.001581
     3  O   -0.041246   0.224950   7.886188   0.422168  -0.082410   0.000083
     4  C    0.001931  -0.028138   0.422168   4.702115   0.428952  -0.080290
     5  N   -0.008576  -0.019073  -0.082410   0.428952   6.640645   0.542344
     6  C   -0.000506  -0.001581   0.000083  -0.080290   0.542344   4.688713
     7  C    0.000032  -0.000048   0.001612  -0.033364  -0.062933   0.516106
     8  C    0.000180  -0.001234   0.000204  -0.057519  -0.033560   0.001223
     9  C    0.003197   0.000480  -0.105622   0.333852  -0.069990  -0.037568
    10  C   -0.000432   0.000110   0.006801  -0.062784   0.002219   0.000739
    11  C   -0.000050   0.000066  -0.000787   0.013558  -0.000457   0.000351
    12  O   -0.000775   0.001800  -0.019392   0.005780  -0.000478   0.000370
    13  H    0.417798  -0.045504  -0.001902   0.002413   0.007633   0.000470
    14  H    0.393478  -0.033165   0.004497   0.000386   0.000490   0.000050
    15  H    0.400413  -0.031184   0.003605  -0.002082   0.000774   0.000080
    16  H   -0.028637   0.397705  -0.035000   0.002789   0.001157   0.000061
    17  H   -0.045006   0.419299  -0.028684  -0.021978   0.023515   0.001492
    18  H    0.000142   0.000075  -0.000080   0.005931  -0.032592   0.429522
    19  H    0.000005  -0.000002   0.000036  -0.000783   0.006215  -0.034970
    20  H   -0.000003   0.000028  -0.000102   0.007082  -0.000773   0.003711
    21  H    0.000001   0.000000   0.000105  -0.002283   0.000003  -0.000009
    22  H    0.000002  -0.000004   0.000006  -0.000269   0.000009  -0.000033
    23  H    0.000001   0.000002   0.000037  -0.000172   0.000010  -0.000013
               7          8          9         10         11         12
     1  C    0.000032   0.000180   0.003197  -0.000432  -0.000050  -0.000775
     2  C   -0.000048  -0.001234   0.000480   0.000110   0.000066   0.001800
     3  O    0.001612   0.000204  -0.105622   0.006801  -0.000787  -0.019392
     4  C   -0.033364  -0.057519   0.333852  -0.062784   0.013558   0.005780
     5  N   -0.062933  -0.033560  -0.069990   0.002219  -0.000457  -0.000478
     6  C    0.516106   0.001223  -0.037568   0.000739   0.000351   0.000370
     7  C    4.956902   0.479164  -0.034217   0.003728  -0.002261  -0.000314
     8  C    0.479164   4.990773   0.403158  -0.015404   0.009186   0.005456
     9  C   -0.034217   0.403158   5.868199   0.024673  -0.214430  -0.140820
    10  C    0.003728  -0.015404   0.024673   4.876483   0.372844   0.694562
    11  C   -0.002261   0.009186  -0.214430   0.372844   5.130557  -0.086122
    12  O   -0.000314   0.005456  -0.140820   0.694562  -0.086122   7.828376
    13  H    0.000281  -0.000093   0.003014  -0.000021   0.000006   0.000035
    14  H    0.000005  -0.000006  -0.000113   0.000008   0.000000   0.000005
    15  H   -0.000021   0.000005  -0.002469   0.000173   0.000015   0.000300
    16  H    0.000037   0.000060   0.003134  -0.000370   0.000008   0.000127
    17  H   -0.000198   0.000117  -0.006989   0.000053   0.000025  -0.000036
    18  H   -0.070918   0.005514  -0.000778   0.000071  -0.000011  -0.000001
    19  H    0.422607  -0.052782   0.009029   0.000040  -0.000008   0.000001
    20  H   -0.024446   0.422113  -0.052760  -0.009286   0.005754   0.000123
    21  H   -0.000015  -0.007156   0.026057  -0.048926   0.394698   0.002857
    22  H    0.001297   0.002191   0.000341  -0.017626   0.371612   0.001538
    23  H    0.000045  -0.001123   0.015638  -0.039732   0.394206   0.008699
              13         14         15         16         17         18
     1  C    0.417798   0.393478   0.400413  -0.028637  -0.045006   0.000142
     2  C   -0.045504  -0.033165  -0.031184   0.397705   0.419299   0.000075
     3  O   -0.001902   0.004497   0.003605  -0.035000  -0.028684  -0.000080
     4  C    0.002413   0.000386  -0.002082   0.002789  -0.021978   0.005931
     5  N    0.007633   0.000490   0.000774   0.001157   0.023515  -0.032592
     6  C    0.000470   0.000050   0.000080   0.000061   0.001492   0.429522
     7  C    0.000281   0.000005  -0.000021   0.000037  -0.000198  -0.070918
     8  C   -0.000093  -0.000006   0.000005   0.000060   0.000117   0.005514
     9  C    0.003014  -0.000113  -0.002469   0.003134  -0.006989  -0.000778
    10  C   -0.000021   0.000008   0.000173  -0.000370   0.000053   0.000071
    11  C    0.000006   0.000000   0.000015   0.000008   0.000025  -0.000011
    12  O    0.000035   0.000005   0.000300   0.000127  -0.000036  -0.000001
    13  H    0.525875  -0.021167  -0.023601   0.005106  -0.005073  -0.000232
    14  H   -0.021167   0.561593  -0.018669  -0.002635   0.001272  -0.000002
    15  H   -0.023601  -0.018669   0.546007  -0.005147   0.006934  -0.000000
    16  H    0.005106  -0.002635  -0.005147   0.575753  -0.032869  -0.000014
    17  H   -0.005073   0.001272   0.006934  -0.032869   0.584085  -0.000106
    18  H   -0.000232  -0.000002  -0.000000  -0.000014  -0.000106   0.535753
    19  H   -0.000006  -0.000000  -0.000000  -0.000000  -0.000008  -0.001712
    20  H   -0.000001   0.000000   0.000000  -0.000000   0.000005  -0.000235
    21  H   -0.000000  -0.000000  -0.000000  -0.000001  -0.000001   0.000002
    22  H   -0.000000   0.000000  -0.000000   0.000000   0.000000   0.000000
    23  H   -0.000000  -0.000000  -0.000000  -0.000000  -0.000000   0.000000
              19         20         21         22         23
     1  C    0.000005  -0.000003   0.000001   0.000002   0.000001
     2  C   -0.000002   0.000028   0.000000  -0.000004   0.000002
     3  O    0.000036  -0.000102   0.000105   0.000006   0.000037
     4  C   -0.000783   0.007082  -0.002283  -0.000269  -0.000172
     5  N    0.006215  -0.000773   0.000003   0.000009   0.000010
     6  C   -0.034970   0.003711  -0.000009  -0.000033  -0.000013
     7  C    0.422607  -0.024446  -0.000015   0.001297   0.000045
     8  C   -0.052782   0.422113  -0.007156   0.002191  -0.001123
     9  C    0.009029  -0.052760   0.026057   0.000341   0.015638
    10  C    0.000040  -0.009286  -0.048926  -0.017626  -0.039732
    11  C   -0.000008   0.005754   0.394698   0.371612   0.394206
    12  O    0.000001   0.000123   0.002857   0.001538   0.008699
    13  H   -0.000006  -0.000001  -0.000000  -0.000000  -0.000000
    14  H   -0.000000   0.000000  -0.000000   0.000000  -0.000000
    15  H   -0.000000   0.000000  -0.000000  -0.000000  -0.000000
    16  H   -0.000000  -0.000000  -0.000001   0.000000  -0.000000
    17  H   -0.000008   0.000005  -0.000001   0.000000  -0.000000
    18  H   -0.001712  -0.000235   0.000002   0.000000   0.000000
    19  H    0.526284  -0.005285  -0.000003  -0.000017  -0.000000
    20  H   -0.005285   0.511204  -0.003042  -0.000598   0.000296
    21  H   -0.000003  -0.003042   0.538882  -0.030419  -0.010624
    22  H   -0.000017  -0.000598  -0.030419   0.550916  -0.011393
    23  H   -0.000000   0.000296  -0.010624  -0.011393   0.494921
 Mulliken charges:
               1
     1  C   -0.379890
     2  C    0.007610
     3  O   -0.235068
     4  C    0.362702
     5  N   -0.343122
     6  C   -0.030346
     7  C   -0.153082
     8  C   -0.150470
     9  C   -0.025017
    10  C    0.212077
    11  C   -0.388761
    12  O   -0.302090
    13  H    0.134966
    14  H    0.113974
    15  H    0.124868
    16  H    0.118736
    17  H    0.104149
    18  H    0.129672
    19  H    0.131359
    20  H    0.146213
    21  H    0.139873
    22  H    0.132447
    23  H    0.149202
 Sum of Mulliken charges =  -0.00000
 Mulliken charges with hydrogens summed into heavy atoms:
               1
     1  C   -0.006082
     2  C    0.230495
     3  O   -0.235068
     4  C    0.362702
     5  N   -0.343122
     6  C    0.099326
     7  C   -0.021723
     8  C   -0.004257
     9  C   -0.025017
    10  C    0.212077
    11  C    0.032760
    12  O   -0.302090
 Electronic spatial extent (au):  <R**2>=           2178.7779
 Charge=              0.0000 electrons
 Dipole moment (field-independent basis, Debye):
    X=             -1.0128    Y=              2.8831    Z=             -0.1310  Tot=              3.0586
 Quadrupole moment (field-independent basis, Debye-Ang):
   XX=            -58.9566   YY=            -72.5473   ZZ=            -71.3867
   XY=             -4.6584   XZ=             -0.9208   YZ=              1.5657
 Traceless Quadrupole moment (field-independent basis, Debye-Ang):
   XX=              8.6736   YY=             -4.9171   ZZ=             -3.7565
   XY=             -4.6584   XZ=             -0.9208   YZ=              1.5657
 Octapole moment (field-independent basis, Debye-Ang**2):
  XXX=             -6.0668  YYY=             28.7930  ZZZ=             -2.3320  XYY=              6.4333
  XXY=            -12.4555  XXZ=             -1.7192  XZZ=              1.7059  YZZ=             -8.9205
  YYZ=             -1.0029  XYZ=             -0.5677
 Hexadecapole moment (field-independent basis, Debye-Ang**3):
 XXXX=          -1618.3966 YYYY=          -1011.2389 ZZZZ=           -150.1139 XXXY=            -13.7375
 XXXZ=            -19.8483 YYYX=            -16.1980 YYYZ=             12.1018 ZZZX=             -5.5566
 ZZZY=             -0.9801 XXYY=           -440.5098 XXZZ=           -310.1860 YYZZ=           -209.4887
 XXYZ=              9.0679 YYXZ=             -3.0418 ZZXY=              2.9012
 N-N= 6.919244498200D+02 E-N=-2.677939791100D+03  KE= 5.519925710374D+02
 Breneman (CHELPG) radii used.
 Read replacement radii for each type of atom:
 Atom Element Radius
    1     6    1.50
    2     6    1.50
    3     8    1.70
    4     6    1.50
    5     7    1.70
    6     6    1.50
    7     6    1.50
    8     6    1.50
    9     6    1.50
   10     6    1.50
   11     6    1.50
   12     8    1.70
   13     1    1.45
   14     1    1.45
   15     1    1.45
   16     1    1.45
   17     1    1.45
   18     1    1.45
   19     1    1.45
   20     1    1.45
   21     1    1.45
   22     1    1.45
   23     1    1.45
 Generate Potential Derived Charges using the Breneman model, NDens= 1.
 Grid spacing= 0.300 Box extension= 2.800
 NStep X,Y,Z=   46     39     29   Total possible points=       52026
 Number of Points to Fit=   15060

 **********************************************************************

            Electrostatic Properties Using The SCF Density.

 **********************************************************************

       Atomic Center    1 is at   3.279419 -0.813424  0.756349
       Atomic Center    2 is at   2.541619 -0.903973 -0.565101
       Atomic Center    3 is at   1.129169 -0.941372 -0.384181
       Atomic Center    4 is at   0.460191  0.183659 -0.186551
       Atomic Center    5 is at   1.124662  1.331678 -0.198991
       Atomic Center    6 is at   0.461153  2.473649 -0.040401
       Atomic Center    7 is at  -0.914487  2.537391  0.133979
       Atomic Center    8 is at  -1.613508  1.331661  0.149289
       Atomic Center    9 is at  -0.951570  0.112791  0.000919
       Atomic Center   10 is at  -1.699681 -1.188658  0.059289
       Atomic Center   11 is at  -3.216171 -1.125407 -0.024921
       Atomic Center   12 is at  -1.142592 -2.253039  0.178879
       Atomic Center   13 is at   3.076541  0.147346  1.249149
       Atomic Center   14 is at   4.363359 -0.890905  0.584579
       Atomic Center   15 is at   2.974279 -1.630604  1.425769
       Atomic Center   16 is at   2.770978 -1.847693 -1.078011
       Atomic Center   17 is at   2.809010 -0.064543 -1.223061
       Atomic Center   18 is at   1.064524  3.387908 -0.053261
       Atomic Center   19 is at  -1.422796  3.493731  0.258199
       Atomic Center   20 is at  -2.695618  1.345463  0.289769
       Atomic Center   21 is at  -3.553510 -0.549406 -0.899311
       Atomic Center   22 is at  -3.639210 -0.651696  0.874539
       Atomic Center   23 is at  -3.594602 -2.152196 -0.090121
   15060 points will be used for fitting atomic charges
 Fitting point charges to electrostatic potential
 Charges from ESP fit, RMS=   0.00268 RRMS=   0.18388:
 ESP charges:
               1
     1  C   -0.228018
     2  C    0.320042
     3  O   -0.409869
     4  C    0.715840
     5  N   -0.512749
     6  C    0.238637
     7  C   -0.319925
     8  C    0.080752
     9  C   -0.400059
    10  C    0.622265
    11  C   -0.274426
    12  O   -0.501225
    13  H    0.052671
    14  H    0.052950
    15  H    0.072678
    16  H    0.023106
    17  H   -0.043952
    18  H    0.063687
    19  H    0.130137
    20  H    0.095526
    21  H    0.063238
    22  H    0.073719
    23  H    0.084976
 Sum of ESP charges =  -0.00000
 ESP charges with hydrogens summed into heavy atoms:
               1
     1  C   -0.049719
     2  C    0.299195
     3  O   -0.409869
     4  C    0.715840
     5  N   -0.512749
     6  C    0.302324
     7  C   -0.189788
     8  C    0.176278
     9  C   -0.400059
    10  C    0.622265
    11  C   -0.052494
    12  O   -0.501225
 Charge=  -0.00000 Dipole=    -1.0435     2.9087    -0.1300 Tot=     3.0929
 -----------------------------------------------------------------

              Electrostatic Properties (Atomic Units)

 -----------------------------------------------------------------
    Center     Electric         -------- Electric Field --------
               Potential          X             Y             Z
 -----------------------------------------------------------------
    1 Atom    -14.780193
    2 Atom    -14.717597
    3 Atom    -22.324568
    4 Atom    -14.662571
    5 Atom    -18.395274
    6 Atom    -14.721335
    7 Atom    -14.759430
    8 Atom    -14.738010
    9 Atom    -14.747558
   10 Atom    -14.682453
   11 Atom    -14.764814
   12 Atom    -22.386335
   13 Atom     -1.125917
   14 Atom     -1.117221
   15 Atom     -1.124586
   16 Atom     -1.120133
   17 Atom     -1.121172
   18 Atom     -1.094878
   19 Atom     -1.088742
   20 Atom     -1.080136
   21 Atom     -1.095731
   22 Atom     -1.091999
   23 Atom     -1.107512
 -----------------------------------------------------------------
 Unable to Open any file for archive entry.
 1\1\GINC-NOTCH346\SP\RwB97XD\def2TZVP\C9H11N1O2\U6053008\12-Jul-2024\0
 \\#N Guess=Read Geom=Check Integral(Ultrafine) Density Pop=(ChelpG,Rea
 dRadii) NMR wB97XD def2TZVP\\12326827_3\\0,1\C,0,-3.27942,-0.81342,-0.
 75635\C,0,-2.54162,-0.90397,0.5651\O,0,-1.12917,-0.94137,0.38418\C,0,-
 0.46019,0.18366,0.18655\N,0,-1.12466,1.33168,0.19899\C,0,-0.46115,2.47
 365,0.0404\C,0,0.91449,2.53739,-0.13398\C,0,1.61351,1.33166,-0.14929\C
 ,0,0.95157,0.11279,-0.00092\C,0,1.69968,-1.18866,-0.05929\C,0,3.21617,
 -1.12541,0.02492\O,0,1.14259,-2.25304,-0.17888\H,0,-3.07654,0.14735,-1
 .24915\H,0,-4.36336,-0.8909,-0.58458\H,0,-2.97428,-1.6306,-1.42577\H,0
 ,-2.77098,-1.84769,1.07801\H,0,-2.80901,-0.06454,1.22306\H,0,-1.06452,
 3.38791,0.05326\H,0,1.4228,3.49373,-0.2582\H,0,2.69562,1.34546,-0.2897
 7\H,0,3.55351,-0.54941,0.89931\H,0,3.63921,-0.6517,-0.87454\H,0,3.5946
 ,-2.1522,0.09012\\Version=ES64L-G16RevC.01\State=1-A\HF=-554.8000603\R
 MSD=1.965e-09\Dipole=0.3984858,1.1342929,0.0515421\Quadrupole=6.448600
 9,-3.655761,-2.7928399,3.4633774,-0.684583,-1.1640317\PG=C01 [X(C9H11N
 1O2)]\\@
 The archive entry for this job was punched.


 MEN HAVE BECOME THE TOOLS OF THEIR TOOLS... THOREAU   
 Job cpu time:       0 days  1 hours  0 minutes  8.9 seconds.
 Elapsed time:       0 days  0 hours  3 minutes 59.0 seconds.
 File lengths (MBytes):  RWF=    125 Int=      0 D2E=      0 Chk=     19 Scr=      2
 Normal termination of Gaussian 16 at Fri Jul 12 13:27:26 2024.
