 Entering Gaussian System, Link 0=g16
 Input=12326824_9.com
 Output=12326824_9.log
 Initial command:
 /uufs/chpc.utah.edu/sys/installdir/gaussian16/C01/AVX/g16/l1.exe "/scratch/general/vast/u6053008/1287131-notchpeak.peaks/Gau-2437931.inp" -scrdir="/scratch/general/vast/u6053008/1287131-notchpeak.peaks/"
 Entering Link 1 = /uufs/chpc.utah.edu/sys/installdir/gaussian16/C01/AVX/g16/l1.exe PID=   2437932.
  
 Copyright (c) 1988-2019, Gaussian, Inc.  All Rights Reserved.
  
 This is part of the Gaussian(R) 16 program.  It is based on
 the Gaussian(R) 09 system (copyright 2009, Gaussian, Inc.),
 the Gaussian(R) 03 system (copyright 2003, Gaussian, Inc.),
 the Gaussian(R) 98 system (copyright 1998, Gaussian, Inc.),
 the Gaussian(R) 94 system (copyright 1995, Gaussian, Inc.),
 the Gaussian 92(TM) system (copyright 1992, Gaussian, Inc.),
 the Gaussian 90(TM) system (copyright 1990, Gaussian, Inc.),
 the Gaussian 88(TM) system (copyright 1988, Gaussian, Inc.),
 the Gaussian 86(TM) system (copyright 1986, Carnegie Mellon
 University), and the Gaussian 82(TM) system (copyright 1983,
 Carnegie Mellon University). Gaussian is a federally registered
 trademark of Gaussian, Inc.
  
 This software contains proprietary and confidential information,
 including trade secrets, belonging to Gaussian, Inc.
  
 This software is provided under written license and may be
 used, copied, transmitted, or stored only in accord with that
 written license.
  
 The following legend is applicable only to US Government
 contracts under FAR:
  
                    RESTRICTED RIGHTS LEGEND
  
 Use, reproduction and disclosure by the US Government is
 subject to restrictions as set forth in subparagraphs (a)
 and (c) of the Commercial Computer Software - Restricted
 Rights clause in FAR 52.227-19.
  
 Gaussian, Inc.
 340 Quinnipiac St., Bldg. 40, Wallingford CT 06492
  
  
 ---------------------------------------------------------------
 Warning -- This program may not be used in any manner that
 competes with the business of Gaussian, Inc. or will provide
 assistance to any competitor of Gaussian, Inc.  The licensee
 of this program is prohibited from giving any competitor of
 Gaussian, Inc. access to this program.  By using this program,
 the user acknowledges that Gaussian, Inc. is engaged in the
 business of creating and licensing software in the field of
 computational chemistry and represents and warrants to the
 licensee that it is not a competitor of Gaussian, Inc. and that
 it will not use this program in any manner prohibited above.
 ---------------------------------------------------------------
  

 Cite this work as:
 Gaussian 16, Revision C.01,
 M. J. Frisch, G. W. Trucks, H. B. Schlegel, G. E. Scuseria, 
 M. A. Robb, J. R. Cheeseman, G. Scalmani, V. Barone, 
 G. A. Petersson, H. Nakatsuji, X. Li, M. Caricato, A. V. Marenich, 
 J. Bloino, B. G. Janesko, R. Gomperts, B. Mennucci, H. P. Hratchian, 
 J. V. Ortiz, A. F. Izmaylov, J. L. Sonnenberg, D. Williams-Young, 
 F. Ding, F. Lipparini, F. Egidi, J. Goings, B. Peng, A. Petrone, 
 T. Henderson, D. Ranasinghe, V. G. Zakrzewski, J. Gao, N. Rega, 
 G. Zheng, W. Liang, M. Hada, M. Ehara, K. Toyota, R. Fukuda, 
 J. Hasegawa, M. Ishida, T. Nakajima, Y. Honda, O. Kitao, H. Nakai, 
 T. Vreven, K. Throssell, J. A. Montgomery, Jr., J. E. Peralta, 
 F. Ogliaro, M. J. Bearpark, J. J. Heyd, E. N. Brothers, K. N. Kudin, 
 V. N. Staroverov, T. A. Keith, R. Kobayashi, J. Normand, 
 K. Raghavachari, A. P. Rendell, J. C. Burant, S. S. Iyengar, 
 J. Tomasi, M. Cossi, J. M. Millam, M. Klene, C. Adamo, R. Cammi, 
 J. W. Ochterski, R. L. Martin, K. Morokuma, O. Farkas, 
 J. B. Foresman, and D. J. Fox, Gaussian, Inc., Wallingford CT, 2019.
 
 ******************************************
 Gaussian 16:  ES64L-G16RevC.01  3-Jul-2019
                12-Jul-2024 
 ******************************************
 %NProcShared=16
 Will use up to   16 processors via shared memory.
 %Mem=32GB
 %chk=12326824_9.chk
 ------------------------------------------------------
 #N OPT FREQ=NORAMAN Integral(Ultrafine) wB97XD def2SVP
 ------------------------------------------------------
 1/18=20,19=15,26=4,38=1/1,3;
 2/9=110,12=2,17=6,18=5,40=1/2;
 3/5=43,7=101,11=2,25=1,30=1,71=1,74=-58,75=-5/1,2,3;
 4//1;
 5/5=2,38=5/2;
 6/7=2,8=2,9=2,10=2,28=1/1;
 7//1,2,3,16;
 1/18=20,19=15,26=4/3(2);
 2/9=110/2;
 99//99;
 2/9=110/2;
 3/5=43,7=101,11=2,25=1,30=1,71=1,74=-58,75=-5/1,2,3;
 4/5=5,16=3,69=1/1;
 5/5=2,38=5/2;
 7//1,2,3,16;
 1/18=20,19=15,26=4/3(-5);
 2/9=110/2;
 6/7=2,8=2,9=2,10=2,19=2,28=1/1;
 99/9=1/99;
 ----------
 12326824_9
 ----------
 Symbolic Z-matrix:
 Charge =  0 Multiplicity = 1
 C                     3.93193   1.10902   0.90048 
 C                     3.57368   0.30097  -0.33144 
 O                     2.37856  -0.45393  -0.13834 
 C                     1.21086   0.17961  -0.33574 
 O                     1.13797   1.33793  -0.65158 
 C                     0.05781  -0.74628  -0.13058 
 C                     0.26098  -2.13026  -0.08451 
 N                    -0.69998  -3.03676   0.06379 
 C                    -1.94179  -2.5754    0.18297 
 C                    -2.28436  -1.22763   0.16323 
 C                    -1.26894  -0.27272   0.00476 
 O                    -1.48371   1.03711  -0.00931 
 C                    -2.79535   1.55237   0.11688 
 C                    -2.70426   3.05977   0.04876 
 H                     4.8974    1.61396   0.74884 
 H                     4.01642   0.45805   1.78281 
 H                     3.1694    1.87592   1.09421 
 H                     3.44938   0.95636  -1.20586 
 H                     4.3454   -0.4483   -0.55402 
 H                     1.28242  -2.50675  -0.18189 
 H                    -2.73169  -3.32495   0.30655 
 H                    -3.32818  -0.93824   0.27391 
 H                    -3.23519   1.22555   1.07631 
 H                    -3.4303    1.15863  -0.69682 
 H                    -2.07493   3.44442   0.86321 
 H                    -3.70617   3.50325   0.13709 
 H                    -2.26003   3.37387  -0.90574 
 

 GradGradGradGradGradGradGradGradGradGradGradGradGradGradGradGradGradGrad
 Berny optimization.
 Initialization pass.
                           ----------------------------
                           !    Initial Parameters    !
                           ! (Angstroms and Degrees)  !
 --------------------------                            --------------------------
 ! Name  Definition              Value          Derivative Info.                !
 --------------------------------------------------------------------------------
 ! R1    R(1,2)                  1.5162         estimate D2E/DX2                !
 ! R2    R(1,15)                 1.1            estimate D2E/DX2                !
 ! R3    R(1,16)                 1.0997         estimate D2E/DX2                !
 ! R4    R(1,17)                 1.0987         estimate D2E/DX2                !
 ! R5    R(2,3)                  1.4267         estimate D2E/DX2                !
 ! R6    R(2,18)                 1.0998         estimate D2E/DX2                !
 ! R7    R(2,19)                 1.0984         estimate D2E/DX2                !
 ! R8    R(3,4)                  1.3431         estimate D2E/DX2                !
 ! R9    R(4,5)                  1.2028         estimate D2E/DX2                !
 ! R10   R(4,6)                  1.4929         estimate D2E/DX2                !
 ! R11   R(6,7)                  1.3996         estimate D2E/DX2                !
 ! R12   R(6,11)                 1.4152         estimate D2E/DX2                !
 ! R13   R(7,8)                  1.3294         estimate D2E/DX2                !
 ! R14   R(7,20)                 1.093          estimate D2E/DX2                !
 ! R15   R(8,9)                  1.3301         estimate D2E/DX2                !
 ! R16   R(9,10)                 1.3908         estimate D2E/DX2                !
 ! R17   R(9,21)                 1.0959         estimate D2E/DX2                !
 ! R18   R(10,11)                1.4029         estimate D2E/DX2                !
 ! R19   R(10,22)                1.0888         estimate D2E/DX2                !
 ! R20   R(11,12)                1.3274         estimate D2E/DX2                !
 ! R21   R(12,13)                1.4149         estimate D2E/DX2                !
 ! R22   R(13,14)                1.5117         estimate D2E/DX2                !
 ! R23   R(13,23)                1.1049         estimate D2E/DX2                !
 ! R24   R(13,24)                1.1047         estimate D2E/DX2                !
 ! R25   R(14,25)                1.0988         estimate D2E/DX2                !
 ! R26   R(14,26)                1.0992         estimate D2E/DX2                !
 ! R27   R(14,27)                1.0987         estimate D2E/DX2                !
 ! A1    A(2,1,15)             109.8769         estimate D2E/DX2                !
 ! A2    A(2,1,16)             110.7668         estimate D2E/DX2                !
 ! A3    A(2,1,17)             110.5655         estimate D2E/DX2                !
 ! A4    A(15,1,16)            108.3535         estimate D2E/DX2                !
 ! A5    A(15,1,17)            108.2424         estimate D2E/DX2                !
 ! A6    A(16,1,17)            108.9674         estimate D2E/DX2                !
 ! A7    A(1,2,3)              111.7124         estimate D2E/DX2                !
 ! A8    A(1,2,18)             110.7998         estimate D2E/DX2                !
 ! A9    A(1,2,19)             111.234          estimate D2E/DX2                !
 ! A10   A(3,2,18)             109.1622         estimate D2E/DX2                !
 ! A11   A(3,2,19)             104.7753         estimate D2E/DX2                !
 ! A12   A(18,2,19)            108.9528         estimate D2E/DX2                !
 ! A13   A(2,3,4)              117.3105         estimate D2E/DX2                !
 ! A14   A(3,4,5)              123.0613         estimate D2E/DX2                !
 ! A15   A(3,4,6)              111.023          estimate D2E/DX2                !
 ! A16   A(5,4,6)              125.91           estimate D2E/DX2                !
 ! A17   A(4,6,7)              120.3762         estimate D2E/DX2                !
 ! A18   A(4,6,11)             121.9832         estimate D2E/DX2                !
 ! A19   A(7,6,11)             117.6349         estimate D2E/DX2                !
 ! A20   A(6,7,8)              124.9631         estimate D2E/DX2                !
 ! A21   A(6,7,20)             118.2528         estimate D2E/DX2                !
 ! A22   A(8,7,20)             116.7833         estimate D2E/DX2                !
 ! A23   A(7,8,9)              116.6388         estimate D2E/DX2                !
 ! A24   A(8,9,10)             124.3909         estimate D2E/DX2                !
 ! A25   A(8,9,21)             116.4741         estimate D2E/DX2                !
 ! A26   A(10,9,21)            119.1348         estimate D2E/DX2                !
 ! A27   A(9,10,11)            118.8786         estimate D2E/DX2                !
 ! A28   A(9,10,22)            119.4889         estimate D2E/DX2                !
 ! A29   A(11,10,22)           121.6322         estimate D2E/DX2                !
 ! A30   A(6,11,10)            117.4905         estimate D2E/DX2                !
 ! A31   A(6,11,12)            118.7417         estimate D2E/DX2                !
 ! A32   A(10,11,12)           123.7632         estimate D2E/DX2                !
 ! A33   A(11,12,13)           120.5579         estimate D2E/DX2                !
 ! A34   A(12,13,14)           107.6539         estimate D2E/DX2                !
 ! A35   A(12,13,23)           109.802          estimate D2E/DX2                !
 ! A36   A(12,13,24)           109.7157         estimate D2E/DX2                !
 ! A37   A(14,13,23)           110.9819         estimate D2E/DX2                !
 ! A38   A(14,13,24)           110.9077         estimate D2E/DX2                !
 ! A39   A(23,13,24)           107.7811         estimate D2E/DX2                !
 ! A40   A(13,14,25)           110.4987         estimate D2E/DX2                !
 ! A41   A(13,14,26)           110.1061         estimate D2E/DX2                !
 ! A42   A(13,14,27)           110.4014         estimate D2E/DX2                !
 ! A43   A(25,14,26)           108.7383         estimate D2E/DX2                !
 ! A44   A(25,14,27)           108.1977         estimate D2E/DX2                !
 ! A45   A(26,14,27)           108.845          estimate D2E/DX2                !
 ! D1    D(15,1,2,3)           175.4555         estimate D2E/DX2                !
 ! D2    D(15,1,2,18)          -62.5929         estimate D2E/DX2                !
 ! D3    D(15,1,2,19)           58.7619         estimate D2E/DX2                !
 ! D4    D(16,1,2,3)            55.7734         estimate D2E/DX2                !
 ! D5    D(16,1,2,18)          177.725          estimate D2E/DX2                !
 ! D6    D(16,1,2,19)          -60.9202         estimate D2E/DX2                !
 ! D7    D(17,1,2,3)           -65.1269         estimate D2E/DX2                !
 ! D8    D(17,1,2,18)           56.8247         estimate D2E/DX2                !
 ! D9    D(17,1,2,19)          178.1795         estimate D2E/DX2                !
 ! D10   D(1,2,3,4)             83.3018         estimate D2E/DX2                !
 ! D11   D(18,2,3,4)           -39.5873         estimate D2E/DX2                !
 ! D12   D(19,2,3,4)          -156.1547         estimate D2E/DX2                !
 ! D13   D(2,3,4,5)             -0.629          estimate D2E/DX2                !
 ! D14   D(2,3,4,6)            178.5448         estimate D2E/DX2                !
 ! D15   D(3,4,6,7)            -14.7091         estimate D2E/DX2                !
 ! D16   D(3,4,6,11)           166.1856         estimate D2E/DX2                !
 ! D17   D(5,4,6,7)            164.4359         estimate D2E/DX2                !
 ! D18   D(5,4,6,11)           -14.6693         estimate D2E/DX2                !
 ! D19   D(4,6,7,8)           -178.4463         estimate D2E/DX2                !
 ! D20   D(4,6,7,20)             1.2231         estimate D2E/DX2                !
 ! D21   D(11,6,7,8)             0.697          estimate D2E/DX2                !
 ! D22   D(11,6,7,20)         -179.6336         estimate D2E/DX2                !
 ! D23   D(4,6,11,10)          178.5714         estimate D2E/DX2                !
 ! D24   D(4,6,11,12)           -2.1811         estimate D2E/DX2                !
 ! D25   D(7,6,11,10)           -0.5573         estimate D2E/DX2                !
 ! D26   D(7,6,11,12)          178.6902         estimate D2E/DX2                !
 ! D27   D(6,7,8,9)             -0.3719         estimate D2E/DX2                !
 ! D28   D(20,7,8,9)           179.9543         estimate D2E/DX2                !
 ! D29   D(7,8,9,10)            -0.0767         estimate D2E/DX2                !
 ! D30   D(7,8,9,21)          -179.914          estimate D2E/DX2                !
 ! D31   D(8,9,10,11)            0.1661         estimate D2E/DX2                !
 ! D32   D(8,9,10,22)         -179.6243         estimate D2E/DX2                !
 ! D33   D(21,9,10,11)         179.9994         estimate D2E/DX2                !
 ! D34   D(21,9,10,22)           0.209          estimate D2E/DX2                !
 ! D35   D(9,10,11,6)            0.1692         estimate D2E/DX2                !
 ! D36   D(9,10,11,12)        -179.0371         estimate D2E/DX2                !
 ! D37   D(22,10,11,6)         179.9549         estimate D2E/DX2                !
 ! D38   D(22,10,11,12)          0.7486         estimate D2E/DX2                !
 ! D39   D(6,11,12,13)         179.7088         estimate D2E/DX2                !
 ! D40   D(10,11,12,13)         -1.0942         estimate D2E/DX2                !
 ! D41   D(11,12,13,14)       -179.3825         estimate D2E/DX2                !
 ! D42   D(11,12,13,23)         59.6884         estimate D2E/DX2                !
 ! D43   D(11,12,13,24)        -58.594          estimate D2E/DX2                !
 ! D44   D(12,13,14,25)        -60.2011         estimate D2E/DX2                !
 ! D45   D(12,13,14,26)        179.6614         estimate D2E/DX2                !
 ! D46   D(12,13,14,27)         59.4534         estimate D2E/DX2                !
 ! D47   D(23,13,14,25)         59.985          estimate D2E/DX2                !
 ! D48   D(23,13,14,26)        -60.1525         estimate D2E/DX2                !
 ! D49   D(23,13,14,27)        179.6395         estimate D2E/DX2                !
 ! D50   D(24,13,14,25)        179.762          estimate D2E/DX2                !
 ! D51   D(24,13,14,26)         59.6245         estimate D2E/DX2                !
 ! D52   D(24,13,14,27)        -60.5835         estimate D2E/DX2                !
 --------------------------------------------------------------------------------
 Trust Radius=3.00D-01 FncErr=1.00D-07 GrdErr=1.00D-06 EigMax=2.50D+02 EigMin=1.00D-04
 Number of steps in this run=    134 maximum allowed number of steps=    162.
 GradGradGradGradGradGradGradGradGradGradGradGradGradGradGradGradGradGrad

                          Input orientation:                          
 ---------------------------------------------------------------------
 Center     Atomic      Atomic             Coordinates (Angstroms)
 Number     Number       Type             X           Y           Z
 ---------------------------------------------------------------------
      1          6           0        3.931930    1.109020    0.900480
      2          6           0        3.573680    0.300970   -0.331440
      3          8           0        2.378560   -0.453930   -0.138340
      4          6           0        1.210860    0.179610   -0.335740
      5          8           0        1.137970    1.337930   -0.651580
      6          6           0        0.057810   -0.746280   -0.130580
      7          6           0        0.260980   -2.130260   -0.084510
      8          7           0       -0.699980   -3.036760    0.063790
      9          6           0       -1.941790   -2.575400    0.182970
     10          6           0       -2.284360   -1.227630    0.163230
     11          6           0       -1.268940   -0.272720    0.004760
     12          8           0       -1.483710    1.037110   -0.009310
     13          6           0       -2.795350    1.552370    0.116880
     14          6           0       -2.704260    3.059770    0.048760
     15          1           0        4.897400    1.613960    0.748840
     16          1           0        4.016420    0.458050    1.782810
     17          1           0        3.169400    1.875920    1.094210
     18          1           0        3.449380    0.956360   -1.205860
     19          1           0        4.345400   -0.448300   -0.554020
     20          1           0        1.282420   -2.506750   -0.181890
     21          1           0       -2.731690   -3.324950    0.306550
     22          1           0       -3.328180   -0.938240    0.273910
     23          1           0       -3.235190    1.225550    1.076310
     24          1           0       -3.430300    1.158630   -0.696820
     25          1           0       -2.074930    3.444420    0.863210
     26          1           0       -3.706170    3.503250    0.137090
     27          1           0       -2.260030    3.373870   -0.905740
 ---------------------------------------------------------------------
                    Distance matrix (angstroms):
                    1          2          3          4          5
     1  C    0.000000
     2  C    1.516217   0.000000
     3  O    2.436169   1.426700   0.000000
     4  C    3.129899   2.365939   1.343080   0.000000
     5  O    3.204294   2.666544   2.239027   1.202819   0.000000
     6  C    4.417469   3.674019   2.339104   1.492946   2.404603
     7  C    4.993898   4.116532   2.701319   2.510157   3.622019
     8  N    6.272331   5.436986   4.023590   3.762442   4.798721
     9  C    6.970678   6.241677   4.823826   4.218808   5.049312
    10  C    6.681746   6.074368   4.736283   3.800771   4.354119
    11  C    5.455325   4.888059   3.654801   2.543610   2.969544
    12  O    5.491998   5.120826   4.142098   2.846501   2.715918
    13  C    6.787259   6.506269   5.555153   4.258997   4.013418
    14  C    6.969209   6.867901   6.181921   4.875585   4.268248
    15  H    1.100042   2.154804   3.377545   4.101738   4.021279
    16  H    1.099730   2.165813   2.684234   3.526606   3.871165
    17  H    1.098690   2.162496   2.751874   2.959409   2.732018
    18  H    2.166294   1.099817   2.067649   2.524167   2.407372
    19  H    2.170662   1.098408   2.010294   3.204256   3.672566
    20  H    4.611423   3.627055   2.327550   2.691713   3.875957
    21  H    8.026000   7.301508   5.878379   5.313961   6.134715
    22  H    7.569218   7.038307   5.742072   4.714249   5.097448
    23  H    7.170223   7.014080   5.984164   4.780715   4.703484
    24  H    7.533675   7.065750   6.054346   4.757019   4.572011
    25  H    6.444986   6.573832   6.002817   4.784651   4.129723
    26  H    8.040875   7.966827   7.263544   5.953766   5.364355
    27  H    6.836106   6.618512   6.062794   4.751344   3.969389
                    6          7          8          9         10
     6  C    0.000000
     7  C    1.399572   0.000000
     8  N    2.420397   1.329353   0.000000
     9  C    2.728075   2.263159   1.330094   0.000000
    10  C    2.409104   2.711987   2.406886   1.390765   0.000000
    11  C    1.415218   2.408128   2.822608   2.405581   1.402870
    12  O    2.360396   3.616881   4.149216   3.646510   2.408289
    13  C    3.672268   4.789935   5.045147   4.215616   2.826952
    14  C    4.706082   5.978864   6.417557   5.688103   4.309434
    15  H    5.455799   6.017478   7.309525   8.040240   7.745660
    16  H    4.558735   4.928444   6.116629   6.874705   6.720445
    17  H    4.249475   5.088985   6.337846   6.838777   6.343678
    18  H    3.944358   4.577176   5.896966   6.592943   6.286493
    19  H    4.318741   4.442062   5.704180   6.678059   6.713831
    20  H    2.145124   1.092963   2.066683   3.245515   3.804888
    21  H    3.823863   3.245965   2.066357   1.095919   2.149278
    22  H    3.415463   3.798874   3.369773   2.147240   1.088833
    23  H    4.023499   4.983189   5.061598   4.113169   2.784939
    24  H    4.014501   4.981693   5.063050   4.114933   2.783362
    25  H    4.806055   6.118146   6.673474   6.059595   4.728835
    26  H    5.683106   6.893752   7.198214   6.329702   4.939985
    27  H    4.790500   6.109448   6.668577   6.056433   4.724097
                   11         12         13         14         15
    11  C    0.000000
    12  O    1.327395   0.000000
    13  C    2.381901   1.414856   0.000000
    14  C    3.628715   2.363106   1.511685   0.000000
    15  H    6.491299   6.451830   7.718910   7.769538   0.000000
    16  H    5.624101   5.813642   7.097399   7.412383   1.783633
    17  H    5.049992   4.855182   6.052942   6.082298   1.781541
    18  H    5.023821   5.076774   6.411047   6.623118   2.519931
    19  H    5.644810   6.040006   7.446012   7.897316   2.501013
    20  H    3.396346   4.498911   5.761417   6.850764   5.560089
    21  H    3.398062   4.548053   4.881422   6.389981   9.098982
    22  H    2.180786   2.717405   2.551804   4.052660   8.625512
    23  H    2.694285   2.069242   1.104888   2.168435   8.148443
    24  H    2.685601   2.068006   1.104672   2.167339   8.464505
    25  H    3.899190   2.627922   2.157746   1.098791   7.209511
    26  H    4.496171   3.323042   2.153122   1.099227   8.829783
    27  H    3.887015   2.620440   2.156428   1.098667   7.554053
                   16         17         18         19         20
    16  H    0.000000
    17  H    1.789404   0.000000
    18  H    3.082531   2.492850   0.000000
    19  H    2.527938   3.082473   1.789083   0.000000
    20  H    4.486072   4.939324   4.211575   3.709116   0.000000
    21  H    7.875749   7.905208   7.669591   7.687711   4.125664
    22  H    7.626897   7.128179   7.191283   7.733650   4.891381
    23  H    7.326257   6.437552   7.068539   7.932534   5.993491
    24  H    7.879912   6.875924   6.901451   7.941292   5.992486
    25  H    6.846066   5.478736   6.402304   7.640841   6.912341
    26  H    8.462862   7.130059   7.713110   8.995563   7.817153
    27  H    7.424563   5.976819   6.207398   7.639659   6.903231
                   21         22         23         24         25
    21  H    0.000000
    22  H    2.460335   0.000000
    23  H    4.642531   2.309649   0.000000
    24  H    4.647289   2.312922   1.785087   0.000000
    25  H    6.823897   4.596261   2.512966   3.081486   0.000000
    26  H    6.899467   4.459645   2.508361   2.503748   1.786520
    27  H    6.823950   4.596391   3.081353   2.514054   1.780007
                   26         27
    26  H    0.000000
    27  H    1.787611   0.000000
 Stoichiometry    C10H13NO3
 Framework group  C1[X(C10H13NO3)]
 Deg. of freedom    75
 Full point group                 C1      NOp   1
 Largest Abelian subgroup         C1      NOp   1
 Largest concise Abelian subgroup C1      NOp   1
                         Standard orientation:                         
 ---------------------------------------------------------------------
 Center     Atomic      Atomic             Coordinates (Angstroms)
 Number     Number       Type             X           Y           Z
 ---------------------------------------------------------------------
      1          6           0       -3.931931   -1.109017    0.900479
      2          6           0       -3.573680   -0.300967   -0.331441
      3          8           0       -2.378560    0.453932   -0.138341
      4          6           0       -1.210860   -0.179609   -0.335741
      5          8           0       -1.137971   -1.337929   -0.651581
      6          6           0       -0.057810    0.746280   -0.130581
      7          6           0       -0.260978    2.130260   -0.084511
      8          7           0        0.699982    3.036760    0.063789
      9          6           0        1.941792    2.575399    0.182969
     10          6           0        2.284361    1.227628    0.163229
     11          6           0        1.268940    0.272719    0.004759
     12          8           0        1.483709   -1.037111   -0.009311
     13          6           0        2.795349   -1.552372    0.116879
     14          6           0        2.704258   -3.059772    0.048759
     15          1           0       -4.897401   -1.613956    0.748839
     16          1           0       -4.016420   -0.458047    1.782809
     17          1           0       -3.169402   -1.875917    1.094209
     18          1           0       -3.449381   -0.956357   -1.205861
     19          1           0       -4.345400    0.448304   -0.554021
     20          1           0       -1.282418    2.506751   -0.181891
     21          1           0        2.731693    3.324948    0.306549
     22          1           0        3.328181    0.938238    0.273909
     23          1           0        3.235189   -1.225552    1.076309
     24          1           0        3.430299   -1.158632   -0.696821
     25          1           0        2.074927   -3.444421    0.863209
     26          1           0        3.706167   -3.503253    0.137089
     27          1           0        2.260027   -3.373871   -0.905741
 ---------------------------------------------------------------------
 Rotational constants (GHZ):           0.8563646           0.5063891           0.3310982
 Standard basis: def2SVP (5D, 7F)
 There are   275 symmetry adapted cartesian basis functions of A   symmetry.
 There are   261 symmetry adapted basis functions of A   symmetry.
   261 basis functions,   441 primitive gaussians,   275 cartesian basis functions
    52 alpha electrons       52 beta electrons
       nuclear repulsion energy       894.0486075351 Hartrees.
 NAtoms=   27 NActive=   27 NUniq=   27 SFac= 1.00D+00 NAtFMM=   60 NAOKFM=F Big=F
 Integral buffers will be    131072 words long.
 Raffenetti 2 integral format.
 Two-electron integral symmetry is turned on.
 Nuclear repulsion after empirical dispersion term =      894.0339917872 Hartrees.
 One-electron integrals computed using PRISM.
   1 Symmetry operations used in ECPInt.
 ECPInt:  NShTT=    7626 NPrTT=   27482 LenC2=    7140 LenP2D=   18461.
 LDataN:  DoStor=T MaxTD1= 4 Len=   56
 NBasis=   261 RedAO= T EigKep=  5.33D-04  NBF=   261
 NBsUse=   261 1.00D-06 EigRej= -1.00D+00 NBFU=   261
 ExpMin= 1.22D-01 ExpMax= 2.27D+03 ExpMxC= 3.41D+02 IAcc=3 IRadAn=         5 AccDes= 0.00D+00
 Harris functional with IExCor= 4639 and IRadAn=       5 diagonalized for initial guess.
 HarFok:  IExCor= 4639 AccDes= 0.00D+00 IRadAn=         5 IDoV= 1 UseB2=F ITyADJ=14
 ICtDFT=  3500011 ScaDFX=  1.000000  1.000000  1.000000  1.000000
 FoFCou: FMM=F IPFlag=           0 FMFlag=      100000 FMFlg1=           0
         NFxFlg=           0 DoJE=T BraDBF=F KetDBF=T FulRan=T
         wScrn=  0.000000 ICntrl=       500 IOpCl=  0 I1Cent=   200000004 NGrid=           0
         NMat0=    1 NMatS0=      1 NMatT0=    0 NMatD0=    1 NMtDS0=    0 NMtDT0=    0
 Petite list used in FoFCou.
 Requested convergence on RMS density matrix=1.00D-08 within 128 cycles.
 Requested convergence on MAX density matrix=1.00D-06.
 Requested convergence on             energy=1.00D-06.
 No special actions if energy rises.
 Integral accuracy reduced to 1.0D-05 until final iterations.
 Initial convergence to 1.0D-05 achieved.  Increase integral accuracy.
 SCF Done:  E(RwB97XD) =  -668.619187877     A.U. after   16 cycles
            NFock= 16  Conv=0.49D-08     -V/T= 2.0098

 **********************************************************************

            Population analysis using the SCF Density.

 **********************************************************************

 Orbital symmetries:
       Occupied  (A) (A) (A) (A) (A) (A) (A) (A) (A) (A) (A) (A)
                 (A) (A) (A) (A) (A) (A) (A) (A) (A) (A) (A) (A)
                 (A) (A) (A) (A) (A) (A) (A) (A) (A) (A) (A) (A)
                 (A) (A) (A) (A) (A) (A) (A) (A) (A) (A) (A) (A)
                 (A) (A) (A) (A)
       Virtual   (A) (A) (A) (A) (A) (A) (A) (A) (A) (A) (A) (A)
                 (A) (A) (A) (A) (A) (A) (A) (A) (A) (A) (A) (A)
                 (A) (A) (A) (A) (A) (A) (A) (A) (A) (A) (A) (A)
                 (A) (A) (A) (A) (A) (A) (A) (A) (A) (A) (A) (A)
                 (A) (A) (A) (A) (A) (A) (A) (A) (A) (A) (A) (A)
                 (A) (A) (A) (A) (A) (A) (A) (A) (A) (A) (A) (A)
                 (A) (A) (A) (A) (A) (A) (A) (A) (A) (A) (A) (A)
                 (A) (A) (A) (A) (A) (A) (A) (A) (A) (A) (A) (A)
                 (A) (A) (A) (A) (A) (A) (A) (A) (A) (A) (A) (A)
                 (A) (A) (A) (A) (A) (A) (A) (A) (A) (A) (A) (A)
                 (A) (A) (A) (A) (A) (A) (A) (A) (A) (A) (A) (A)
                 (A) (A) (A) (A) (A) (A) (A) (A) (A) (A) (A) (A)
                 (A) (A) (A) (A) (A) (A) (A) (A) (A) (A) (A) (A)
                 (A) (A) (A) (A) (A) (A) (A) (A) (A) (A) (A) (A)
                 (A) (A) (A) (A) (A) (A) (A) (A) (A) (A) (A) (A)
                 (A) (A) (A) (A) (A) (A) (A) (A) (A) (A) (A) (A)
                 (A) (A) (A) (A) (A) (A) (A) (A) (A) (A) (A) (A)
                 (A) (A) (A) (A) (A)
 The electronic state is 1-A.
 Alpha  occ. eigenvalues --  -19.30444 -19.29638 -19.23725 -14.43548 -10.42771
 Alpha  occ. eigenvalues --  -10.39274 -10.36871 -10.35352 -10.34470 -10.34158
 Alpha  occ. eigenvalues --  -10.31751 -10.31298 -10.30228 -10.29374  -1.20002
 Alpha  occ. eigenvalues --   -1.18800  -1.10419  -1.04290  -0.91890  -0.88325
 Alpha  occ. eigenvalues --   -0.86294  -0.84985  -0.76757  -0.75812  -0.72480
 Alpha  occ. eigenvalues --   -0.69494  -0.66049  -0.64044  -0.61404  -0.60277
 Alpha  occ. eigenvalues --   -0.59295  -0.56706  -0.55520  -0.54794  -0.54058
 Alpha  occ. eigenvalues --   -0.52445  -0.51340  -0.50654  -0.48837  -0.48192
 Alpha  occ. eigenvalues --   -0.47329  -0.46792  -0.46670  -0.45475  -0.42919
 Alpha  occ. eigenvalues --   -0.42781  -0.42070  -0.38278  -0.35998  -0.34969
 Alpha  occ. eigenvalues --   -0.33632  -0.33230
 Alpha virt. eigenvalues --    0.01809   0.05458   0.12545   0.13541   0.15237
 Alpha virt. eigenvalues --    0.15384   0.17917   0.18636   0.18859   0.19671
 Alpha virt. eigenvalues --    0.20135   0.21101   0.21334   0.21720   0.23395
 Alpha virt. eigenvalues --    0.23608   0.24308   0.24799   0.25178   0.27932
 Alpha virt. eigenvalues --    0.29107   0.30252   0.31730   0.33341   0.36063
 Alpha virt. eigenvalues --    0.37144   0.39950   0.41098   0.42715   0.46179
 Alpha virt. eigenvalues --    0.48002   0.48459   0.49668   0.49806   0.50821
 Alpha virt. eigenvalues --    0.51284   0.52074   0.53753   0.54725   0.55706
 Alpha virt. eigenvalues --    0.57154   0.58048   0.59454   0.59925   0.61197
 Alpha virt. eigenvalues --    0.62578   0.66391   0.67313   0.68243   0.68571
 Alpha virt. eigenvalues --    0.69524   0.69695   0.69894   0.70859   0.72316
 Alpha virt. eigenvalues --    0.73223   0.73342   0.74160   0.74863   0.75430
 Alpha virt. eigenvalues --    0.75744   0.76430   0.76755   0.77095   0.77727
 Alpha virt. eigenvalues --    0.77997   0.78095   0.79145   0.80523   0.80978
 Alpha virt. eigenvalues --    0.81680   0.83258   0.84605   0.88227   0.90644
 Alpha virt. eigenvalues --    0.93632   0.95754   0.98445   0.98944   0.99751
 Alpha virt. eigenvalues --    1.04221   1.05432   1.09689   1.10781   1.12543
 Alpha virt. eigenvalues --    1.14453   1.16056   1.17938   1.20144   1.21387
 Alpha virt. eigenvalues --    1.24338   1.25063   1.26542   1.29338   1.30807
 Alpha virt. eigenvalues --    1.32409   1.34437   1.37194   1.38430   1.42175
 Alpha virt. eigenvalues --    1.42776   1.43473   1.45305   1.45366   1.49149
 Alpha virt. eigenvalues --    1.53237   1.53684   1.54347   1.59085   1.60698
 Alpha virt. eigenvalues --    1.61272   1.61949   1.68834   1.70773   1.73625
 Alpha virt. eigenvalues --    1.75933   1.76461   1.78450   1.79194   1.80545
 Alpha virt. eigenvalues --    1.81834   1.83102   1.83560   1.84964   1.85224
 Alpha virt. eigenvalues --    1.85648   1.86020   1.86664   1.87320   1.88464
 Alpha virt. eigenvalues --    1.88747   1.89183   1.90289   1.90761   1.92389
 Alpha virt. eigenvalues --    1.94834   1.95437   1.96042   1.97103   1.97606
 Alpha virt. eigenvalues --    1.99560   2.02027   2.02603   2.04680   2.06923
 Alpha virt. eigenvalues --    2.09167   2.11424   2.12194   2.14262   2.17440
 Alpha virt. eigenvalues --    2.20798   2.23196   2.23782   2.27384   2.28763
 Alpha virt. eigenvalues --    2.28872   2.31633   2.36143   2.38833   2.42806
 Alpha virt. eigenvalues --    2.43200   2.44025   2.44500   2.44967   2.48101
 Alpha virt. eigenvalues --    2.48363   2.52759   2.55502   2.57456   2.59520
 Alpha virt. eigenvalues --    2.61326   2.62174   2.65607   2.69528   2.69712
 Alpha virt. eigenvalues --    2.73174   2.74774   2.76398   2.77695   2.80281
 Alpha virt. eigenvalues --    2.84200   2.85337   2.88351   2.88587   2.92281
 Alpha virt. eigenvalues --    2.94019   2.96265   2.99679   2.99919   3.00756
 Alpha virt. eigenvalues --    3.02638   3.03775   3.05376   3.06753   3.09951
 Alpha virt. eigenvalues --    3.11449   3.13312   3.16598   3.18526   3.19835
 Alpha virt. eigenvalues --    3.29650   3.31808   3.40136   3.51001   3.55822
 Alpha virt. eigenvalues --    3.59257   3.68706   3.79052   3.83529
          Condensed to atoms (all electrons):
               1          2          3          4          5          6
     1  C    4.606133   0.446593  -0.036631  -0.008097  -0.008655  -0.002303
     2  C    0.446593   4.453457   0.250915  -0.032552   0.001750   0.009749
     3  O   -0.036631   0.250915   7.983607   0.415150  -0.084107  -0.162464
     4  C   -0.008097  -0.032552   0.415150   4.575457   0.737527   0.092763
     5  O   -0.008655   0.001750  -0.084107   0.737527   7.658965  -0.107423
     6  C   -0.002303   0.009749  -0.162464   0.092763  -0.107423   5.861457
     7  C    0.000160  -0.000209   0.014690  -0.029478   0.002351   0.434891
     8  N    0.000000   0.000004   0.000307   0.006809  -0.000007  -0.037290
     9  C   -0.000000   0.000002  -0.000033   0.000484  -0.000030  -0.055661
    10  C   -0.000000   0.000006   0.000005   0.014613   0.000308  -0.061309
    11  C    0.000006   0.000019  -0.000376  -0.056980   0.002626   0.362131
    12  O   -0.000004   0.000013  -0.000013   0.007500  -0.006710  -0.101899
    13  C    0.000000  -0.000000   0.000001  -0.000723  -0.000143   0.008639
    14  C    0.000000  -0.000000   0.000000  -0.000205   0.000120   0.000418
    15  H    0.382447  -0.016566   0.003616   0.000297  -0.000062   0.000051
    16  H    0.387215  -0.020798   0.001530   0.000051   0.000222  -0.000127
    17  H    0.394004  -0.015370  -0.005659   0.003944   0.008899   0.000212
    18  H   -0.029893   0.389316  -0.027880  -0.006666   0.017431   0.002453
    19  H   -0.026799   0.390420  -0.024533   0.004577   0.000383   0.000483
    20  H    0.000044  -0.000276   0.013440  -0.013263   0.000212  -0.060707
    21  H   -0.000000   0.000000  -0.000000   0.000065  -0.000000   0.001216
    22  H    0.000000  -0.000000   0.000001  -0.000126   0.000003   0.012513
    23  H   -0.000000   0.000000  -0.000000   0.000021  -0.000035  -0.000489
    24  H   -0.000000   0.000000  -0.000000   0.000112  -0.000035  -0.000478
    25  H   -0.000000   0.000000   0.000000   0.000081   0.000096  -0.000204
    26  H   -0.000000   0.000000   0.000000   0.000008   0.000001  -0.000002
    27  H    0.000000   0.000000   0.000000   0.000081   0.000261  -0.000196
               7          8          9         10         11         12
     1  C    0.000160   0.000000  -0.000000  -0.000000   0.000006  -0.000004
     2  C   -0.000209   0.000004   0.000002   0.000006   0.000019   0.000013
     3  O    0.014690   0.000307  -0.000033   0.000005  -0.000376  -0.000013
     4  C   -0.029478   0.006809   0.000484   0.014613  -0.056980   0.007500
     5  O    0.002351  -0.000007  -0.000030   0.000308   0.002626  -0.006710
     6  C    0.434891  -0.037290  -0.055661  -0.061309   0.362131  -0.101899
     7  C    4.698382   0.529081  -0.068629  -0.050679  -0.040402   0.001303
     8  N    0.529081   6.291224   0.527257  -0.041751  -0.057237  -0.000073
     9  C   -0.068629   0.527257   4.715392   0.424649   0.006617   0.003193
    10  C   -0.050679  -0.041751   0.424649   5.166882   0.408098  -0.077287
    11  C   -0.040402  -0.057237   0.006617   0.408098   4.772238   0.461311
    12  O    0.001303  -0.000073   0.003193  -0.077287   0.461311   7.829764
    13  C   -0.000099   0.000006   0.000715  -0.003145  -0.050640   0.278600
    14  C    0.000012   0.000000  -0.000011   0.000654   0.004653  -0.050904
    15  H   -0.000002  -0.000000   0.000000   0.000000  -0.000001   0.000000
    16  H    0.000044   0.000000  -0.000000   0.000000  -0.000020   0.000000
    17  H   -0.000085   0.000000   0.000000  -0.000000   0.000081   0.000002
    18  H    0.000004   0.000002  -0.000000  -0.000001  -0.000087   0.000003
    19  H   -0.000297  -0.000004   0.000000  -0.000000   0.000026   0.000000
    20  H    0.429862  -0.034270   0.004523   0.000788   0.006437  -0.000052
    21  H    0.004519  -0.038183   0.422034  -0.065826   0.005696  -0.000076
    22  H    0.000296   0.005719  -0.038511   0.424936  -0.065532  -0.007769
    23  H   -0.000029  -0.000015   0.000389   0.007860  -0.008874  -0.028088
    24  H   -0.000053  -0.000013   0.000383   0.007654  -0.008201  -0.028342
    25  H   -0.000002  -0.000000   0.000002   0.000056   0.000004   0.002401
    26  H   -0.000000   0.000000  -0.000002   0.000021  -0.000022   0.003426
    27  H   -0.000002  -0.000000   0.000002   0.000055  -0.000033   0.002300
              13         14         15         16         17         18
     1  C    0.000000   0.000000   0.382447   0.387215   0.394004  -0.029893
     2  C   -0.000000  -0.000000  -0.016566  -0.020798  -0.015370   0.389316
     3  O    0.000001   0.000000   0.003616   0.001530  -0.005659  -0.027880
     4  C   -0.000723  -0.000205   0.000297   0.000051   0.003944  -0.006666
     5  O   -0.000143   0.000120  -0.000062   0.000222   0.008899   0.017431
     6  C    0.008639   0.000418   0.000051  -0.000127   0.000212   0.002453
     7  C   -0.000099   0.000012  -0.000002   0.000044  -0.000085   0.000004
     8  N    0.000006   0.000000  -0.000000   0.000000   0.000000   0.000002
     9  C    0.000715  -0.000011   0.000000  -0.000000   0.000000  -0.000000
    10  C   -0.003145   0.000654   0.000000   0.000000  -0.000000  -0.000001
    11  C   -0.050640   0.004653  -0.000001  -0.000020   0.000081  -0.000087
    12  O    0.278600  -0.050904   0.000000   0.000000   0.000002   0.000003
    13  C    4.515667   0.421557   0.000000  -0.000000  -0.000000   0.000000
    14  C    0.421557   4.560761  -0.000000  -0.000000   0.000000  -0.000000
    15  H    0.000000  -0.000000   0.624473  -0.017457  -0.017539  -0.001221
    16  H   -0.000000  -0.000000  -0.017457   0.625158  -0.023737   0.007674
    17  H   -0.000000   0.000000  -0.017539  -0.023737   0.597099  -0.010226
    18  H    0.000000  -0.000000  -0.001221   0.007674  -0.010226   0.639206
    19  H    0.000000  -0.000000  -0.003171  -0.009353   0.006555  -0.029020
    20  H    0.000006  -0.000000  -0.000003   0.000043  -0.000010   0.000146
    21  H   -0.000059  -0.000001  -0.000000   0.000000   0.000000   0.000000
    22  H    0.005315   0.000475  -0.000000   0.000000  -0.000000   0.000000
    23  H    0.392069  -0.027018  -0.000000   0.000000  -0.000000   0.000000
    24  H    0.392569  -0.026288   0.000000   0.000000   0.000000   0.000000
    25  H   -0.018142   0.393683   0.000000  -0.000000   0.000002  -0.000000
    26  H   -0.013353   0.378267   0.000000  -0.000000   0.000000  -0.000000
    27  H   -0.017816   0.394741  -0.000000  -0.000000  -0.000000  -0.000000
              19         20         21         22         23         24
     1  C   -0.026799   0.000044  -0.000000   0.000000  -0.000000  -0.000000
     2  C    0.390420  -0.000276   0.000000  -0.000000   0.000000   0.000000
     3  O   -0.024533   0.013440  -0.000000   0.000001  -0.000000  -0.000000
     4  C    0.004577  -0.013263   0.000065  -0.000126   0.000021   0.000112
     5  O    0.000383   0.000212  -0.000000   0.000003  -0.000035  -0.000035
     6  C    0.000483  -0.060707   0.001216   0.012513  -0.000489  -0.000478
     7  C   -0.000297   0.429862   0.004519   0.000296  -0.000029  -0.000053
     8  N   -0.000004  -0.034270  -0.038183   0.005719  -0.000015  -0.000013
     9  C    0.000000   0.004523   0.422034  -0.038511   0.000389   0.000383
    10  C   -0.000000   0.000788  -0.065826   0.424936   0.007860   0.007654
    11  C    0.000026   0.006437   0.005696  -0.065532  -0.008874  -0.008201
    12  O    0.000000  -0.000052  -0.000076  -0.007769  -0.028088  -0.028342
    13  C    0.000000   0.000006  -0.000059   0.005315   0.392069   0.392569
    14  C   -0.000000  -0.000000  -0.000001   0.000475  -0.027018  -0.026288
    15  H   -0.003171  -0.000003  -0.000000  -0.000000  -0.000000   0.000000
    16  H   -0.009353   0.000043   0.000000   0.000000   0.000000   0.000000
    17  H    0.006555  -0.000010   0.000000  -0.000000  -0.000000   0.000000
    18  H   -0.029020   0.000146   0.000000   0.000000   0.000000   0.000000
    19  H    0.647963  -0.000326   0.000000   0.000000  -0.000000   0.000000
    20  H   -0.000326   0.608180  -0.000298   0.000044   0.000000  -0.000000
    21  H    0.000000  -0.000298   0.638545  -0.006778   0.000018   0.000015
    22  H    0.000000   0.000044  -0.006778   0.646382   0.000190   0.000393
    23  H   -0.000000   0.000000   0.000018   0.000190   0.675715  -0.047371
    24  H    0.000000  -0.000000   0.000015   0.000393  -0.047371   0.672505
    25  H    0.000000  -0.000000   0.000000  -0.000001  -0.011040   0.007741
    26  H    0.000000   0.000000   0.000000   0.000029  -0.002350  -0.002595
    27  H   -0.000000  -0.000000   0.000000  -0.000002   0.007634  -0.010811
              25         26         27
     1  C   -0.000000  -0.000000   0.000000
     2  C    0.000000   0.000000   0.000000
     3  O    0.000000   0.000000   0.000000
     4  C    0.000081   0.000008   0.000081
     5  O    0.000096   0.000001   0.000261
     6  C   -0.000204  -0.000002  -0.000196
     7  C   -0.000002  -0.000000  -0.000002
     8  N   -0.000000   0.000000  -0.000000
     9  C    0.000002  -0.000002   0.000002
    10  C    0.000056   0.000021   0.000055
    11  C    0.000004  -0.000022  -0.000033
    12  O    0.002401   0.003426   0.002300
    13  C   -0.018142  -0.013353  -0.017816
    14  C    0.393683   0.378267   0.394741
    15  H    0.000000   0.000000  -0.000000
    16  H   -0.000000  -0.000000  -0.000000
    17  H    0.000002   0.000000  -0.000000
    18  H   -0.000000  -0.000000  -0.000000
    19  H    0.000000   0.000000  -0.000000
    20  H   -0.000000   0.000000  -0.000000
    21  H    0.000000   0.000000   0.000000
    22  H   -0.000001   0.000029  -0.000002
    23  H   -0.011040  -0.002350   0.007634
    24  H    0.007741  -0.002595  -0.010811
    25  H    0.606723  -0.017554  -0.021844
    26  H   -0.017554   0.629405  -0.017047
    27  H   -0.021844  -0.017047   0.599378
 Mulliken charges:
               1
     1  C   -0.104219
     2  C    0.143529
     3  O   -0.341564
     4  C    0.288551
     5  O   -0.223947
     6  C   -0.196422
     7  C    0.074371
     8  N   -0.151565
     9  C    0.057236
    10  C   -0.156588
    11  C    0.258464
    12  O   -0.288599
    13  C    0.088976
    14  C   -0.050913
    15  H    0.045138
    16  H    0.049555
    17  H    0.061829
    18  H    0.048760
    19  H    0.043095
    20  H    0.045480
    21  H    0.039114
    22  H    0.022423
    23  H    0.041415
    24  H    0.042815
    25  H    0.057997
    26  H    0.041769
    27  H    0.063300
 Sum of Mulliken charges =  -0.00000
 Mulliken charges with hydrogens summed into heavy atoms:
               1
     1  C    0.052303
     2  C    0.235384
     3  O   -0.341564
     4  C    0.288551
     5  O   -0.223947
     6  C   -0.196422
     7  C    0.119851
     8  N   -0.151565
     9  C    0.096349
    10  C   -0.134165
    11  C    0.258464
    12  O   -0.288599
    13  C    0.173206
    14  C    0.112153
 Electronic spatial extent (au):  <R**2>=           3346.5802
 Charge=             -0.0000 electrons
 Dipole moment (field-independent basis, Debye):
    X=              1.5171    Y=             -1.5659    Z=              0.6134  Tot=              2.2649
 Quadrupole moment (field-independent basis, Debye-Ang):
   XX=            -60.7504   YY=            -90.4962   ZZ=            -82.7970
   XY=             -2.8949   XZ=              1.0996   YZ=             -1.8347
 Traceless Quadrupole moment (field-independent basis, Debye-Ang):
   XX=             17.2641   YY=            -12.4817   ZZ=             -4.7825
   XY=             -2.8949   XZ=              1.0996   YZ=             -1.8347
 Octapole moment (field-independent basis, Debye-Ang**2):
  XXX=            -11.8504  YYY=            -49.6097  ZZZ=             -3.5086  XYY=              9.5297
  XXY=            -11.6112  XXZ=             -0.9066  XZZ=             -5.2810  YZZ=             -6.2244
  YYZ=              1.9254  XYZ=              2.8581
 Hexadecapole moment (field-independent basis, Debye-Ang**3):
 XXXX=          -2397.5412 YYYY=          -1705.7326 ZZZZ=           -173.3194 XXXY=              4.7985
 XXXZ=             27.3682 YYYX=            -32.5782 YYYZ=             -1.7494 ZZZX=              4.3284
 ZZZY=              3.9608 XXYY=           -643.6078 XXZZ=           -480.4603 YYZZ=           -294.5461
 XXYZ=              3.9433 YYXZ=              5.2426 ZZXY=             -9.7015
 N-N= 8.940339917872D+02 E-N=-3.345583907963D+03  KE= 6.621430849112D+02
   1 Symmetry operations used in ECPInt.
 ECPInt:  NShTT=    7626 NPrTT=   27482 LenC2=    7140 LenP2D=   18461.
 LDataN:  DoStor=T MaxTD1= 5 Len=  102
 Calling FoFJK, ICntrl=      2127 FMM=F ISym2X=0 I1Cent= 0 IOpClX= 0 NMat=1 NMatS=1 NMatT=0.
 ***** Axes restored to original set *****
 -------------------------------------------------------------------
 Center     Atomic                   Forces (Hartrees/Bohr)
 Number     Number              X              Y              Z
 -------------------------------------------------------------------
      1        6           0.000006583   -0.000000919   -0.000005061
      2        6           0.000005529    0.000003274    0.000003668
      3        8          -0.000006404    0.000005666   -0.000007279
      4        6          -0.000000388   -0.000013501    0.000006899
      5        8          -0.000000238    0.000006741   -0.000002777
      6        6          -0.000000035   -0.000004352   -0.000001290
      7        6          -0.000013140    0.000007706   -0.000004739
      8        7           0.000002797   -0.000003258    0.000001118
      9        6           0.000004521   -0.000008965    0.000001092
     10        6          -0.000003139    0.000006618   -0.000002210
     11        6           0.000002400    0.000001831    0.000007296
     12        8          -0.000004749   -0.000001680   -0.000000702
     13        6           0.000006592   -0.000001107   -0.000006718
     14        6          -0.000004090   -0.000003329   -0.000001370
     15        1          -0.000000085    0.000002730    0.000002015
     16        1           0.000000557    0.000002140   -0.000000330
     17        1          -0.000002457    0.000003195    0.000000156
     18        1           0.000001546    0.000001522   -0.000000420
     19        1          -0.000002914    0.000005814    0.000000902
     20        1           0.000002379   -0.000003558    0.000000562
     21        1           0.000005887    0.000002672   -0.000001910
     22        1           0.000003141   -0.000002848   -0.000000488
     23        1          -0.000001266   -0.000003953    0.000005035
     24        1          -0.000002188   -0.000000858    0.000001150
     25        1          -0.000001092    0.000001445    0.000001709
     26        1           0.000001625   -0.000002499    0.000000968
     27        1          -0.000001373   -0.000000526    0.000002721
 -------------------------------------------------------------------
 Cartesian Forces:  Max     0.000013501 RMS     0.000004209

 GradGradGradGradGradGradGradGradGradGradGradGradGradGradGradGradGradGrad
 Berny optimization.
 FormGI is forming the generalized inverse of G from B-inverse, IUseBI=4.
 Internal  Forces:  Max     0.000011908 RMS     0.000003038
 Search for a local minimum.
 Step number   1 out of a maximum of  134
 All quantities printed in internal units (Hartrees-Bohrs-Radians)
 Mixed Optimization -- En-DIIS/RFO-DIIS
 Second derivative matrix not updated -- first step.
 ITU=  0
     Eigenvalues ---    0.00551   0.00611   0.00859   0.01339   0.01365
     Eigenvalues ---    0.01495   0.01637   0.01974   0.02110   0.02134
     Eigenvalues ---    0.02183   0.02263   0.02343   0.02445   0.02508
     Eigenvalues ---    0.02652   0.05012   0.05459   0.05693   0.05711
     Eigenvalues ---    0.05802   0.05813   0.05817   0.05898   0.11251
     Eigenvalues ---    0.11733   0.13644   0.13907   0.16000   0.16000
     Eigenvalues ---    0.16000   0.16000   0.16000   0.16000   0.16000
     Eigenvalues ---    0.16000   0.16000   0.21953   0.22058   0.22335
     Eigenvalues ---    0.23246   0.24568   0.24996   0.24998   0.24998
     Eigenvalues ---    0.25000   0.25000   0.25000   0.30734   0.31182
     Eigenvalues ---    0.33129   0.33147   0.33171   0.33678   0.33702
     Eigenvalues ---    0.33712   0.33768   0.33816   0.33827   0.33830
     Eigenvalues ---    0.33859   0.34137   0.34473   0.34948   0.41430
     Eigenvalues ---    0.41467   0.42484   0.43245   0.44973   0.46622
     Eigenvalues ---    0.56520   0.57192   0.58601   0.60125   1.03419
 RFO step:  Lambda= 0.00000000D+00 EMin= 5.51424389D-03
 Linear search not attempted -- first point.
 Iteration  1 RMS(Cart)=  0.00006232 RMS(Int)=  0.00000000
 Iteration  2 RMS(Cart)=  0.00000000 RMS(Int)=  0.00000000
 Variable       Old X    -DE/DX   Delta X   Delta X   Delta X     New X
                                 (Linear)    (Quad)   (Total)
    R1        2.86524   0.00000   0.00000   0.00000   0.00000   2.86524
    R2        2.07878   0.00000   0.00000   0.00000   0.00000   2.07878
    R3        2.07819  -0.00000   0.00000  -0.00000  -0.00000   2.07819
    R4        2.07622   0.00000   0.00000   0.00001   0.00001   2.07623
    R5        2.69607   0.00001   0.00000   0.00003   0.00003   2.69610
    R6        2.07835  -0.00000   0.00000  -0.00000  -0.00000   2.07835
    R7        2.07569  -0.00001   0.00000  -0.00002  -0.00002   2.07567
    R8        2.53805  -0.00000   0.00000  -0.00000  -0.00000   2.53805
    R9        2.27300   0.00001   0.00000   0.00001   0.00001   2.27300
   R10        2.82126   0.00000   0.00000   0.00001   0.00001   2.82127
   R11        2.64481  -0.00000   0.00000  -0.00000  -0.00000   2.64480
   R12        2.67437  -0.00000   0.00000  -0.00001  -0.00001   2.67437
   R13        2.51211  -0.00000   0.00000  -0.00001  -0.00001   2.51211
   R14        2.06540   0.00000   0.00000   0.00001   0.00001   2.06541
   R15        2.51351  -0.00000   0.00000  -0.00001  -0.00001   2.51350
   R16        2.62817   0.00001   0.00000   0.00001   0.00001   2.62818
   R17        2.07099  -0.00001   0.00000  -0.00002  -0.00002   2.07097
   R18        2.65104  -0.00000   0.00000  -0.00000  -0.00000   2.65104
   R19        2.05760  -0.00000   0.00000  -0.00001  -0.00001   2.05759
   R20        2.50841  -0.00000   0.00000  -0.00000  -0.00000   2.50841
   R21        2.67369  -0.00001   0.00000  -0.00001  -0.00001   2.67368
   R22        2.85667  -0.00000   0.00000  -0.00000  -0.00000   2.85667
   R23        2.08793   0.00000   0.00000   0.00001   0.00001   2.08795
   R24        2.08753   0.00000   0.00000   0.00000   0.00000   2.08753
   R25        2.07641   0.00000   0.00000   0.00000   0.00000   2.07642
   R26        2.07724  -0.00000   0.00000  -0.00001  -0.00001   2.07723
   R27        2.07618  -0.00000   0.00000  -0.00000  -0.00000   2.07618
    A1        1.91771   0.00000   0.00000   0.00002   0.00002   1.91774
    A2        1.93325   0.00000   0.00000   0.00000   0.00000   1.93325
    A3        1.92973  -0.00000   0.00000  -0.00001  -0.00001   1.92973
    A4        1.89113  -0.00000   0.00000  -0.00001  -0.00001   1.89112
    A5        1.88919  -0.00000   0.00000  -0.00000  -0.00000   1.88918
    A6        1.90184  -0.00000   0.00000  -0.00000  -0.00000   1.90184
    A7        1.94975   0.00001   0.00000   0.00004   0.00004   1.94979
    A8        1.93382  -0.00000   0.00000  -0.00000  -0.00000   1.93382
    A9        1.94140  -0.00000   0.00000  -0.00002  -0.00002   1.94137
   A10        1.90524  -0.00000   0.00000   0.00001   0.00001   1.90525
   A11        1.82867  -0.00000   0.00000  -0.00002  -0.00002   1.82866
   A12        1.90159   0.00000   0.00000  -0.00001  -0.00001   1.90157
   A13        2.04745   0.00001   0.00000   0.00004   0.00004   2.04750
   A14        2.14782  -0.00001   0.00000  -0.00003  -0.00003   2.14780
   A15        1.93772   0.00001   0.00000   0.00005   0.00005   1.93776
   A16        2.19754  -0.00001   0.00000  -0.00002  -0.00002   2.19752
   A17        2.10096   0.00001   0.00000   0.00004   0.00004   2.10100
   A18        2.12901  -0.00001   0.00000  -0.00003  -0.00003   2.12898
   A19        2.05312  -0.00000   0.00000  -0.00001  -0.00001   2.05311
   A20        2.18102   0.00001   0.00000   0.00002   0.00002   2.18104
   A21        2.06390   0.00000   0.00000   0.00001   0.00001   2.06391
   A22        2.03825  -0.00001   0.00000  -0.00003  -0.00003   2.03822
   A23        2.03573  -0.00000   0.00000  -0.00002  -0.00002   2.03571
   A24        2.17103   0.00000   0.00000   0.00001   0.00001   2.17104
   A25        2.03286  -0.00000   0.00000  -0.00000  -0.00000   2.03285
   A26        2.07929  -0.00000   0.00000  -0.00000  -0.00000   2.07929
   A27        2.07482  -0.00000   0.00000  -0.00000  -0.00000   2.07482
   A28        2.08548  -0.00000   0.00000  -0.00000  -0.00000   2.08547
   A29        2.12288   0.00000   0.00000   0.00000   0.00000   2.12289
   A30        2.05060  -0.00000   0.00000   0.00000   0.00000   2.05060
   A31        2.07243  -0.00000   0.00000  -0.00000  -0.00000   2.07243
   A32        2.16007   0.00000   0.00000   0.00000   0.00000   2.16008
   A33        2.10413  -0.00000   0.00000  -0.00000  -0.00000   2.10413
   A34        1.87891   0.00000   0.00000   0.00000   0.00000   1.87892
   A35        1.91641  -0.00000   0.00000  -0.00001  -0.00001   1.91639
   A36        1.91490   0.00000   0.00000   0.00001   0.00001   1.91491
   A37        1.93700   0.00000   0.00000   0.00000   0.00000   1.93700
   A38        1.93570  -0.00000   0.00000  -0.00000  -0.00000   1.93570
   A39        1.88114  -0.00000   0.00000  -0.00000  -0.00000   1.88113
   A40        1.92857   0.00000   0.00000   0.00002   0.00002   1.92858
   A41        1.92171  -0.00000   0.00000  -0.00000  -0.00000   1.92171
   A42        1.92687   0.00000   0.00000   0.00000   0.00000   1.92687
   A43        1.89784  -0.00000   0.00000  -0.00001  -0.00001   1.89783
   A44        1.88841  -0.00000   0.00000  -0.00001  -0.00001   1.88840
   A45        1.89970  -0.00000   0.00000  -0.00000  -0.00000   1.89970
    D1        3.06228  -0.00000   0.00000  -0.00004  -0.00004   3.06224
    D2       -1.09245   0.00000   0.00000   0.00001   0.00001  -1.09244
    D3        1.02559  -0.00000   0.00000  -0.00003  -0.00003   1.02556
    D4        0.97343  -0.00000   0.00000  -0.00004  -0.00004   0.97339
    D5        3.10189   0.00000   0.00000   0.00001   0.00001   3.10189
    D6       -1.06326  -0.00000   0.00000  -0.00003  -0.00003  -1.06329
    D7       -1.13668  -0.00000   0.00000  -0.00003  -0.00003  -1.13671
    D8        0.99178   0.00000   0.00000   0.00001   0.00001   0.99179
    D9        3.10982  -0.00000   0.00000  -0.00002  -0.00002   3.10979
   D10        1.45389   0.00000   0.00000   0.00001   0.00001   1.45390
   D11       -0.69093  -0.00000   0.00000  -0.00002  -0.00002  -0.69095
   D12       -2.72541   0.00000   0.00000  -0.00001  -0.00001  -2.72542
   D13       -0.01098   0.00000   0.00000   0.00005   0.00005  -0.01092
   D14        3.11619   0.00000   0.00000   0.00003   0.00003   3.11622
   D15       -0.25672  -0.00000   0.00000  -0.00003  -0.00003  -0.25675
   D16        2.90049   0.00000   0.00000  -0.00001  -0.00001   2.90048
   D17        2.86995  -0.00000   0.00000  -0.00006  -0.00006   2.86989
   D18       -0.25603  -0.00000   0.00000  -0.00004  -0.00004  -0.25606
   D19       -3.11448  -0.00000   0.00000  -0.00002  -0.00002  -3.11449
   D20        0.02135   0.00000   0.00000   0.00005   0.00005   0.02140
   D21        0.01217  -0.00000   0.00000  -0.00004  -0.00004   0.01213
   D22       -3.13520   0.00000   0.00000   0.00003   0.00003  -3.13516
   D23        3.11666  -0.00000   0.00000  -0.00003  -0.00003   3.11662
   D24       -0.03807   0.00000   0.00000   0.00007   0.00007  -0.03800
   D25       -0.00973  -0.00000   0.00000  -0.00002  -0.00002  -0.00974
   D26        3.11873   0.00000   0.00000   0.00008   0.00008   3.11882
   D27       -0.00649   0.00000   0.00000   0.00005   0.00005  -0.00644
   D28        3.14080  -0.00000   0.00000  -0.00002  -0.00002   3.14078
   D29       -0.00134  -0.00000   0.00000  -0.00001  -0.00001  -0.00135
   D30       -3.14009  -0.00000   0.00000  -0.00005  -0.00005  -3.14015
   D31        0.00290  -0.00000   0.00000  -0.00004  -0.00004   0.00286
   D32       -3.13504  -0.00000   0.00000  -0.00004  -0.00004  -3.13507
   D33        3.14158   0.00000   0.00000   0.00000   0.00000   3.14158
   D34        0.00365   0.00000   0.00000   0.00000   0.00000   0.00365
   D35        0.00295   0.00000   0.00000   0.00005   0.00005   0.00300
   D36       -3.12479  -0.00000   0.00000  -0.00005  -0.00005  -3.12484
   D37        3.14081   0.00000   0.00000   0.00005   0.00005   3.14086
   D38        0.01306  -0.00000   0.00000  -0.00006  -0.00006   0.01301
   D39        3.13651  -0.00000   0.00000  -0.00006  -0.00006   3.13645
   D40       -0.01910   0.00000   0.00000   0.00005   0.00005  -0.01905
   D41       -3.13082   0.00000   0.00000  -0.00000  -0.00000  -3.13082
   D42        1.04176  -0.00000   0.00000   0.00000   0.00000   1.04176
   D43       -1.02266   0.00000   0.00000   0.00001   0.00001  -1.02265
   D44       -1.05071   0.00000   0.00000  -0.00003  -0.00003  -1.05074
   D45        3.13568   0.00000   0.00000  -0.00003  -0.00003   3.13565
   D46        1.03766   0.00000   0.00000  -0.00003  -0.00003   1.03763
   D47        1.04694  -0.00000   0.00000  -0.00005  -0.00005   1.04689
   D48       -1.04986  -0.00000   0.00000  -0.00004  -0.00004  -1.04990
   D49        3.13530  -0.00000   0.00000  -0.00004  -0.00004   3.13526
   D50        3.13744  -0.00000   0.00000  -0.00005  -0.00005   3.13739
   D51        1.04064  -0.00000   0.00000  -0.00005  -0.00005   1.04060
   D52       -1.05738  -0.00000   0.00000  -0.00005  -0.00005  -1.05743
         Item               Value     Threshold  Converged?
 Maximum Force            0.000012     0.000450     YES
 RMS     Force            0.000003     0.000300     YES
 Maximum Displacement     0.000190     0.001800     YES
 RMS     Displacement     0.000062     0.001200     YES
 Predicted change in Energy=-2.728714D-09
 Optimization completed.
    -- Stationary point found.
                           ----------------------------
                           !   Optimized Parameters   !
                           ! (Angstroms and Degrees)  !
 --------------------------                            --------------------------
 ! Name  Definition              Value          Derivative Info.                !
 --------------------------------------------------------------------------------
 ! R1    R(1,2)                  1.5162         -DE/DX =    0.0                 !
 ! R2    R(1,15)                 1.1            -DE/DX =    0.0                 !
 ! R3    R(1,16)                 1.0997         -DE/DX =    0.0                 !
 ! R4    R(1,17)                 1.0987         -DE/DX =    0.0                 !
 ! R5    R(2,3)                  1.4267         -DE/DX =    0.0                 !
 ! R6    R(2,18)                 1.0998         -DE/DX =    0.0                 !
 ! R7    R(2,19)                 1.0984         -DE/DX =    0.0                 !
 ! R8    R(3,4)                  1.3431         -DE/DX =    0.0                 !
 ! R9    R(4,5)                  1.2028         -DE/DX =    0.0                 !
 ! R10   R(4,6)                  1.4929         -DE/DX =    0.0                 !
 ! R11   R(6,7)                  1.3996         -DE/DX =    0.0                 !
 ! R12   R(6,11)                 1.4152         -DE/DX =    0.0                 !
 ! R13   R(7,8)                  1.3294         -DE/DX =    0.0                 !
 ! R14   R(7,20)                 1.093          -DE/DX =    0.0                 !
 ! R15   R(8,9)                  1.3301         -DE/DX =    0.0                 !
 ! R16   R(9,10)                 1.3908         -DE/DX =    0.0                 !
 ! R17   R(9,21)                 1.0959         -DE/DX =    0.0                 !
 ! R18   R(10,11)                1.4029         -DE/DX =    0.0                 !
 ! R19   R(10,22)                1.0888         -DE/DX =    0.0                 !
 ! R20   R(11,12)                1.3274         -DE/DX =    0.0                 !
 ! R21   R(12,13)                1.4149         -DE/DX =    0.0                 !
 ! R22   R(13,14)                1.5117         -DE/DX =    0.0                 !
 ! R23   R(13,23)                1.1049         -DE/DX =    0.0                 !
 ! R24   R(13,24)                1.1047         -DE/DX =    0.0                 !
 ! R25   R(14,25)                1.0988         -DE/DX =    0.0                 !
 ! R26   R(14,26)                1.0992         -DE/DX =    0.0                 !
 ! R27   R(14,27)                1.0987         -DE/DX =    0.0                 !
 ! A1    A(2,1,15)             109.8769         -DE/DX =    0.0                 !
 ! A2    A(2,1,16)             110.7668         -DE/DX =    0.0                 !
 ! A3    A(2,1,17)             110.5655         -DE/DX =    0.0                 !
 ! A4    A(15,1,16)            108.3535         -DE/DX =    0.0                 !
 ! A5    A(15,1,17)            108.2424         -DE/DX =    0.0                 !
 ! A6    A(16,1,17)            108.9674         -DE/DX =    0.0                 !
 ! A7    A(1,2,3)              111.7124         -DE/DX =    0.0                 !
 ! A8    A(1,2,18)             110.7998         -DE/DX =    0.0                 !
 ! A9    A(1,2,19)             111.234          -DE/DX =    0.0                 !
 ! A10   A(3,2,18)             109.1622         -DE/DX =    0.0                 !
 ! A11   A(3,2,19)             104.7753         -DE/DX =    0.0                 !
 ! A12   A(18,2,19)            108.9528         -DE/DX =    0.0                 !
 ! A13   A(2,3,4)              117.3105         -DE/DX =    0.0                 !
 ! A14   A(3,4,5)              123.0613         -DE/DX =    0.0                 !
 ! A15   A(3,4,6)              111.023          -DE/DX =    0.0                 !
 ! A16   A(5,4,6)              125.91           -DE/DX =    0.0                 !
 ! A17   A(4,6,7)              120.3762         -DE/DX =    0.0                 !
 ! A18   A(4,6,11)             121.9832         -DE/DX =    0.0                 !
 ! A19   A(7,6,11)             117.6349         -DE/DX =    0.0                 !
 ! A20   A(6,7,8)              124.9631         -DE/DX =    0.0                 !
 ! A21   A(6,7,20)             118.2528         -DE/DX =    0.0                 !
 ! A22   A(8,7,20)             116.7833         -DE/DX =    0.0                 !
 ! A23   A(7,8,9)              116.6388         -DE/DX =    0.0                 !
 ! A24   A(8,9,10)             124.3909         -DE/DX =    0.0                 !
 ! A25   A(8,9,21)             116.4741         -DE/DX =    0.0                 !
 ! A26   A(10,9,21)            119.1348         -DE/DX =    0.0                 !
 ! A27   A(9,10,11)            118.8786         -DE/DX =    0.0                 !
 ! A28   A(9,10,22)            119.4889         -DE/DX =    0.0                 !
 ! A29   A(11,10,22)           121.6322         -DE/DX =    0.0                 !
 ! A30   A(6,11,10)            117.4905         -DE/DX =    0.0                 !
 ! A31   A(6,11,12)            118.7417         -DE/DX =    0.0                 !
 ! A32   A(10,11,12)           123.7632         -DE/DX =    0.0                 !
 ! A33   A(11,12,13)           120.5579         -DE/DX =    0.0                 !
 ! A34   A(12,13,14)           107.6539         -DE/DX =    0.0                 !
 ! A35   A(12,13,23)           109.802          -DE/DX =    0.0                 !
 ! A36   A(12,13,24)           109.7157         -DE/DX =    0.0                 !
 ! A37   A(14,13,23)           110.9819         -DE/DX =    0.0                 !
 ! A38   A(14,13,24)           110.9077         -DE/DX =    0.0                 !
 ! A39   A(23,13,24)           107.7811         -DE/DX =    0.0                 !
 ! A40   A(13,14,25)           110.4987         -DE/DX =    0.0                 !
 ! A41   A(13,14,26)           110.1061         -DE/DX =    0.0                 !
 ! A42   A(13,14,27)           110.4014         -DE/DX =    0.0                 !
 ! A43   A(25,14,26)           108.7383         -DE/DX =    0.0                 !
 ! A44   A(25,14,27)           108.1977         -DE/DX =    0.0                 !
 ! A45   A(26,14,27)           108.845          -DE/DX =    0.0                 !
 ! D1    D(15,1,2,3)           175.4555         -DE/DX =    0.0                 !
 ! D2    D(15,1,2,18)          -62.5929         -DE/DX =    0.0                 !
 ! D3    D(15,1,2,19)           58.7619         -DE/DX =    0.0                 !
 ! D4    D(16,1,2,3)            55.7734         -DE/DX =    0.0                 !
 ! D5    D(16,1,2,18)          177.725          -DE/DX =    0.0                 !
 ! D6    D(16,1,2,19)          -60.9202         -DE/DX =    0.0                 !
 ! D7    D(17,1,2,3)           -65.1269         -DE/DX =    0.0                 !
 ! D8    D(17,1,2,18)           56.8247         -DE/DX =    0.0                 !
 ! D9    D(17,1,2,19)          178.1795         -DE/DX =    0.0                 !
 ! D10   D(1,2,3,4)             83.3018         -DE/DX =    0.0                 !
 ! D11   D(18,2,3,4)           -39.5873         -DE/DX =    0.0                 !
 ! D12   D(19,2,3,4)          -156.1547         -DE/DX =    0.0                 !
 ! D13   D(2,3,4,5)             -0.629          -DE/DX =    0.0                 !
 ! D14   D(2,3,4,6)            178.5448         -DE/DX =    0.0                 !
 ! D15   D(3,4,6,7)            -14.7091         -DE/DX =    0.0                 !
 ! D16   D(3,4,6,11)           166.1856         -DE/DX =    0.0                 !
 ! D17   D(5,4,6,7)            164.4359         -DE/DX =    0.0                 !
 ! D18   D(5,4,6,11)           -14.6693         -DE/DX =    0.0                 !
 ! D19   D(4,6,7,8)           -178.4463         -DE/DX =    0.0                 !
 ! D20   D(4,6,7,20)             1.2231         -DE/DX =    0.0                 !
 ! D21   D(11,6,7,8)             0.697          -DE/DX =    0.0                 !
 ! D22   D(11,6,7,20)         -179.6336         -DE/DX =    0.0                 !
 ! D23   D(4,6,11,10)          178.5714         -DE/DX =    0.0                 !
 ! D24   D(4,6,11,12)           -2.1811         -DE/DX =    0.0                 !
 ! D25   D(7,6,11,10)           -0.5573         -DE/DX =    0.0                 !
 ! D26   D(7,6,11,12)          178.6902         -DE/DX =    0.0                 !
 ! D27   D(6,7,8,9)             -0.3719         -DE/DX =    0.0                 !
 ! D28   D(20,7,8,9)           179.9543         -DE/DX =    0.0                 !
 ! D29   D(7,8,9,10)            -0.0767         -DE/DX =    0.0                 !
 ! D30   D(7,8,9,21)          -179.914          -DE/DX =    0.0                 !
 ! D31   D(8,9,10,11)            0.1661         -DE/DX =    0.0                 !
 ! D32   D(8,9,10,22)         -179.6243         -DE/DX =    0.0                 !
 ! D33   D(21,9,10,11)         179.9994         -DE/DX =    0.0                 !
 ! D34   D(21,9,10,22)           0.209          -DE/DX =    0.0                 !
 ! D35   D(9,10,11,6)            0.1692         -DE/DX =    0.0                 !
 ! D36   D(9,10,11,12)        -179.0371         -DE/DX =    0.0                 !
 ! D37   D(22,10,11,6)         179.9549         -DE/DX =    0.0                 !
 ! D38   D(22,10,11,12)          0.7486         -DE/DX =    0.0                 !
 ! D39   D(6,11,12,13)         179.7088         -DE/DX =    0.0                 !
 ! D40   D(10,11,12,13)         -1.0942         -DE/DX =    0.0                 !
 ! D41   D(11,12,13,14)       -179.3825         -DE/DX =    0.0                 !
 ! D42   D(11,12,13,23)         59.6884         -DE/DX =    0.0                 !
 ! D43   D(11,12,13,24)        -58.594          -DE/DX =    0.0                 !
 ! D44   D(12,13,14,25)        -60.2011         -DE/DX =    0.0                 !
 ! D45   D(12,13,14,26)        179.6614         -DE/DX =    0.0                 !
 ! D46   D(12,13,14,27)         59.4534         -DE/DX =    0.0                 !
 ! D47   D(23,13,14,25)         59.985          -DE/DX =    0.0                 !
 ! D48   D(23,13,14,26)        -60.1525         -DE/DX =    0.0                 !
 ! D49   D(23,13,14,27)        179.6395         -DE/DX =    0.0                 !
 ! D50   D(24,13,14,25)        179.762          -DE/DX =    0.0                 !
 ! D51   D(24,13,14,26)         59.6245         -DE/DX =    0.0                 !
 ! D52   D(24,13,14,27)        -60.5835         -DE/DX =    0.0                 !
 --------------------------------------------------------------------------------
 GradGradGradGradGradGradGradGradGradGradGradGradGradGradGradGradGradGrad

                          Input orientation:                          
 ---------------------------------------------------------------------
 Center     Atomic      Atomic             Coordinates (Angstroms)
 Number     Number       Type             X           Y           Z
 ---------------------------------------------------------------------
      1          6           0        3.931930    1.109020    0.900480
      2          6           0        3.573680    0.300970   -0.331440
      3          8           0        2.378560   -0.453930   -0.138340
      4          6           0        1.210860    0.179610   -0.335740
      5          8           0        1.137970    1.337930   -0.651580
      6          6           0        0.057810   -0.746280   -0.130580
      7          6           0        0.260980   -2.130260   -0.084510
      8          7           0       -0.699980   -3.036760    0.063790
      9          6           0       -1.941790   -2.575400    0.182970
     10          6           0       -2.284360   -1.227630    0.163230
     11          6           0       -1.268940   -0.272720    0.004760
     12          8           0       -1.483710    1.037110   -0.009310
     13          6           0       -2.795350    1.552370    0.116880
     14          6           0       -2.704260    3.059770    0.048760
     15          1           0        4.897400    1.613960    0.748840
     16          1           0        4.016420    0.458050    1.782810
     17          1           0        3.169400    1.875920    1.094210
     18          1           0        3.449380    0.956360   -1.205860
     19          1           0        4.345400   -0.448300   -0.554020
     20          1           0        1.282420   -2.506750   -0.181890
     21          1           0       -2.731690   -3.324950    0.306550
     22          1           0       -3.328180   -0.938240    0.273910
     23          1           0       -3.235190    1.225550    1.076310
     24          1           0       -3.430300    1.158630   -0.696820
     25          1           0       -2.074930    3.444420    0.863210
     26          1           0       -3.706170    3.503250    0.137090
     27          1           0       -2.260030    3.373870   -0.905740
 ---------------------------------------------------------------------
                    Distance matrix (angstroms):
                    1          2          3          4          5
     1  C    0.000000
     2  C    1.516217   0.000000
     3  O    2.436169   1.426700   0.000000
     4  C    3.129899   2.365939   1.343080   0.000000
     5  O    3.204294   2.666544   2.239027   1.202819   0.000000
     6  C    4.417469   3.674019   2.339104   1.492946   2.404603
     7  C    4.993898   4.116532   2.701319   2.510157   3.622019
     8  N    6.272331   5.436986   4.023590   3.762442   4.798721
     9  C    6.970678   6.241677   4.823826   4.218808   5.049312
    10  C    6.681746   6.074368   4.736283   3.800771   4.354119
    11  C    5.455325   4.888059   3.654801   2.543610   2.969544
    12  O    5.491998   5.120826   4.142098   2.846501   2.715918
    13  C    6.787259   6.506269   5.555153   4.258997   4.013418
    14  C    6.969209   6.867901   6.181921   4.875585   4.268248
    15  H    1.100042   2.154804   3.377545   4.101738   4.021279
    16  H    1.099730   2.165813   2.684234   3.526606   3.871165
    17  H    1.098690   2.162496   2.751874   2.959409   2.732018
    18  H    2.166294   1.099817   2.067649   2.524167   2.407372
    19  H    2.170662   1.098408   2.010294   3.204256   3.672566
    20  H    4.611423   3.627055   2.327550   2.691713   3.875957
    21  H    8.026000   7.301508   5.878379   5.313961   6.134715
    22  H    7.569218   7.038307   5.742072   4.714249   5.097448
    23  H    7.170223   7.014080   5.984164   4.780715   4.703484
    24  H    7.533675   7.065750   6.054346   4.757019   4.572011
    25  H    6.444986   6.573832   6.002817   4.784651   4.129723
    26  H    8.040875   7.966827   7.263544   5.953766   5.364355
    27  H    6.836106   6.618512   6.062794   4.751344   3.969389
                    6          7          8          9         10
     6  C    0.000000
     7  C    1.399572   0.000000
     8  N    2.420397   1.329353   0.000000
     9  C    2.728075   2.263159   1.330094   0.000000
    10  C    2.409104   2.711987   2.406886   1.390765   0.000000
    11  C    1.415218   2.408128   2.822608   2.405581   1.402870
    12  O    2.360396   3.616881   4.149216   3.646510   2.408289
    13  C    3.672268   4.789935   5.045147   4.215616   2.826952
    14  C    4.706082   5.978864   6.417557   5.688103   4.309434
    15  H    5.455799   6.017478   7.309525   8.040240   7.745660
    16  H    4.558735   4.928444   6.116629   6.874705   6.720445
    17  H    4.249475   5.088985   6.337846   6.838777   6.343678
    18  H    3.944358   4.577176   5.896966   6.592943   6.286493
    19  H    4.318741   4.442062   5.704180   6.678059   6.713831
    20  H    2.145124   1.092963   2.066683   3.245515   3.804888
    21  H    3.823863   3.245965   2.066357   1.095919   2.149278
    22  H    3.415463   3.798874   3.369773   2.147240   1.088833
    23  H    4.023499   4.983189   5.061598   4.113169   2.784939
    24  H    4.014501   4.981693   5.063050   4.114933   2.783362
    25  H    4.806055   6.118146   6.673474   6.059595   4.728835
    26  H    5.683106   6.893752   7.198214   6.329702   4.939985
    27  H    4.790500   6.109448   6.668577   6.056433   4.724097
                   11         12         13         14         15
    11  C    0.000000
    12  O    1.327395   0.000000
    13  C    2.381901   1.414856   0.000000
    14  C    3.628715   2.363106   1.511685   0.000000
    15  H    6.491299   6.451830   7.718910   7.769538   0.000000
    16  H    5.624101   5.813642   7.097399   7.412383   1.783633
    17  H    5.049992   4.855182   6.052942   6.082298   1.781541
    18  H    5.023821   5.076774   6.411047   6.623118   2.519931
    19  H    5.644810   6.040006   7.446012   7.897316   2.501013
    20  H    3.396346   4.498911   5.761417   6.850764   5.560089
    21  H    3.398062   4.548053   4.881422   6.389981   9.098982
    22  H    2.180786   2.717405   2.551804   4.052660   8.625512
    23  H    2.694285   2.069242   1.104888   2.168435   8.148443
    24  H    2.685601   2.068006   1.104672   2.167339   8.464505
    25  H    3.899190   2.627922   2.157746   1.098791   7.209511
    26  H    4.496171   3.323042   2.153122   1.099227   8.829783
    27  H    3.887015   2.620440   2.156428   1.098667   7.554053
                   16         17         18         19         20
    16  H    0.000000
    17  H    1.789404   0.000000
    18  H    3.082531   2.492850   0.000000
    19  H    2.527938   3.082473   1.789083   0.000000
    20  H    4.486072   4.939324   4.211575   3.709116   0.000000
    21  H    7.875749   7.905208   7.669591   7.687711   4.125664
    22  H    7.626897   7.128179   7.191283   7.733650   4.891381
    23  H    7.326257   6.437552   7.068539   7.932534   5.993491
    24  H    7.879912   6.875924   6.901451   7.941292   5.992486
    25  H    6.846066   5.478736   6.402304   7.640841   6.912341
    26  H    8.462862   7.130059   7.713110   8.995563   7.817153
    27  H    7.424563   5.976819   6.207398   7.639659   6.903231
                   21         22         23         24         25
    21  H    0.000000
[...]
 Alpha virt. eigenvalues --    7.16431   7.25338   7.35673   7.44674   7.53415
 Alpha virt. eigenvalues --    7.56515  22.38700  22.41177  22.54885  22.57324
 Alpha virt. eigenvalues --   22.60596  22.82222  22.94604  23.01027  23.35783
 Alpha virt. eigenvalues --   23.64099  32.54777  44.07508  44.33799  44.53912
          Condensed to atoms (all electrons):
               1          2          3          4          5          6
     1  C    4.965278   0.322872  -0.036744   0.000910  -0.014618  -0.002144
     2  C    0.322872   4.782910   0.219726  -0.040111   0.011108   0.002562
     3  O   -0.036744   0.219726   7.994601   0.377698  -0.084716  -0.153669
     4  C    0.000910  -0.040111   0.377698   4.533598   0.639406   0.205353
     5  O   -0.014618   0.011108  -0.084716   0.639406   7.881223  -0.097143
     6  C   -0.002144   0.002562  -0.153669   0.205353  -0.097143   5.612991
     7  C    0.000735  -0.001817   0.024030  -0.043464   0.003397   0.437478
     8  N   -0.000007   0.000029   0.000112   0.006126  -0.000234  -0.039778
     9  C    0.000006  -0.000022   0.000220  -0.001657   0.000313  -0.030311
    10  C   -0.000014   0.000016  -0.000771   0.008810  -0.001858  -0.060518
    11  C   -0.000061   0.000580  -0.002490  -0.071151   0.011205   0.303783
    12  O   -0.000074   0.000145  -0.000224   0.019801  -0.013961  -0.126184
    13  C    0.000003  -0.000012   0.000008  -0.002197  -0.000195   0.005901
    14  C   -0.000001   0.000000   0.000005   0.000139   0.001241  -0.001323
    15  H    0.397192  -0.032969   0.004108   0.000700   0.000195   0.000043
    16  H    0.395228  -0.030144   0.003163  -0.002297   0.000475  -0.000955
    17  H    0.417680  -0.039087  -0.002969   0.003684   0.006703   0.002369
    18  H   -0.047689   0.428052  -0.035831  -0.011906   0.011098   0.000122
    19  H   -0.030130   0.396261  -0.033387   0.003997   0.001290   0.004063
    20  H    0.000143  -0.000427   0.013056  -0.011188   0.000244  -0.061332
    21  H   -0.000000   0.000000  -0.000001   0.000143  -0.000001   0.002584
    22  H    0.000000  -0.000001   0.000002  -0.000077  -0.000052   0.014283
    23  H    0.000001   0.000001  -0.000001  -0.000163  -0.000078  -0.003042
    24  H   -0.000000  -0.000000  -0.000002   0.000258  -0.000075  -0.002999
    25  H   -0.000002   0.000000  -0.000001   0.000079   0.000014  -0.000540
    26  H   -0.000000   0.000000   0.000000   0.000044   0.000021  -0.000021
    27  H    0.000001  -0.000001   0.000001   0.000009   0.000202  -0.000308
               7          8          9         10         11         12
     1  C    0.000735  -0.000007   0.000006  -0.000014  -0.000061  -0.000074
     2  C   -0.001817   0.000029  -0.000022   0.000016   0.000580   0.000145
     3  O    0.024030   0.000112   0.000220  -0.000771  -0.002490  -0.000224
     4  C   -0.043464   0.006126  -0.001657   0.008810  -0.071151   0.019801
     5  O    0.003397  -0.000234   0.000313  -0.001858   0.011205  -0.013961
     6  C    0.437478  -0.039778  -0.030311  -0.060518   0.303783  -0.126184
     7  C    4.810040   0.515297  -0.099315  -0.028261  -0.004537  -0.000303
     8  N    0.515297   6.439328   0.529610  -0.056715  -0.075008  -0.000229
     9  C   -0.099315   0.529610   4.721854   0.464747   0.004712   0.001184
    10  C   -0.028261  -0.056715   0.464747   5.189635   0.436935  -0.073275
    11  C   -0.004537  -0.075008   0.004712   0.436935   4.863076   0.451262
    12  O   -0.000303  -0.000229   0.001184  -0.073275   0.451262   7.857193
    13  C    0.000027  -0.000203  -0.001262  -0.003494  -0.063785   0.231860
    14  C    0.000037  -0.000010  -0.000011  -0.000212   0.003658  -0.047971
    15  H   -0.000015  -0.000000  -0.000000   0.000000  -0.000008   0.000000
    16  H    0.000103   0.000001   0.000000  -0.000003  -0.000043   0.000002
    17  H   -0.000151   0.000002  -0.000000   0.000005   0.000085   0.000041
    18  H    0.000397   0.000006  -0.000004   0.000010  -0.000690  -0.000002
    19  H   -0.000757  -0.000003  -0.000003   0.000005   0.000049   0.000001
    20  H    0.434602  -0.024519   0.004385   0.000161   0.003347  -0.000089
    21  H    0.002831  -0.028405   0.438042  -0.072680  -0.001800  -0.000118
    22  H   -0.002742   0.007436  -0.015235   0.418138  -0.075457  -0.003261
    23  H    0.000125  -0.000043   0.000042   0.009007  -0.013551  -0.035915
    24  H   -0.000054  -0.000038   0.000177   0.010688  -0.013366  -0.038437
    25  H    0.000005  -0.000000   0.000003   0.000094  -0.000729   0.002339
    26  H   -0.000006   0.000000  -0.000008   0.000111   0.000660   0.004458
    27  H    0.000004  -0.000000   0.000001  -0.000010  -0.000847   0.002261
              13         14         15         16         17         18
     1  C    0.000003  -0.000001   0.397192   0.395228   0.417680  -0.047689
     2  C   -0.000012   0.000000  -0.032969  -0.030144  -0.039087   0.428052
     3  O    0.000008   0.000005   0.004108   0.003163  -0.002969  -0.035831
     4  C   -0.002197   0.000139   0.000700  -0.002297   0.003684  -0.011906
     5  O   -0.000195   0.001241   0.000195   0.000475   0.006703   0.011098
     6  C    0.005901  -0.001323   0.000043  -0.000955   0.002369   0.000122
     7  C    0.000027   0.000037  -0.000015   0.000103  -0.000151   0.000397
     8  N   -0.000203  -0.000010  -0.000000   0.000001   0.000002   0.000006
     9  C   -0.001262  -0.000011  -0.000000   0.000000  -0.000000  -0.000004
    10  C   -0.003494  -0.000212   0.000000  -0.000003   0.000005   0.000010
    11  C   -0.063785   0.003658  -0.000008  -0.000043   0.000085  -0.000690
    12  O    0.231860  -0.047971   0.000000   0.000002   0.000041  -0.000002
    13  C    4.878675   0.323660  -0.000000  -0.000000   0.000001  -0.000003
    14  C    0.323660   4.857789  -0.000000  -0.000000   0.000003  -0.000002
    15  H   -0.000000  -0.000000   0.555948  -0.019359  -0.020723   0.000953
    16  H   -0.000000  -0.000000  -0.019359   0.559013  -0.023237   0.007137
    17  H    0.000001   0.000003  -0.020723  -0.023237   0.510849  -0.005358
    18  H   -0.000003  -0.000002   0.000953   0.007137  -0.005358   0.566884
    19  H    0.000000  -0.000000  -0.002530  -0.005622   0.004885  -0.031620
    20  H    0.000020  -0.000001  -0.000006   0.000050  -0.000005   0.000112
    21  H   -0.000217  -0.000004  -0.000000   0.000000   0.000000   0.000000
    22  H    0.001744   0.000543   0.000000   0.000000   0.000000   0.000000
    23  H    0.404365  -0.020685   0.000000  -0.000000  -0.000001  -0.000000
    24  H    0.405416  -0.019661   0.000000   0.000000   0.000000   0.000000
    25  H   -0.033903   0.412185  -0.000000   0.000000   0.000006   0.000000
    26  H   -0.039096   0.408695  -0.000000  -0.000000   0.000000  -0.000000
    27  H   -0.033422   0.413422   0.000000  -0.000000  -0.000001  -0.000000
              19         20         21         22         23         24
     1  C   -0.030130   0.000143  -0.000000   0.000000   0.000001  -0.000000
     2  C    0.396261  -0.000427   0.000000  -0.000001   0.000001  -0.000000
     3  O   -0.033387   0.013056  -0.000001   0.000002  -0.000001  -0.000002
     4  C    0.003997  -0.011188   0.000143  -0.000077  -0.000163   0.000258
     5  O    0.001290   0.000244  -0.000001  -0.000052  -0.000078  -0.000075
     6  C    0.004063  -0.061332   0.002584   0.014283  -0.003042  -0.002999
     7  C   -0.000757   0.434602   0.002831  -0.002742   0.000125  -0.000054
     8  N   -0.000003  -0.024519  -0.028405   0.007436  -0.000043  -0.000038
     9  C   -0.000003   0.004385   0.438042  -0.015235   0.000042   0.000177
    10  C    0.000005   0.000161  -0.072680   0.418138   0.009007   0.010688
    11  C    0.000049   0.003347  -0.001800  -0.075457  -0.013551  -0.013366
    12  O    0.000001  -0.000089  -0.000118  -0.003261  -0.035915  -0.038437
    13  C    0.000000   0.000020  -0.000217   0.001744   0.404365   0.405416
    14  C   -0.000000  -0.000001  -0.000004   0.000543  -0.020685  -0.019661
    15  H   -0.002530  -0.000006  -0.000000   0.000000   0.000000   0.000000
    16  H   -0.005622   0.000050   0.000000   0.000000  -0.000000   0.000000
    17  H    0.004885  -0.000005   0.000000   0.000000  -0.000001   0.000000
    18  H   -0.031620   0.000112   0.000000   0.000000  -0.000000   0.000000
    19  H    0.580059  -0.000333   0.000000   0.000000  -0.000000   0.000000
    20  H   -0.000333   0.491676  -0.000206   0.000059   0.000002   0.000000
    21  H    0.000000  -0.000206   0.529806  -0.000526   0.000003   0.000001
    22  H    0.000000   0.000059  -0.000526   0.516529  -0.002630  -0.002431
    23  H   -0.000000   0.000002   0.000003  -0.002630   0.620428  -0.062546
    24  H    0.000000   0.000000   0.000001  -0.002431  -0.062546   0.616716
    25  H    0.000000   0.000000  -0.000000  -0.000044  -0.009293   0.007550
    26  H    0.000000  -0.000000   0.000000   0.000075  -0.002339  -0.002407
    27  H   -0.000000   0.000000  -0.000000  -0.000041   0.007429  -0.009030
              25         26         27
     1  C   -0.000002  -0.000000   0.000001
     2  C    0.000000   0.000000  -0.000001
     3  O   -0.000001   0.000000   0.000001
     4  C    0.000079   0.000044   0.000009
     5  O    0.000014   0.000021   0.000202
     6  C   -0.000540  -0.000021  -0.000308
     7  C    0.000005  -0.000006   0.000004
     8  N   -0.000000   0.000000  -0.000000
     9  C    0.000003  -0.000008   0.000001
    10  C    0.000094   0.000111  -0.000010
    11  C   -0.000729   0.000660  -0.000847
    12  O    0.002339   0.004458   0.002261
    13  C   -0.033903  -0.039096  -0.033422
    14  C    0.412185   0.408695   0.413422
    15  H   -0.000000  -0.000000   0.000000
    16  H    0.000000  -0.000000  -0.000000
    17  H    0.000006   0.000000  -0.000001
    18  H    0.000000  -0.000000  -0.000000
    19  H    0.000000   0.000000  -0.000000
    20  H    0.000000  -0.000000   0.000000
    21  H   -0.000000   0.000000  -0.000000
    22  H   -0.000044   0.000075  -0.000041
    23  H   -0.009293  -0.002339   0.007429
    24  H    0.007550  -0.002407  -0.009030
    25  H    0.542264  -0.023225  -0.021768
    26  H   -0.023225   0.559134  -0.022859
    27  H   -0.021768  -0.022859   0.533221
 Mulliken charges:
               1
     1  C   -0.368568
     2  C   -0.019673
     3  O   -0.285924
     4  C    0.383457
     5  O   -0.355205
     6  C   -0.011264
     7  C   -0.047686
     8  N   -0.272758
     9  C   -0.017469
    10  C   -0.240551
    11  C    0.244171
    12  O   -0.230503
    13  C   -0.073892
    14  C   -0.331495
    15  H    0.116469
    16  H    0.116486
    17  H    0.145222
    18  H    0.118331
    19  H    0.113775
    20  H    0.150248
    21  H    0.130549
    22  H    0.143689
    23  H    0.108885
    24  H    0.110241
    25  H    0.124965
    26  H    0.116764
    27  H    0.131736
 Sum of Mulliken charges =  -0.00000
 Mulliken charges with hydrogens summed into heavy atoms:
               1
     1  C    0.009610
     2  C    0.212433
     3  O   -0.285924
     4  C    0.383457
     5  O   -0.355205
     6  C   -0.011264
     7  C    0.102562
     8  N   -0.272758
     9  C    0.113079
    10  C   -0.096862
    11  C    0.244171
    12  O   -0.230503
    13  C    0.145234
    14  C    0.041970
 Electronic spatial extent (au):  <R**2>=           3347.7103
 Charge=             -0.0000 electrons
 Dipole moment (field-independent basis, Debye):
    X=              1.4944    Y=             -1.5086    Z=              0.6357  Tot=              2.2166
 Quadrupole moment (field-independent basis, Debye-Ang):
   XX=            -61.1837   YY=            -90.9807   ZZ=            -83.3991
   XY=             -2.9872   XZ=              1.0833   YZ=             -1.8287
 Traceless Quadrupole moment (field-independent basis, Debye-Ang):
   XX=             17.3375   YY=            -12.4595   ZZ=             -4.8780
   XY=             -2.9872   XZ=              1.0833   YZ=             -1.8287
 Octapole moment (field-independent basis, Debye-Ang**2):
  XXX=            -11.0760  YYY=            -49.8492  ZZZ=             -3.5076  XYY=             10.1164
  XXY=             -9.4408  XXZ=             -0.8892  XZZ=             -5.0140  YZZ=             -6.4334
  YYZ=              2.0145  XYZ=              3.0584
 Hexadecapole moment (field-independent basis, Debye-Ang**3):
 XXXX=          -2421.4878 YYYY=          -1730.7917 ZZZZ=           -179.7730 XXXY=              6.2372
 XXXZ=             28.6409 YYYX=            -31.4633 YYYZ=             -1.5957 ZZZX=              4.3752
 ZZZY=              3.9218 XXYY=           -646.6435 XXZZ=           -486.7155 YYZZ=           -300.6091
 XXYZ=              4.6576 YYXZ=              6.0689 ZZXY=            -10.4081
 N-N= 8.940339917872D+02 E-N=-3.350841003356D+03  KE= 6.660402087812D+02
 Breneman (CHELPG) radii used.
 Read replacement radii for each type of atom:
 Atom Element Radius
    1     6    1.50
    2     6    1.50
    3     8    1.70
    4     6    1.50
    5     8    1.70
    6     6    1.50
    7     6    1.50
    8     7    1.70
    9     6    1.50
   10     6    1.50
   11     6    1.50
   12     8    1.70
   13     6    1.50
   14     6    1.50
   15     1    1.45
   16     1    1.45
   17     1    1.45
   18     1    1.45
   19     1    1.45
   20     1    1.45
   21     1    1.45
   22     1    1.45
   23     1    1.45
   24     1    1.45
   25     1    1.45
   26     1    1.45
   27     1    1.45
 Generate Potential Derived Charges using the Breneman model, NDens= 1.
 Grid spacing= 0.300 Box extension= 2.800
 NStep X,Y,Z=   49     43     30   Total possible points=       63210
 Number of Points to Fit=   17123

 **********************************************************************

            Electrostatic Properties Using The SCF Density.

 **********************************************************************

       Atomic Center    1 is at  -3.931931 -1.109017  0.900479
       Atomic Center    2 is at  -3.573680 -0.300967 -0.331441
       Atomic Center    3 is at  -2.378560  0.453932 -0.138341
       Atomic Center    4 is at  -1.210860 -0.179609 -0.335741
       Atomic Center    5 is at  -1.137971 -1.337929 -0.651581
       Atomic Center    6 is at  -0.057810  0.746280 -0.130581
       Atomic Center    7 is at  -0.260978  2.130260 -0.084511
       Atomic Center    8 is at   0.699982  3.036760  0.063789
       Atomic Center    9 is at   1.941792  2.575399  0.182969
       Atomic Center   10 is at   2.284361  1.227628  0.163229
       Atomic Center   11 is at   1.268940  0.272719  0.004759
       Atomic Center   12 is at   1.483709 -1.037111 -0.009311
       Atomic Center   13 is at   2.795349 -1.552372  0.116879
       Atomic Center   14 is at   2.704258 -3.059772  0.048759
       Atomic Center   15 is at  -4.897401 -1.613956  0.748839
       Atomic Center   16 is at  -4.016420 -0.458047  1.782809
       Atomic Center   17 is at  -3.169402 -1.875917  1.094209
       Atomic Center   18 is at  -3.449381 -0.956357 -1.205861
       Atomic Center   19 is at  -4.345400  0.448304 -0.554021
       Atomic Center   20 is at  -1.282418  2.506751 -0.181891
       Atomic Center   21 is at   2.731693  3.324948  0.306549
       Atomic Center   22 is at   3.328181  0.938238  0.273909
       Atomic Center   23 is at   3.235189 -1.225552  1.076309
       Atomic Center   24 is at   3.430299 -1.158632 -0.696821
       Atomic Center   25 is at   2.074927 -3.444421  0.863209
       Atomic Center   26 is at   3.706167 -3.503253  0.137089
       Atomic Center   27 is at   2.260027 -3.373871 -0.905741
   17123 points will be used for fitting atomic charges
 Fitting point charges to electrostatic potential
 Charges from ESP fit, RMS=   0.00284 RRMS=   0.20095:
 ESP charges:
               1
     1  C   -0.219856
     2  C    0.330508
     3  O   -0.450797
     4  C    0.745474
     5  O   -0.502969
     6  C   -0.478624
     7  C    0.419520
     8  N   -0.656481
     9  C    0.446268
    10  C   -0.534603
    11  C    0.625507
    12  O   -0.422033
    13  C    0.392701
    14  C   -0.333721
    15  H    0.046939
    16  H    0.059233
    17  H    0.076060
    18  H   -0.019506
    19  H    0.012472
    20  H    0.039311
    21  H    0.029087
    22  H    0.143775
    23  H   -0.018030
    24  H   -0.015866
    25  H    0.108252
    26  H    0.068890
    27  H    0.108487
 Sum of ESP charges =  -0.00000
 ESP charges with hydrogens summed into heavy atoms:
               1
     1  C   -0.037624
     2  C    0.323475
     3  O   -0.450797
     4  C    0.745474
     5  O   -0.502969
     6  C   -0.478624
     7  C    0.458831
     8  N   -0.656481
     9  C    0.475355
    10  C   -0.390828
    11  C    0.625507
    12  O   -0.422033
    13  C    0.358805
    14  C   -0.048093
 Charge=  -0.00000 Dipole=     1.5190    -1.4238     0.6071 Tot=     2.1687
 -----------------------------------------------------------------

              Electrostatic Properties (Atomic Units)

 -----------------------------------------------------------------
    Center     Electric         -------- Electric Field --------
               Potential          X             Y             Z
 -----------------------------------------------------------------
    1 Atom    -14.774729
    2 Atom    -14.711799
    3 Atom    -22.319099
    4 Atom    -14.642179
    5 Atom    -22.387408
    6 Atom    -14.747953
    7 Atom    -14.729927
    8 Atom    -18.403677
    9 Atom    -14.727132
   10 Atom    -14.757470
   11 Atom    -14.676047
   12 Atom    -22.310457
   13 Atom    -14.697375
   14 Atom    -14.766196
   15 Atom     -1.112395
   16 Atom     -1.118767
   17 Atom     -1.121254
   18 Atom     -1.115021
   19 Atom     -1.112519
   20 Atom     -1.105626
   21 Atom     -1.099895
   22 Atom     -1.081433
   23 Atom     -1.100436
   24 Atom     -1.100379
   25 Atom     -1.112437
   26 Atom     -1.104534
   27 Atom     -1.112963
 -----------------------------------------------------------------
 Unable to Open any file for archive entry.
 1\1\GINC-NOTCH162\SP\RwB97XD\def2TZVP\C10H13N1O3\U6053008\12-Jul-2024\
 0\\#N Guess=Read Geom=Check Integral(Ultrafine) Density Pop=(ChelpG,Re
 adRadii) NMR wB97XD def2TZVP\\12326824_9\\0,1\C,0,3.93193,1.10902,0.90
 048\C,0,3.57368,0.30097,-0.33144\O,0,2.37856,-0.45393,-0.13834\C,0,1.2
 1086,0.17961,-0.33574\O,0,1.13797,1.33793,-0.65158\C,0,0.05781,-0.7462
 8,-0.13058\C,0,0.26098,-2.13026,-0.08451\N,0,-0.69998,-3.03676,0.06379
 \C,0,-1.94179,-2.5754,0.18297\C,0,-2.28436,-1.22763,0.16323\C,0,-1.268
 94,-0.27272,0.00476\O,0,-1.48371,1.03711,-0.00931\C,0,-2.79535,1.55237
 ,0.11688\C,0,-2.70426,3.05977,0.04876\H,0,4.8974,1.61396,0.74884\H,0,4
 .01642,0.45805,1.78281\H,0,3.1694,1.87592,1.09421\H,0,3.44938,0.95636,
 -1.20586\H,0,4.3454,-0.4483,-0.55402\H,0,1.28242,-2.50675,-0.18189\H,0
 ,-2.73169,-3.32495,0.30655\H,0,-3.32818,-0.93824,0.27391\H,0,-3.23519,
 1.22555,1.07631\H,0,-3.4303,1.15863,-0.69682\H,0,-2.07493,3.44442,0.86
 321\H,0,-3.70617,3.50325,0.13709\H,0,-2.26003,3.37387,-0.90574\\Versio
 n=ES64L-G16RevC.01\State=1-A\HF=-669.354568\RMSD=1.537e-09\Dipole=-0.5
 879377,0.5935446,0.250105\Quadrupole=12.8899956,-9.2633507,-3.6266449,
 -2.2208675,-0.8054013,1.3595607\PG=C01 [X(C10H13N1O3)]\\@
 The archive entry for this job was punched.


 IT WAS A GAME, A VERY INTERESTING GAME ONE COULD
 PLAY.  WHENEVER ONE SOLVED ONE OF THE LITTLE PROBLEMS,
 ONE COULD WRITE A PAPER ABOUT IT.  IT WAS VERY EASY IN
 THOSE DAYS FOR ANY SECOND-RATE PHYSICIST TO DO
 FIRST-RATE WORK.  THERE HAS NOT BEEN SUCH A GLORIOUS
 TIME SINCE.  IT IS VERY DIFFICULT NOW FOR A FIRST-RATE
 PHYSICIST TO DO SECOND-RATE WORK.
     P.A.M. DIRAC, ON THE EARLY DAYS OF QUANTUM MECHANICS
                   DIRECTIONS IN PHYSICS, 1978, P. 7
 Job cpu time:       0 days  1 hours 18 minutes  9.8 seconds.
 Elapsed time:       0 days  0 hours  5 minutes  9.1 seconds.
 File lengths (MBytes):  RWF=    165 Int=      0 D2E=      0 Chk=     25 Scr=      2
 Normal termination of Gaussian 16 at Fri Jul 12 13:32:53 2024.
