 Entering Gaussian System, Link 0=g16
 Input=12326832_8.com
 Output=12326832_8.log
 Initial command:
 /uufs/chpc.utah.edu/sys/installdir/gaussian16/C01/AVX/g16/l1.exe "/scratch/general/vast/u6053008/1319795-notchpeak.peaks/Gau-1289250.inp" -scrdir="/scratch/general/vast/u6053008/1319795-notchpeak.peaks/"
 Entering Link 1 = /uufs/chpc.utah.edu/sys/installdir/gaussian16/C01/AVX/g16/l1.exe PID=   1289251.
  
 Copyright (c) 1988-2019, Gaussian, Inc.  All Rights Reserved.
  
 This is part of the Gaussian(R) 16 program.  It is based on
 the Gaussian(R) 09 system (copyright 2009, Gaussian, Inc.),
 the Gaussian(R) 03 system (copyright 2003, Gaussian, Inc.),
 the Gaussian(R) 98 system (copyright 1998, Gaussian, Inc.),
 the Gaussian(R) 94 system (copyright 1995, Gaussian, Inc.),
 the Gaussian 92(TM) system (copyright 1992, Gaussian, Inc.),
 the Gaussian 90(TM) system (copyright 1990, Gaussian, Inc.),
 the Gaussian 88(TM) system (copyright 1988, Gaussian, Inc.),
 the Gaussian 86(TM) system (copyright 1986, Carnegie Mellon
 University), and the Gaussian 82(TM) system (copyright 1983,
 Carnegie Mellon University). Gaussian is a federally registered
 trademark of Gaussian, Inc.
  
 This software contains proprietary and confidential information,
 including trade secrets, belonging to Gaussian, Inc.
  
 This software is provided under written license and may be
 used, copied, transmitted, or stored only in accord with that
 written license.
  
 The following legend is applicable only to US Government
 contracts under FAR:
  
                    RESTRICTED RIGHTS LEGEND
  
 Use, reproduction and disclosure by the US Government is
 subject to restrictions as set forth in subparagraphs (a)
 and (c) of the Commercial Computer Software - Restricted
 Rights clause in FAR 52.227-19.
  
 Gaussian, Inc.
 340 Quinnipiac St., Bldg. 40, Wallingford CT 06492
  
  
 ---------------------------------------------------------------
 Warning -- This program may not be used in any manner that
 competes with the business of Gaussian, Inc. or will provide
 assistance to any competitor of Gaussian, Inc.  The licensee
 of this program is prohibited from giving any competitor of
 Gaussian, Inc. access to this program.  By using this program,
 the user acknowledges that Gaussian, Inc. is engaged in the
 business of creating and licensing software in the field of
 computational chemistry and represents and warrants to the
 licensee that it is not a competitor of Gaussian, Inc. and that
 it will not use this program in any manner prohibited above.
 ---------------------------------------------------------------
  

 Cite this work as:
 Gaussian 16, Revision C.01,
 M. J. Frisch, G. W. Trucks, H. B. Schlegel, G. E. Scuseria, 
 M. A. Robb, J. R. Cheeseman, G. Scalmani, V. Barone, 
 G. A. Petersson, H. Nakatsuji, X. Li, M. Caricato, A. V. Marenich, 
 J. Bloino, B. G. Janesko, R. Gomperts, B. Mennucci, H. P. Hratchian, 
 J. V. Ortiz, A. F. Izmaylov, J. L. Sonnenberg, D. Williams-Young, 
 F. Ding, F. Lipparini, F. Egidi, J. Goings, B. Peng, A. Petrone, 
 T. Henderson, D. Ranasinghe, V. G. Zakrzewski, J. Gao, N. Rega, 
 G. Zheng, W. Liang, M. Hada, M. Ehara, K. Toyota, R. Fukuda, 
 J. Hasegawa, M. Ishida, T. Nakajima, Y. Honda, O. Kitao, H. Nakai, 
 T. Vreven, K. Throssell, J. A. Montgomery, Jr., J. E. Peralta, 
 F. Ogliaro, M. J. Bearpark, J. J. Heyd, E. N. Brothers, K. N. Kudin, 
 V. N. Staroverov, T. A. Keith, R. Kobayashi, J. Normand, 
 K. Raghavachari, A. P. Rendell, J. C. Burant, S. S. Iyengar, 
 J. Tomasi, M. Cossi, J. M. Millam, M. Klene, C. Adamo, R. Cammi, 
 J. W. Ochterski, R. L. Martin, K. Morokuma, O. Farkas, 
 J. B. Foresman, and D. J. Fox, Gaussian, Inc., Wallingford CT, 2019.
 
 ******************************************
 Gaussian 16:  ES64L-G16RevC.01  3-Jul-2019
                14-Jul-2024 
 ******************************************
 %NProcShared=16
 Will use up to   16 processors via shared memory.
 %Mem=32GB
 %chk=12326832_8.chk
 ------------------------------------------------------
 #N OPT FREQ=NORAMAN Integral(Ultrafine) wB97XD def2SVP
 ------------------------------------------------------
 1/18=20,19=15,26=4,38=1/1,3;
 2/9=110,12=2,17=6,18=5,40=1/2;
 3/5=43,7=101,11=2,25=1,30=1,71=1,74=-58,75=-5/1,2,3;
 4//1;
 5/5=2,38=5/2;
 6/7=2,8=2,9=2,10=2,28=1/1;
 7//1,2,3,16;
 1/18=20,19=15,26=4/3(2);
 2/9=110/2;
 99//99;
 2/9=110/2;
 3/5=43,7=101,11=2,25=1,30=1,71=1,74=-58,75=-5/1,2,3;
 4/5=5,16=3,69=1/1;
 5/5=2,38=5/2;
 7//1,2,3,16;
 1/18=20,19=15,26=4/3(-5);
 2/9=110/2;
 6/7=2,8=2,9=2,10=2,19=2,28=1/1;
 99/9=1/99;
 ----------
 12326832_8
 ----------
 Symbolic Z-matrix:
 Charge =  0 Multiplicity = 1
 C                     4.15323  -0.74183   0.94426 
 C                     3.65274  -0.34576  -0.43122 
 O                     2.43331   0.39071  -0.35971 
 C                     1.29424  -0.31639  -0.24312 
 O                     1.26935  -1.51794  -0.22897 
 C                     0.11482   0.59136  -0.12726 
 C                     0.28774   1.95965   0.07603 
 C                    -0.81562   2.79927   0.21117 
 C                    -2.07493   2.21871   0.1329 
 N                    -2.27049   0.9183   -0.06892 
 C                    -1.2229    0.11592  -0.20221 
 O                    -1.42655  -1.17237  -0.43511 
 C                    -2.75654  -1.67835  -0.49632 
 C                    -3.32751  -1.93988   0.88372 
 H                     3.4527   -1.43913   1.42412 
 H                     5.12951  -1.24132   0.85778 
 H                     4.27339   0.14258   1.587 
 H                     3.49939  -1.23411  -1.06102 
 H                     4.35924   0.32915  -0.93314 
 H                     1.30275   2.35365   0.13093 
 H                    -0.70016   3.87066   0.37641 
 H                    -2.97763   2.83029   0.23917 
 H                    -3.3928   -0.97991  -1.05878 
 H                    -2.66215  -2.61322  -1.06506 
 H                    -3.4545   -0.99867   1.4361 
 H                    -2.66484  -2.60447   1.45671 
 H                    -4.31198  -2.42297   0.79489 
 

 GradGradGradGradGradGradGradGradGradGradGradGradGradGradGradGradGradGrad
 Berny optimization.
 Initialization pass.
                           ----------------------------
                           !    Initial Parameters    !
                           ! (Angstroms and Degrees)  !
 --------------------------                            --------------------------
 ! Name  Definition              Value          Derivative Info.                !
 --------------------------------------------------------------------------------
 ! R1    R(1,2)                  1.5163         estimate D2E/DX2                !
 ! R2    R(1,15)                 1.0987         estimate D2E/DX2                !
 ! R3    R(1,16)                 1.1            estimate D2E/DX2                !
 ! R4    R(1,17)                 1.0999         estimate D2E/DX2                !
 ! R5    R(2,3)                  1.4264         estimate D2E/DX2                !
 ! R6    R(2,18)                 1.0997         estimate D2E/DX2                !
 ! R7    R(2,19)                 1.0984         estimate D2E/DX2                !
 ! R8    R(3,4)                  1.3458         estimate D2E/DX2                !
 ! R9    R(4,5)                  1.2019         estimate D2E/DX2                !
 ! R10   R(4,6)                  1.4928         estimate D2E/DX2                !
 ! R11   R(6,7)                  1.3941         estimate D2E/DX2                !
 ! R12   R(6,11)                 1.4217         estimate D2E/DX2                !
 ! R13   R(7,8)                  1.3931         estimate D2E/DX2                !
 ! R14   R(7,20)                 1.0902         estimate D2E/DX2                !
 ! R15   R(8,9)                  1.3889         estimate D2E/DX2                !
 ! R16   R(8,21)                 1.0902         estimate D2E/DX2                !
 ! R17   R(9,10)                 1.3304         estimate D2E/DX2                !
 ! R18   R(9,22)                 1.0955         estimate D2E/DX2                !
 ! R19   R(10,11)                1.3263         estimate D2E/DX2                !
 ! R20   R(11,12)                1.3249         estimate D2E/DX2                !
 ! R21   R(12,13)                1.4243         estimate D2E/DX2                !
 ! R22   R(13,14)                1.5162         estimate D2E/DX2                !
 ! R23   R(13,23)                1.0995         estimate D2E/DX2                !
 ! R24   R(13,24)                1.0983         estimate D2E/DX2                !
 ! R25   R(14,25)                1.0987         estimate D2E/DX2                !
 ! R26   R(14,26)                1.0996         estimate D2E/DX2                !
 ! R27   R(14,27)                1.1002         estimate D2E/DX2                !
 ! A1    A(2,1,15)             110.5785         estimate D2E/DX2                !
 ! A2    A(2,1,16)             109.8902         estimate D2E/DX2                !
 ! A3    A(2,1,17)             110.8617         estimate D2E/DX2                !
 ! A4    A(15,1,16)            108.1805         estimate D2E/DX2                !
 ! A5    A(15,1,17)            108.9501         estimate D2E/DX2                !
 ! A6    A(16,1,17)            108.3062         estimate D2E/DX2                !
 ! A7    A(1,2,3)              111.8122         estimate D2E/DX2                !
 ! A8    A(1,2,18)             110.7644         estimate D2E/DX2                !
 ! A9    A(1,2,19)             111.2653         estimate D2E/DX2                !
 ! A10   A(3,2,18)             109.062          estimate D2E/DX2                !
 ! A11   A(3,2,19)             104.8054         estimate D2E/DX2                !
 ! A12   A(18,2,19)            108.9257         estimate D2E/DX2                !
 ! A13   A(2,3,4)              117.1724         estimate D2E/DX2                !
 ! A14   A(3,4,5)              122.9446         estimate D2E/DX2                !
 ! A15   A(3,4,6)              110.8515         estimate D2E/DX2                !
 ! A16   A(5,4,6)              126.2021         estimate D2E/DX2                !
 ! A17   A(4,6,7)              120.6741         estimate D2E/DX2                !
 ! A18   A(4,6,11)             122.4094         estimate D2E/DX2                !
 ! A19   A(7,6,11)             116.9132         estimate D2E/DX2                !
 ! A20   A(6,7,8)              120.4954         estimate D2E/DX2                !
 ! A21   A(6,7,20)             118.5257         estimate D2E/DX2                !
 ! A22   A(8,7,20)             120.9783         estimate D2E/DX2                !
 ! A23   A(7,8,9)              117.4347         estimate D2E/DX2                !
 ! A24   A(7,8,21)             121.5432         estimate D2E/DX2                !
 ! A25   A(9,8,21)             121.0216         estimate D2E/DX2                !
 ! A26   A(8,9,10)             123.394          estimate D2E/DX2                !
 ! A27   A(8,9,22)             120.5499         estimate D2E/DX2                !
 ! A28   A(10,9,22)            116.0561         estimate D2E/DX2                !
 ! A29   A(9,10,11)            119.3719         estimate D2E/DX2                !
 ! A30   A(6,11,10)            122.3851         estimate D2E/DX2                !
 ! A31   A(6,11,12)            118.6251         estimate D2E/DX2                !
 ! A32   A(10,11,12)           118.9808         estimate D2E/DX2                !
 ! A33   A(11,12,13)           119.7694         estimate D2E/DX2                !
 ! A34   A(12,13,14)           111.9502         estimate D2E/DX2                !
 ! A35   A(12,13,23)           109.674          estimate D2E/DX2                !
 ! A36   A(12,13,24)           104.1452         estimate D2E/DX2                !
 ! A37   A(14,13,23)           110.9316         estimate D2E/DX2                !
 ! A38   A(14,13,24)           110.9072         estimate D2E/DX2                !
 ! A39   A(23,13,24)           108.9966         estimate D2E/DX2                !
 ! A40   A(13,14,25)           110.6934         estimate D2E/DX2                !
 ! A41   A(13,14,26)           110.585          estimate D2E/DX2                !
 ! A42   A(13,14,27)           109.8289         estimate D2E/DX2                !
 ! A43   A(25,14,26)           108.9917         estimate D2E/DX2                !
 ! A44   A(25,14,27)           108.2595         estimate D2E/DX2                !
 ! A45   A(26,14,27)           108.4176         estimate D2E/DX2                !
 ! D1    D(15,1,2,3)            64.813          estimate D2E/DX2                !
 ! D2    D(15,1,2,18)          -57.0546         estimate D2E/DX2                !
 ! D3    D(15,1,2,19)         -178.372          estimate D2E/DX2                !
 ! D4    D(16,1,2,3)          -175.8295         estimate D2E/DX2                !
 ! D5    D(16,1,2,18)           62.3029         estimate D2E/DX2                !
 ! D6    D(16,1,2,19)          -59.0144         estimate D2E/DX2                !
 ! D7    D(17,1,2,3)           -56.1375         estimate D2E/DX2                !
 ! D8    D(17,1,2,18)         -178.0051         estimate D2E/DX2                !
 ! D9    D(17,1,2,19)           60.6775         estimate D2E/DX2                !
 ! D10   D(1,2,3,4)            -82.6165         estimate D2E/DX2                !
 ! D11   D(18,2,3,4)            40.2245         estimate D2E/DX2                !
 ! D12   D(19,2,3,4)           156.7294         estimate D2E/DX2                !
 ! D13   D(2,3,4,5)             -1.7394         estimate D2E/DX2                !
 ! D14   D(2,3,4,6)            177.8035         estimate D2E/DX2                !
 ! D15   D(3,4,6,7)            -10.7477         estimate D2E/DX2                !
 ! D16   D(3,4,6,11)           169.9348         estimate D2E/DX2                !
 ! D17   D(5,4,6,7)            168.7769         estimate D2E/DX2                !
 ! D18   D(5,4,6,11)           -10.5406         estimate D2E/DX2                !
 ! D19   D(4,6,7,8)           -178.6702         estimate D2E/DX2                !
 ! D20   D(4,6,7,20)             1.0542         estimate D2E/DX2                !
 ! D21   D(11,6,7,8)             0.6836         estimate D2E/DX2                !
 ! D22   D(11,6,7,20)         -179.592          estimate D2E/DX2                !
 ! D23   D(4,6,11,10)          178.4329         estimate D2E/DX2                !
 ! D24   D(4,6,11,12)           -2.6743         estimate D2E/DX2                !
 ! D25   D(7,6,11,10)           -0.9087         estimate D2E/DX2                !
 ! D26   D(7,6,11,12)          177.984          estimate D2E/DX2                !
 ! D27   D(6,7,8,9)             -0.1015         estimate D2E/DX2                !
 ! D28   D(6,7,8,21)           179.6408         estimate D2E/DX2                !
 ! D29   D(20,7,8,9)          -179.8191         estimate D2E/DX2                !
 ! D30   D(20,7,8,21)           -0.0768         estimate D2E/DX2                !
 ! D31   D(7,8,9,10)            -0.347          estimate D2E/DX2                !
 ! D32   D(7,8,9,22)           179.5742         estimate D2E/DX2                !
 ! D33   D(21,8,9,10)          179.9093         estimate D2E/DX2                !
 ! D34   D(21,8,9,22)           -0.1695         estimate D2E/DX2                !
 ! D35   D(8,9,10,11)            0.1484         estimate D2E/DX2                !
 ! D36   D(22,9,10,11)        -179.7761         estimate D2E/DX2                !
 ! D37   D(9,10,11,6)            0.5027         estimate D2E/DX2                !
 ! D38   D(9,10,11,12)        -178.3863         estimate D2E/DX2                !
 ! D39   D(6,11,12,13)         179.1168         estimate D2E/DX2                !
 ! D40   D(10,11,12,13)         -1.952          estimate D2E/DX2                !
 ! D41   D(11,12,13,14)        -81.4289         estimate D2E/DX2                !
 ! D42   D(11,12,13,23)         42.1543         estimate D2E/DX2                !
 ! D43   D(11,12,13,24)        158.6805         estimate D2E/DX2                !
 ! D44   D(12,13,14,25)         66.2037         estimate D2E/DX2                !
 ! D45   D(12,13,14,26)        -54.6916         estimate D2E/DX2                !
 ! D46   D(12,13,14,27)       -174.3078         estimate D2E/DX2                !
 ! D47   D(23,13,14,25)        -56.6692         estimate D2E/DX2                !
 ! D48   D(23,13,14,26)       -177.5645         estimate D2E/DX2                !
 ! D49   D(23,13,14,27)         62.8193         estimate D2E/DX2                !
 ! D50   D(24,13,14,25)       -177.9471         estimate D2E/DX2                !
 ! D51   D(24,13,14,26)         61.1577         estimate D2E/DX2                !
 ! D52   D(24,13,14,27)        -58.4586         estimate D2E/DX2                !
 --------------------------------------------------------------------------------
 Trust Radius=3.00D-01 FncErr=1.00D-07 GrdErr=1.00D-06 EigMax=2.50D+02 EigMin=1.00D-04
 Number of steps in this run=    134 maximum allowed number of steps=    162.
 GradGradGradGradGradGradGradGradGradGradGradGradGradGradGradGradGradGrad

                          Input orientation:                          
 ---------------------------------------------------------------------
 Center     Atomic      Atomic             Coordinates (Angstroms)
 Number     Number       Type             X           Y           Z
 ---------------------------------------------------------------------
      1          6           0        4.153230   -0.741830    0.944260
      2          6           0        3.652740   -0.345760   -0.431220
      3          8           0        2.433310    0.390710   -0.359710
      4          6           0        1.294240   -0.316390   -0.243120
      5          8           0        1.269350   -1.517940   -0.228970
      6          6           0        0.114820    0.591360   -0.127260
      7          6           0        0.287740    1.959650    0.076030
      8          6           0       -0.815620    2.799270    0.211170
      9          6           0       -2.074930    2.218710    0.132900
     10          7           0       -2.270490    0.918300   -0.068920
     11          6           0       -1.222900    0.115920   -0.202210
     12          8           0       -1.426550   -1.172370   -0.435110
     13          6           0       -2.756540   -1.678350   -0.496320
     14          6           0       -3.327510   -1.939880    0.883720
     15          1           0        3.452700   -1.439130    1.424120
     16          1           0        5.129510   -1.241320    0.857780
     17          1           0        4.273390    0.142580    1.587000
     18          1           0        3.499390   -1.234110   -1.061020
     19          1           0        4.359240    0.329150   -0.933140
     20          1           0        1.302750    2.353650    0.130930
     21          1           0       -0.700160    3.870660    0.376410
     22          1           0       -2.977630    2.830290    0.239170
     23          1           0       -3.392800   -0.979910   -1.058780
     24          1           0       -2.662150   -2.613220   -1.065060
     25          1           0       -3.454500   -0.998670    1.436100
     26          1           0       -2.664840   -2.604470    1.456710
     27          1           0       -4.311980   -2.422970    0.794890
 ---------------------------------------------------------------------
                    Distance matrix (angstroms):
                    1          2          3          4          5
     1  C    0.000000
     2  C    1.516347   0.000000
     3  O    2.437439   1.426363   0.000000
     4  C    3.124851   2.366171   1.345758   0.000000
     5  O    3.208673   2.663730   2.239384   1.201891   0.000000
     6  C    4.385693   3.672528   2.338737   1.492804   2.406747
     7  C    4.795188   4.110407   2.693495   2.509035   3.626323
     8  C    6.145428   5.501829   4.084435   3.790149   4.814470
     9  C    6.943564   6.300868   4.889629   4.233135   5.027694
    10  N    6.711687   6.067435   4.742219   3.776520   4.300157
    11  C    5.563533   4.902801   3.669903   2.554322   2.980189
    12  O    5.763850   5.146114   4.165024   2.858717   2.725764
    13  C    7.120201   6.546671   5.588758   4.281105   4.037945
    14  C    7.576309   7.279710   6.337572   5.026536   4.748393
    15  H    1.098743   2.162813   2.751276   2.949438   2.739696
    16  H    1.100042   2.155087   3.378653   4.095946   4.019749
    17  H    1.099879   2.167232   2.690194   3.526376   3.883211
    18  H    2.165870   1.099695   2.066011   2.524650   2.397070
    19  H    2.171191   1.098440   2.010427   3.207347   3.668108
    20  H    4.285877   3.622883   2.317763   2.696127   3.888425
    21  H    6.719592   6.113772   4.740312   4.678978   5.769096
    22  H    8.006645   7.382311   5.965608   5.327577   6.096154
    23  H    7.810981   7.101803   6.025849   4.803530   4.765890
    24  H    7.347712   6.739508   5.956914   4.648014   4.165979
    25  H    7.627937   7.377400   6.310437   5.082895   5.035559
    26  H    7.086474   6.969782   6.185598   4.878427   4.415871
    27  H    8.631820   8.321954   7.399245   6.078227   5.746182
                    6          7          8          9         10
     6  C    0.000000
     7  C    1.394075   0.000000
     8  C    2.419736   1.393064   0.000000
     9  C    2.740612   2.377510   1.388898   0.000000
    10  N    2.408318   2.765856   2.394399   1.330429   0.000000
    11  C    1.421673   2.399748   2.745383   2.293465   1.326282
    12  O    2.362485   3.606883   4.069992   3.498922   2.284126
    13  C    3.678654   4.778103   4.931206   4.005944   2.676099
    14  C    4.390774   5.378543   5.405688   4.407557   3.192806
    15  H    4.203702   4.835910   6.136272   6.752906   6.367225
    16  H    5.429193   5.856627   7.217274   8.025037   7.764195
    17  H    4.520376   4.633593   5.903298   6.835634   6.794570
    18  H    3.957217   4.669870   6.042014   6.664867   6.237680
    19  H    4.328198   4.500452   5.847231   6.790097   6.711728
    20  H    2.140912   1.090181   2.166220   3.380375   3.855932
    21  H    3.416385   2.172127   1.090189   2.162921   3.373527
    22  H    3.835404   3.383381   2.162414   1.095532   2.061716
    23  H    3.954746   4.845119   4.747297   3.658969   2.417148
    24  H    4.342852   5.560133   5.859478   5.012732   3.690166
    25  H    4.208603   4.960424   4.784192   3.735382   2.709564
    26  H    4.522035   5.608493   5.845630   5.036222   3.859141
    27  H    5.434437   6.393868   6.311660   5.194980   4.009730
                   11         12         13         14         15
    11  C    0.000000
    12  O    1.324918   0.000000
    13  C    2.378646   1.424302   0.000000
    14  C    3.136071   2.437629   1.516217   0.000000
    15  H    5.188869   5.228286   6.503843   6.820120   0.000000
    16  H    6.581701   6.682682   8.013387   8.485862   1.780888
    17  H    5.780241   6.189292   7.554861   7.912327   1.789377
    18  H    4.985996   4.965930   6.297055   7.133491   2.494020
    19  H    5.633828   5.998163   7.406429   8.218005   3.083067
    20  H    3.390771   4.494697   5.755719   6.359277   4.547505
    21  H    3.834857   5.159298   5.981795   6.397086   6.821863
    22  H    3.262162   4.345318   4.573583   4.826218   7.809046
    23  H    2.577406   2.071749   1.099548   2.167743   7.296338
    24  H    3.203772   1.999898   1.098343   2.166526   6.705661
    25  H    2.984361   2.764811   2.164107   1.098693   6.921240
    26  H    3.497389   2.676426   2.163431   1.099604   6.227630
    27  H    4.120993   3.376775   2.154316   1.100204   7.852014
                   16         17         18         19         20
    16  H    0.000000
    17  H    1.783222   0.000000
    18  H    2.517764   3.083239   0.000000
    19  H    2.503415   2.528494   1.788708   0.000000
    20  H    5.300586   3.979155   4.372413   3.817457   0.000000
    21  H    7.768469   6.332480   6.764695   6.313061   2.524525
    22  H    9.093207   7.849696   7.756393   7.839622   4.308196
    23  H    8.739068   8.187222   6.896877   7.862795   5.880155
    24  H    8.141830   7.920200   6.313995   7.614123   6.466887
    25  H    8.606890   7.813162   7.392403   8.272299   5.964306
    26  H    7.935287   7.463397   6.798131   7.978421   6.487096
    27  H    9.515355   8.995447   8.116359   9.260146   7.401495
                   21         22         23         24         25
    21  H    0.000000
    22  H    2.507603   0.000000
    23  H    5.730455   4.046562   0.000000
    24  H    6.925889   5.606456   1.789299   0.000000
    25  H    5.693831   4.039923   2.495713   3.080648   0.000000
    26  H    6.852323   5.578249   3.081690   2.521787   1.789576
    27  H    7.268435   5.448491   2.522579   2.493501   1.781868
                   26         27
    26  H    0.000000
    27  H    1.784382   0.000000
 Stoichiometry    C10H13NO3
 Framework group  C1[X(C10H13NO3)]
 Deg. of freedom    75
 Full point group                 C1      NOp   1
 Largest Abelian subgroup         C1      NOp   1
 Largest concise Abelian subgroup C1      NOp   1
                         Standard orientation:                         
 ---------------------------------------------------------------------
 Center     Atomic      Atomic             Coordinates (Angstroms)
 Number     Number       Type             X           Y           Z
 ---------------------------------------------------------------------
      1          6           0        4.153229   -0.741835    0.944260
      2          6           0        3.652740   -0.345765   -0.431220
      3          8           0        2.433311    0.390707   -0.359710
      4          6           0        1.294240   -0.316392   -0.243120
      5          8           0        1.269348   -1.517942   -0.228970
      6          6           0        0.114821    0.591360   -0.127260
      7          6           0        0.287742    1.959649    0.076030
      8          6           0       -0.815617    2.799271    0.211170
      9          6           0       -2.074927    2.218712    0.132900
     10          7           0       -2.270489    0.918302   -0.068920
     11          6           0       -1.222900    0.115921   -0.202210
     12          8           0       -1.426551   -1.172369   -0.435110
     13          6           0       -2.756542   -1.678347   -0.496320
     14          6           0       -3.327512   -1.939876    0.883720
     15          1           0        3.452698   -1.439134    1.424120
     16          1           0        5.129509   -1.241326    0.857780
     17          1           0        4.273390    0.142575    1.587000
     18          1           0        3.499389   -1.234114   -1.061020
     19          1           0        4.359240    0.329145   -0.933140
     20          1           0        1.302753    2.353648    0.130930
     21          1           0       -0.700155    3.870661    0.376410
     22          1           0       -2.977627    2.830293    0.239170
     23          1           0       -3.392801   -0.979906   -1.058780
     24          1           0       -2.662153   -2.613217   -1.065060
     25          1           0       -3.454501   -0.998666    1.436100
     26          1           0       -2.664843   -2.604467    1.456710
     27          1           0       -4.311983   -2.422965    0.794890
 ---------------------------------------------------------------------
 Rotational constants (GHZ):           1.0790704           0.4513890           0.3387543
 Standard basis: def2SVP (5D, 7F)
 There are   275 symmetry adapted cartesian basis functions of A   symmetry.
 There are   261 symmetry adapted basis functions of A   symmetry.
   261 basis functions,   441 primitive gaussians,   275 cartesian basis functions
    52 alpha electrons       52 beta electrons
       nuclear repulsion energy       899.6565303823 Hartrees.
 NAtoms=   27 NActive=   27 NUniq=   27 SFac= 1.00D+00 NAtFMM=   60 NAOKFM=F Big=F
 Integral buffers will be    131072 words long.
 Raffenetti 2 integral format.
 Two-electron integral symmetry is turned on.
 Nuclear repulsion after empirical dispersion term =      899.6419187787 Hartrees.
 One-electron integrals computed using PRISM.
   1 Symmetry operations used in ECPInt.
 ECPInt:  NShTT=    7626 NPrTT=   27482 LenC2=    7134 LenP2D=   18531.
 LDataN:  DoStor=T MaxTD1= 4 Len=   56
 NBasis=   261 RedAO= T EigKep=  6.16D-04  NBF=   261
 NBsUse=   261 1.00D-06 EigRej= -1.00D+00 NBFU=   261
 ExpMin= 1.22D-01 ExpMax= 2.27D+03 ExpMxC= 3.41D+02 IAcc=3 IRadAn=         5 AccDes= 0.00D+00
 Harris functional with IExCor= 4639 and IRadAn=       5 diagonalized for initial guess.
 HarFok:  IExCor= 4639 AccDes= 0.00D+00 IRadAn=         5 IDoV= 1 UseB2=F ITyADJ=14
 ICtDFT=  3500011 ScaDFX=  1.000000  1.000000  1.000000  1.000000
 FoFCou: FMM=F IPFlag=           0 FMFlag=      100000 FMFlg1=           0
         NFxFlg=           0 DoJE=T BraDBF=F KetDBF=T FulRan=T
         wScrn=  0.000000 ICntrl=       500 IOpCl=  0 I1Cent=   200000004 NGrid=           0
         NMat0=    1 NMatS0=      1 NMatT0=    0 NMatD0=    1 NMtDS0=    0 NMtDT0=    0
 Petite list used in FoFCou.
 Requested convergence on RMS density matrix=1.00D-08 within 128 cycles.
 Requested convergence on MAX density matrix=1.00D-06.
 Requested convergence on             energy=1.00D-06.
 No special actions if energy rises.
 Integral accuracy reduced to 1.0D-05 until final iterations.
 Initial convergence to 1.0D-05 achieved.  Increase integral accuracy.
 SCF Done:  E(RwB97XD) =  -668.629628787     A.U. after   16 cycles
            NFock= 16  Conv=0.52D-08     -V/T= 2.0098

 **********************************************************************

            Population analysis using the SCF Density.

 **********************************************************************

 Orbital symmetries:
       Occupied  (A) (A) (A) (A) (A) (A) (A) (A) (A) (A) (A) (A)
                 (A) (A) (A) (A) (A) (A) (A) (A) (A) (A) (A) (A)
                 (A) (A) (A) (A) (A) (A) (A) (A) (A) (A) (A) (A)
                 (A) (A) (A) (A) (A) (A) (A) (A) (A) (A) (A) (A)
                 (A) (A) (A) (A)
       Virtual   (A) (A) (A) (A) (A) (A) (A) (A) (A) (A) (A) (A)
                 (A) (A) (A) (A) (A) (A) (A) (A) (A) (A) (A) (A)
                 (A) (A) (A) (A) (A) (A) (A) (A) (A) (A) (A) (A)
                 (A) (A) (A) (A) (A) (A) (A) (A) (A) (A) (A) (A)
                 (A) (A) (A) (A) (A) (A) (A) (A) (A) (A) (A) (A)
                 (A) (A) (A) (A) (A) (A) (A) (A) (A) (A) (A) (A)
                 (A) (A) (A) (A) (A) (A) (A) (A) (A) (A) (A) (A)
                 (A) (A) (A) (A) (A) (A) (A) (A) (A) (A) (A) (A)
                 (A) (A) (A) (A) (A) (A) (A) (A) (A) (A) (A) (A)
                 (A) (A) (A) (A) (A) (A) (A) (A) (A) (A) (A) (A)
                 (A) (A) (A) (A) (A) (A) (A) (A) (A) (A) (A) (A)
                 (A) (A) (A) (A) (A) (A) (A) (A) (A) (A) (A) (A)
                 (A) (A) (A) (A) (A) (A) (A) (A) (A) (A) (A) (A)
                 (A) (A) (A) (A) (A) (A) (A) (A) (A) (A) (A) (A)
                 (A) (A) (A) (A) (A) (A) (A) (A) (A) (A) (A) (A)
                 (A) (A) (A) (A) (A) (A) (A) (A) (A) (A) (A) (A)
                 (A) (A) (A) (A) (A) (A) (A) (A) (A) (A) (A) (A)
                 (A) (A) (A) (A) (A)
 The electronic state is 1-A.
 Alpha  occ. eigenvalues --  -19.29627 -19.28935 -19.23648 -14.44326 -10.42668
 Alpha  occ. eigenvalues --  -10.40495 -10.35379 -10.34889 -10.34722 -10.32917
 Alpha  occ. eigenvalues --  -10.32000 -10.30867 -10.29476 -10.28805  -1.19894
 Alpha  occ. eigenvalues --   -1.17980  -1.10365  -1.04226  -0.91803  -0.88056
 Alpha  occ. eigenvalues --   -0.86405  -0.83553  -0.77033  -0.75143  -0.73096
 Alpha  occ. eigenvalues --   -0.68863  -0.65537  -0.63150  -0.61408  -0.60137
 Alpha  occ. eigenvalues --   -0.57372  -0.56482  -0.55345  -0.55025  -0.53338
 Alpha  occ. eigenvalues --   -0.52915  -0.49972  -0.49748  -0.48910  -0.48192
 Alpha  occ. eigenvalues --   -0.47045  -0.46522  -0.45604  -0.45318  -0.42053
 Alpha  occ. eigenvalues --   -0.41814  -0.41291  -0.38268  -0.37399  -0.36167
 Alpha  occ. eigenvalues --   -0.34602  -0.31520
 Alpha virt. eigenvalues --    0.01366   0.05758   0.12600   0.14678   0.15660
 Alpha virt. eigenvalues --    0.16338   0.18966   0.19290   0.19499   0.19720
 Alpha virt. eigenvalues --    0.20418   0.21145   0.21546   0.22369   0.23679
 Alpha virt. eigenvalues --    0.24223   0.24672   0.24743   0.25376   0.28951
 Alpha virt. eigenvalues --    0.29194   0.31618   0.33126   0.33907   0.35271
 Alpha virt. eigenvalues --    0.37358   0.37400   0.40446   0.44646   0.46436
 Alpha virt. eigenvalues --    0.47769   0.49492   0.50656   0.51012   0.51725
 Alpha virt. eigenvalues --    0.51809   0.52111   0.53055   0.53274   0.55297
 Alpha virt. eigenvalues --    0.56230   0.57114   0.60111   0.60684   0.60967
 Alpha virt. eigenvalues --    0.63335   0.64336   0.66656   0.67598   0.68817
 Alpha virt. eigenvalues --    0.69806   0.70168   0.70501   0.71114   0.72911
 Alpha virt. eigenvalues --    0.73292   0.73804   0.73984   0.74434   0.75374
 Alpha virt. eigenvalues --    0.76218   0.76782   0.77227   0.77862   0.78074
 Alpha virt. eigenvalues --    0.79019   0.79493   0.79854   0.80116   0.81195
 Alpha virt. eigenvalues --    0.81838   0.83450   0.85198   0.86992   0.90011
 Alpha virt. eigenvalues --    0.90761   0.97050   0.98334   1.00246   1.01105
 Alpha virt. eigenvalues --    1.02985   1.05162   1.09692   1.11433   1.12440
 Alpha virt. eigenvalues --    1.13601   1.16075   1.18265   1.19670   1.22235
 Alpha virt. eigenvalues --    1.24759   1.27028   1.29617   1.31145   1.32846
 Alpha virt. eigenvalues --    1.33423   1.35551   1.36464   1.41004   1.42019
 Alpha virt. eigenvalues --    1.42737   1.43997   1.48010   1.48920   1.50559
 Alpha virt. eigenvalues --    1.53933   1.54949   1.58369   1.61261   1.61509
 Alpha virt. eigenvalues --    1.63343   1.65685   1.68244   1.69717   1.73279
 Alpha virt. eigenvalues --    1.75624   1.76430   1.77038   1.79534   1.80609
 Alpha virt. eigenvalues --    1.82179   1.83328   1.83574   1.84755   1.85339
 Alpha virt. eigenvalues --    1.85748   1.87080   1.87212   1.87971   1.88499
 Alpha virt. eigenvalues --    1.89179   1.89677   1.91896   1.92424   1.94605
 Alpha virt. eigenvalues --    1.95445   1.96039   1.97305   1.98622   2.00024
 Alpha virt. eigenvalues --    2.01701   2.02068   2.04401   2.04843   2.07391
 Alpha virt. eigenvalues --    2.10400   2.11462   2.11957   2.14215   2.17584
 Alpha virt. eigenvalues --    2.19211   2.20359   2.22860   2.25973   2.28810
 Alpha virt. eigenvalues --    2.29353   2.31355   2.32554   2.36730   2.41517
 Alpha virt. eigenvalues --    2.44126   2.45003   2.48011   2.48316   2.48962
 Alpha virt. eigenvalues --    2.49162   2.50952   2.55258   2.57876   2.59683
 Alpha virt. eigenvalues --    2.61732   2.63028   2.63952   2.65654   2.72599
 Alpha virt. eigenvalues --    2.73080   2.77140   2.77850   2.79729   2.80871
 Alpha virt. eigenvalues --    2.83701   2.83962   2.85969   2.90220   2.90874
 Alpha virt. eigenvalues --    2.95529   2.96643   2.98306   3.00450   3.02416
 Alpha virt. eigenvalues --    3.05300   3.05405   3.06670   3.09042   3.09949
 Alpha virt. eigenvalues --    3.11987   3.13337   3.18078   3.19634   3.22598
 Alpha virt. eigenvalues --    3.29511   3.31853   3.34831   3.51891   3.56019
 Alpha virt. eigenvalues --    3.63458   3.69479   3.79545   3.84225
          Condensed to atoms (all electrons):
               1          2          3          4          5          6
     1  C    4.605743   0.446154  -0.037781  -0.007729  -0.008383  -0.001929
     2  C    0.446154   4.453851   0.252007  -0.033669   0.001281   0.012141
     3  O   -0.037781   0.252007   7.990701   0.416365  -0.084484  -0.168471
     4  C   -0.007729  -0.033669   0.416365   4.575784   0.744092   0.091651
     5  O   -0.008383   0.001281  -0.084484   0.744092   7.648230  -0.113814
     6  C   -0.001929   0.012141  -0.168471   0.091651  -0.113814   5.911950
     7  C    0.000169  -0.000865   0.014161  -0.044566   0.003017   0.432455
     8  C   -0.000003   0.000006   0.000927   0.012380  -0.000026   0.003288
     9  C   -0.000000   0.000000  -0.000001   0.000104   0.000007  -0.070122
    10  N   -0.000000   0.000002  -0.000008   0.006353   0.000046  -0.092301
    11  C   -0.000020  -0.000136   0.000155  -0.044595   0.005449   0.323432
    12  O   -0.000001   0.000013  -0.000014   0.010415  -0.007003  -0.116067
    13  C    0.000000  -0.000000   0.000002  -0.000096   0.000271   0.005626
    14  C    0.000000   0.000000  -0.000000  -0.000019  -0.000085  -0.001166
    15  H    0.393748  -0.014854  -0.005857   0.004108   0.008634   0.000493
    16  H    0.382429  -0.016129   0.003672   0.000248  -0.000064   0.000022
    17  H    0.387282  -0.021291   0.001327   0.000074   0.000211  -0.000258
    18  H   -0.029101   0.389298  -0.026804  -0.007246   0.017985   0.001329
    19  H   -0.027618   0.390604  -0.024535   0.004800   0.000421   0.000276
    20  H   -0.000015  -0.000734   0.016327  -0.021840   0.000271  -0.045452
    21  H    0.000000   0.000000  -0.000025  -0.000161   0.000000   0.010947
    22  H   -0.000000   0.000000  -0.000000   0.000079  -0.000000   0.001099
    23  H   -0.000000   0.000000   0.000000   0.000026  -0.000027   0.000259
    24  H    0.000000  -0.000000   0.000000  -0.000210   0.000156   0.000421
    25  H    0.000000  -0.000000   0.000000  -0.000095   0.000007   0.000378
    26  H   -0.000000   0.000000   0.000000   0.000097   0.000045  -0.000399
    27  H   -0.000000   0.000000   0.000000   0.000000   0.000000   0.000033
               7          8          9         10         11         12
     1  C    0.000169  -0.000003  -0.000000  -0.000000  -0.000020  -0.000001
     2  C   -0.000865   0.000006   0.000000   0.000002  -0.000136   0.000013
     3  O    0.014161   0.000927  -0.000001  -0.000008   0.000155  -0.000014
     4  C   -0.044566   0.012380   0.000104   0.006353  -0.044595   0.010415
     5  O    0.003017  -0.000026   0.000007   0.000046   0.005449  -0.007003
     6  C    0.432455   0.003288  -0.070122  -0.092301   0.323432  -0.116067
     7  C    4.811955   0.408579   0.000548  -0.038374  -0.048998  -0.000008
     8  C    0.408579   5.011936   0.439565  -0.043113  -0.066792   0.000443
     9  C    0.000548   0.439565   4.707133   0.511315  -0.034931   0.001793
    10  N   -0.038374  -0.043113   0.511315   6.408457   0.530036  -0.083627
    11  C   -0.048998  -0.066792  -0.034931   0.530036   4.723086   0.460403
    12  O   -0.000008   0.000443   0.001793  -0.083627   0.460403   7.845950
    13  C   -0.000259   0.000029   0.000257  -0.009755  -0.040298   0.271058
    14  C    0.000006  -0.000070  -0.000264  -0.010888  -0.006481  -0.041442
    15  H   -0.000150  -0.000000   0.000000  -0.000000   0.000018   0.000001
    16  H    0.000001   0.000000   0.000000   0.000000   0.000000   0.000000
    17  H    0.000060   0.000006   0.000000  -0.000000  -0.000005   0.000000
    18  H    0.000135   0.000010  -0.000000  -0.000000   0.000010  -0.000002
    19  H   -0.000210  -0.000007  -0.000000  -0.000000   0.000027   0.000000
    20  H    0.439391  -0.056175   0.009080  -0.000096   0.011123  -0.000056
    21  H   -0.053474   0.425036  -0.045626   0.005232   0.001088   0.000013
    22  H    0.006288  -0.066357   0.421503  -0.038812   0.004293  -0.000079
    23  H    0.000012   0.000087   0.000483   0.026956  -0.013815  -0.025438
    24  H    0.000033   0.000002   0.000030   0.000413   0.004840  -0.025347
    25  H    0.000111   0.000096   0.000393   0.011842   0.004056  -0.004743
    26  H   -0.000011   0.000002  -0.000001   0.000405   0.000015   0.001543
    27  H   -0.000001   0.000001   0.000006  -0.000045   0.000187   0.003716
              13         14         15         16         17         18
     1  C    0.000000   0.000000   0.393748   0.382429   0.387282  -0.029101
     2  C   -0.000000   0.000000  -0.014854  -0.016129  -0.021291   0.389298
     3  O    0.000002  -0.000000  -0.005857   0.003672   0.001327  -0.026804
     4  C   -0.000096  -0.000019   0.004108   0.000248   0.000074  -0.007246
     5  O    0.000271  -0.000085   0.008634  -0.000064   0.000211   0.017985
     6  C    0.005626  -0.001166   0.000493   0.000022  -0.000258   0.001329
     7  C   -0.000259   0.000006  -0.000150   0.000001   0.000060   0.000135
     8  C    0.000029  -0.000070  -0.000000   0.000000   0.000006   0.000010
     9  C    0.000257  -0.000264   0.000000   0.000000   0.000000  -0.000000
    10  N   -0.009755  -0.010888  -0.000000   0.000000  -0.000000  -0.000000
    11  C   -0.040298  -0.006481   0.000018   0.000000  -0.000005   0.000010
    12  O    0.271058  -0.041442   0.000001   0.000000   0.000000  -0.000002
    13  C    4.448581   0.447203   0.000000   0.000000  -0.000000  -0.000000
    14  C    0.447203   4.614818  -0.000000  -0.000000   0.000000   0.000000
    15  H    0.000000  -0.000000   0.596363  -0.017417  -0.023999  -0.010233
    16  H    0.000000  -0.000000  -0.017417   0.623296  -0.017721  -0.001318
    17  H   -0.000000   0.000000  -0.023999  -0.017721   0.629721   0.007611
    18  H   -0.000000   0.000000  -0.010233  -0.001318   0.007611   0.635825
    19  H    0.000000  -0.000000   0.006576  -0.003080  -0.009334  -0.028753
    20  H    0.000007  -0.000000  -0.000057  -0.000001   0.000247   0.000203
    21  H    0.000000   0.000001  -0.000000   0.000000  -0.000000  -0.000000
    22  H   -0.000019   0.000104   0.000000  -0.000000   0.000000   0.000000
    23  H    0.386369  -0.029762   0.000000   0.000000   0.000000  -0.000000
    24  H    0.388619  -0.025785  -0.000000   0.000000  -0.000000   0.000000
    25  H   -0.018455   0.390491  -0.000000  -0.000000   0.000000  -0.000000
    26  H   -0.020225   0.388415   0.000000   0.000000  -0.000000  -0.000000
    27  H   -0.015549   0.378752   0.000000   0.000000   0.000000   0.000000
              19         20         21         22         23         24
     1  C   -0.027618  -0.000015   0.000000  -0.000000  -0.000000   0.000000
     2  C    0.390604  -0.000734   0.000000   0.000000   0.000000  -0.000000
     3  O   -0.024535   0.016327  -0.000025  -0.000000   0.000000   0.000000
     4  C    0.004800  -0.021840  -0.000161   0.000079   0.000026  -0.000210
     5  O    0.000421   0.000271   0.000000  -0.000000  -0.000027   0.000156
     6  C    0.000276  -0.045452   0.010947   0.001099   0.000259   0.000421
     7  C   -0.000210   0.439391  -0.053474   0.006288   0.000012   0.000033
     8  C   -0.000007  -0.056175   0.425036  -0.066357   0.000087   0.000002
     9  C   -0.000000   0.009080  -0.045626   0.421503   0.000483   0.000030
    10  N   -0.000000  -0.000096   0.005232  -0.038812   0.026956   0.000413
    11  C    0.000027   0.011123   0.001088   0.004293  -0.013815   0.004840
    12  O    0.000000  -0.000056   0.000013  -0.000079  -0.025438  -0.025347
    13  C    0.000000   0.000007   0.000000  -0.000019   0.386369   0.388619
    14  C   -0.000000  -0.000000   0.000001   0.000104  -0.029762  -0.025785
    15  H    0.006576  -0.000057  -0.000000   0.000000   0.000000  -0.000000
    16  H   -0.003080  -0.000001   0.000000  -0.000000   0.000000   0.000000
    17  H   -0.009334   0.000247  -0.000000   0.000000   0.000000  -0.000000
    18  H   -0.028753   0.000203  -0.000000   0.000000  -0.000000   0.000000
    19  H    0.649446  -0.000298   0.000000  -0.000000   0.000000  -0.000000
    20  H   -0.000298   0.615485  -0.009258  -0.000243   0.000001  -0.000000
    21  H    0.000000  -0.009258   0.642243  -0.006076  -0.000005  -0.000000
    22  H   -0.000000  -0.000243  -0.006076   0.639256  -0.000127  -0.000006
    23  H    0.000000   0.000001  -0.000005  -0.000127   0.646496  -0.029686
    24  H   -0.000000  -0.000000  -0.000000  -0.000006  -0.029686   0.646935
    25  H    0.000000   0.000000  -0.000005  -0.000302  -0.010060   0.006893
    26  H    0.000000  -0.000000  -0.000000   0.000002   0.007671  -0.009469
    27  H    0.000000   0.000000  -0.000000  -0.000002  -0.001000  -0.003143
              25         26         27
     1  C    0.000000  -0.000000  -0.000000
     2  C   -0.000000   0.000000   0.000000
     3  O    0.000000   0.000000   0.000000
     4  C   -0.000095   0.000097   0.000000
     5  O    0.000007   0.000045   0.000000
     6  C    0.000378  -0.000399   0.000033
     7  C    0.000111  -0.000011  -0.000001
     8  C    0.000096   0.000002   0.000001
     9  C    0.000393  -0.000001   0.000006
    10  N    0.011842   0.000405  -0.000045
    11  C    0.004056   0.000015   0.000187
    12  O   -0.004743   0.001543   0.003716
    13  C   -0.018455  -0.020225  -0.015549
    14  C    0.390491   0.388415   0.378752
    15  H   -0.000000   0.000000   0.000000
    16  H   -0.000000   0.000000   0.000000
    17  H    0.000000  -0.000000   0.000000
    18  H   -0.000000  -0.000000   0.000000
    19  H    0.000000   0.000000   0.000000
    20  H    0.000000  -0.000000   0.000000
    21  H   -0.000005  -0.000000  -0.000000
    22  H   -0.000302   0.000002  -0.000002
    23  H   -0.010060   0.007671  -0.001000
    24  H    0.006893  -0.009469  -0.003143
    25  H    0.609919  -0.024214  -0.017507
    26  H   -0.024214   0.619580  -0.017158
    27  H   -0.017507  -0.017158   0.629795
 Mulliken charges:
               1
     1  C   -0.102945
     2  C    0.142323
     3  O   -0.347663
     4  C    0.293650
     5  O   -0.216237
     6  C   -0.185821
     7  C    0.069993
     8  C   -0.069852
     9  C    0.058727
    10  N   -0.184038
    11  C    0.187852
    12  O   -0.291519
    13  C    0.156634
    14  C   -0.103827
    15  H    0.062626
    16  H    0.046061
    17  H    0.046068
    18  H    0.051052
    19  H    0.041685
    20  H    0.042088
    21  H    0.030067
    22  H    0.039399
    23  H    0.041561
    24  H    0.045305
    25  H    0.051194
    26  H    0.053701
    27  H    0.041915
 Sum of Mulliken charges =  -0.00000
 Mulliken charges with hydrogens summed into heavy atoms:
               1
     1  C    0.051810
     2  C    0.235060
     3  O   -0.347663
     4  C    0.293650
     5  O   -0.216237
     6  C   -0.185821
     7  C    0.112081
     8  C   -0.039785
     9  C    0.098126
    10  N   -0.184038
    11  C    0.187852
    12  O   -0.291519
    13  C    0.243500
    14  C    0.042984
 Electronic spatial extent (au):  <R**2>=           3319.1853
 Charge=             -0.0000 electrons
 Dipole moment (field-independent basis, Debye):
    X=              0.5050    Y=              1.8324    Z=              0.2976  Tot=              1.9239
 Quadrupole moment (field-independent basis, Debye-Ang):
   XX=            -69.4881   YY=            -77.9195   ZZ=            -82.4542
   XY=              2.4603   XZ=              0.0866   YZ=              1.0120
 Traceless Quadrupole moment (field-independent basis, Debye-Ang):
   XX=              7.1325   YY=             -1.2989   ZZ=             -5.8336
   XY=              2.4603   XZ=              0.0866   YZ=              1.0120
 Octapole moment (field-independent basis, Debye-Ang**2):
  XXX=             41.1151  YYY=             12.7180  ZZZ=             -5.9859  XYY=            -15.7556
  XXY=            -17.3636  XXZ=             -5.6112  XZZ=              4.7342  YZZ=             -8.8226
  YYZ=              2.5759  XYZ=             -2.5054
 Hexadecapole moment (field-independent basis, Debye-Ang**3):
 XXXX=          -2736.8773 YYYY=          -1120.6360 ZZZZ=           -230.2918 XXXY=              3.7143
 XXXZ=            -12.5445 YYYX=              4.9684 YYYZ=             18.7741 ZZZX=             -1.3025
 ZZZY=              3.8983 XXYY=           -639.1590 XXZZ=           -530.7201 YYZZ=           -246.0580
 XXYZ=             13.1256 YYXZ=              1.2637 ZZXY=              4.7117
 N-N= 8.996419187787D+02 E-N=-3.357116633594D+03  KE= 6.621235788512D+02
   1 Symmetry operations used in ECPInt.
 ECPInt:  NShTT=    7626 NPrTT=   27482 LenC2=    7134 LenP2D=   18531.
 LDataN:  DoStor=T MaxTD1= 5 Len=  102
 Calling FoFJK, ICntrl=      2127 FMM=F ISym2X=0 I1Cent= 0 IOpClX= 0 NMat=1 NMatS=1 NMatT=0.
 ***** Axes restored to original set *****
 -------------------------------------------------------------------
 Center     Atomic                   Forces (Hartrees/Bohr)
 Number     Number              X              Y              Z
 -------------------------------------------------------------------
      1        6           0.000000659   -0.000004872   -0.000003277
      2        6          -0.000001696   -0.000007453   -0.000001554
      3        8          -0.000000455   -0.000001802   -0.000002768
      4        6          -0.000007261   -0.000007280    0.000002453
      5        8           0.000003672    0.000009085   -0.000001536
      6        6           0.000009850   -0.000004318    0.000000510
      7        6          -0.000002231    0.000005281    0.000001119
      8        6           0.000000606    0.000000642    0.000000269
      9        6          -0.000000587    0.000003742    0.000001945
     10        7           0.000004852   -0.000005242   -0.000001097
     11        6          -0.000009323    0.000006897    0.000002104
     12        8          -0.000000454   -0.000001751   -0.000002104
     13        6          -0.000005962    0.000003911    0.000001064
     14        6           0.000008271    0.000004844   -0.000005039
     15        1          -0.000000400   -0.000001406    0.000000983
     16        1          -0.000000820   -0.000001054   -0.000000893
     17        1           0.000000011    0.000002042    0.000002987
     18        1           0.000000507    0.000004957    0.000002421
     19        1           0.000002394    0.000000892    0.000000025
     20        1          -0.000001799   -0.000000615    0.000000887
     21        1           0.000000449   -0.000002081    0.000001535
     22        1           0.000004158   -0.000002021    0.000000426
     23        1           0.000002033   -0.000000860    0.000000950
     24        1           0.000000994    0.000001243   -0.000001066
     25        1          -0.000001083    0.000000280    0.000000676
     26        1          -0.000000825   -0.000000935   -0.000000049
     27        1          -0.000005559   -0.000002126   -0.000000972
 -------------------------------------------------------------------
 Cartesian Forces:  Max     0.000009850 RMS     0.000003500

 GradGradGradGradGradGradGradGradGradGradGradGradGradGradGradGradGradGrad
 Berny optimization.
 FormGI is forming the generalized inverse of G from B-inverse, IUseBI=4.
 Internal  Forces:  Max     0.000009274 RMS     0.000001929
 Search for a local minimum.
 Step number   1 out of a maximum of  134
 All quantities printed in internal units (Hartrees-Bohrs-Radians)
 Mixed Optimization -- En-DIIS/RFO-DIIS
 Second derivative matrix not updated -- first step.
 ITU=  0
     Eigenvalues ---    0.00550   0.00551   0.00861   0.01343   0.01351
     Eigenvalues ---    0.01370   0.01631   0.01989   0.02174   0.02209
     Eigenvalues ---    0.02219   0.02235   0.02356   0.02409   0.02528
     Eigenvalues ---    0.02685   0.04974   0.05002   0.05680   0.05700
     Eigenvalues ---    0.05707   0.05738   0.05812   0.05823   0.11745
     Eigenvalues ---    0.11760   0.13915   0.13930   0.16000   0.16000
     Eigenvalues ---    0.16000   0.16000   0.16000   0.16000   0.16000
     Eigenvalues ---    0.16000   0.16000   0.22058   0.22064   0.22084
     Eigenvalues ---    0.23315   0.24909   0.24997   0.24998   0.25000
     Eigenvalues ---    0.25000   0.25000   0.25000   0.30721   0.30734
     Eigenvalues ---    0.33144   0.33660   0.33678   0.33695   0.33716
     Eigenvalues ---    0.33726   0.33732   0.33822   0.33827   0.33855
     Eigenvalues ---    0.33866   0.34181   0.34791   0.34792   0.40369
     Eigenvalues ---    0.41516   0.41819   0.44427   0.45462   0.47046
     Eigenvalues ---    0.55934   0.57328   0.59113   0.60722   1.03879
 RFO step:  Lambda= 0.00000000D+00 EMin= 5.49713765D-03
 Linear search not attempted -- first point.
 Iteration  1 RMS(Cart)=  0.00004232 RMS(Int)=  0.00000000
 Iteration  2 RMS(Cart)=  0.00000000 RMS(Int)=  0.00000000
 Variable       Old X    -DE/DX   Delta X   Delta X   Delta X     New X
                                 (Linear)    (Quad)   (Total)
    R1        2.86548   0.00000   0.00000   0.00000   0.00000   2.86548
    R2        2.07632   0.00000   0.00000   0.00000   0.00000   2.07633
    R3        2.07878  -0.00000   0.00000  -0.00000  -0.00000   2.07878
    R4        2.07847   0.00000   0.00000   0.00001   0.00001   2.07848
    R5        2.69544   0.00000   0.00000   0.00000   0.00000   2.69544
    R6        2.07812  -0.00001   0.00000  -0.00002  -0.00002   2.07811
    R7        2.07575   0.00000   0.00000   0.00001   0.00001   2.07576
    R8        2.54311  -0.00000   0.00000  -0.00000  -0.00000   2.54311
    R9        2.27124  -0.00001   0.00000  -0.00001  -0.00001   2.27124
   R10        2.82099  -0.00000   0.00000  -0.00000  -0.00000   2.82099
   R11        2.63442   0.00000   0.00000   0.00001   0.00001   2.63443
   R12        2.68657   0.00000   0.00000   0.00001   0.00001   2.68658
   R13        2.63251  -0.00000   0.00000  -0.00000  -0.00000   2.63251
   R14        2.06014  -0.00000   0.00000  -0.00001  -0.00001   2.06014
   R15        2.62464  -0.00000   0.00000  -0.00001  -0.00001   2.62463
   R16        2.06016  -0.00000   0.00000  -0.00001  -0.00001   2.06015
   R17        2.51415  -0.00000   0.00000  -0.00000  -0.00000   2.51415
   R18        2.07026  -0.00000   0.00000  -0.00001  -0.00001   2.07024
   R19        2.50631  -0.00001   0.00000  -0.00001  -0.00001   2.50630
   R20        2.50373   0.00000   0.00000   0.00000   0.00000   2.50373
   R21        2.69154  -0.00000   0.00000  -0.00000  -0.00000   2.69154
   R22        2.86524  -0.00000   0.00000  -0.00001  -0.00001   2.86523
   R23        2.07785  -0.00000   0.00000  -0.00001  -0.00001   2.07784
   R24        2.07557  -0.00000   0.00000  -0.00000  -0.00000   2.07557
   R25        2.07623   0.00000   0.00000   0.00000   0.00000   2.07623
   R26        2.07795   0.00000   0.00000   0.00000   0.00000   2.07795
   R27        2.07908   0.00001   0.00000   0.00002   0.00002   2.07910
    A1        1.92996   0.00000   0.00000   0.00001   0.00001   1.92997
    A2        1.91795  -0.00000   0.00000  -0.00001  -0.00001   1.91794
    A3        1.93490  -0.00000   0.00000  -0.00000  -0.00000   1.93490
    A4        1.88811  -0.00000   0.00000   0.00000   0.00000   1.88811
    A5        1.90154  -0.00000   0.00000  -0.00001  -0.00001   1.90153
    A6        1.89030   0.00000   0.00000   0.00000   0.00000   1.89030
    A7        1.95149   0.00000   0.00000   0.00001   0.00001   1.95150
    A8        1.93320   0.00000   0.00000   0.00000   0.00000   1.93321
    A9        1.94195  -0.00000   0.00000  -0.00001  -0.00001   1.94194
   A10        1.90349  -0.00000   0.00000  -0.00000  -0.00000   1.90349
   A11        1.82920   0.00000   0.00000   0.00000   0.00000   1.82920
   A12        1.90111   0.00000   0.00000  -0.00000  -0.00000   1.90111
   A13        2.04504  -0.00000   0.00000  -0.00000  -0.00000   2.04504
   A14        2.14579  -0.00001   0.00000  -0.00002  -0.00002   2.14577
   A15        1.93472   0.00000   0.00000   0.00001   0.00001   1.93473
   A16        2.20264   0.00000   0.00000   0.00001   0.00001   2.20266
   A17        2.10616   0.00000   0.00000   0.00002   0.00002   2.10618
   A18        2.13645  -0.00000   0.00000  -0.00000  -0.00000   2.13645
   A19        2.04052  -0.00000   0.00000  -0.00001  -0.00001   2.04051
   A20        2.10304   0.00000   0.00000   0.00001   0.00001   2.10305
   A21        2.06866   0.00000   0.00000   0.00000   0.00000   2.06866
   A22        2.11147  -0.00000   0.00000  -0.00001  -0.00001   2.11146
   A23        2.04962   0.00000   0.00000   0.00000   0.00000   2.04962
   A24        2.12133   0.00000   0.00000   0.00000   0.00000   2.12133
   A25        2.11223  -0.00000   0.00000  -0.00000  -0.00000   2.11222
   A26        2.15363   0.00000   0.00000   0.00000   0.00000   2.15363
   A27        2.10399  -0.00000   0.00000   0.00000   0.00000   2.10399
   A28        2.02556  -0.00000   0.00000  -0.00000  -0.00000   2.02556
   A29        2.08343   0.00000   0.00000  -0.00000  -0.00000   2.08343
   A30        2.13602   0.00000   0.00000   0.00001   0.00001   2.13603
   A31        2.07040   0.00000   0.00000   0.00000   0.00000   2.07040
   A32        2.07661  -0.00000   0.00000  -0.00001  -0.00001   2.07660
   A33        2.09037  -0.00000   0.00000  -0.00001  -0.00001   2.09036
   A34        1.95390  -0.00000   0.00000  -0.00000  -0.00000   1.95389
   A35        1.91417   0.00000   0.00000   0.00000   0.00000   1.91417
   A36        1.81768  -0.00000   0.00000  -0.00002  -0.00002   1.81766
   A37        1.93612   0.00000   0.00000   0.00001   0.00001   1.93613
   A38        1.93570   0.00000   0.00000   0.00000   0.00000   1.93570
   A39        1.90235  -0.00000   0.00000   0.00000   0.00000   1.90235
   A40        1.93196   0.00000   0.00000   0.00001   0.00001   1.93198
   A41        1.93007   0.00000   0.00000   0.00001   0.00001   1.93008
   A42        1.91688   0.00000   0.00000  -0.00000  -0.00000   1.91687
   A43        1.90226  -0.00000   0.00000  -0.00000  -0.00000   1.90226
   A44        1.88949  -0.00000   0.00000  -0.00001  -0.00001   1.88948
   A45        1.89224  -0.00000   0.00000  -0.00001  -0.00001   1.89223
    D1        1.13120  -0.00000   0.00000  -0.00000  -0.00000   1.13120
    D2       -0.99579  -0.00000   0.00000  -0.00000  -0.00000  -0.99580
    D3       -3.11318   0.00000   0.00000   0.00000   0.00000  -3.11318
    D4       -3.06880  -0.00000   0.00000   0.00000   0.00000  -3.06880
    D5        1.08739  -0.00000   0.00000  -0.00000  -0.00000   1.08739
    D6       -1.03000   0.00000   0.00000   0.00000   0.00000  -1.02999
    D7       -0.97978  -0.00000   0.00000  -0.00000  -0.00000  -0.97979
    D8       -3.10678  -0.00000   0.00000  -0.00000  -0.00000  -3.10678
    D9        1.05902   0.00000   0.00000   0.00000   0.00000   1.05902
   D10       -1.44193   0.00000   0.00000   0.00005   0.00005  -1.44188
   D11        0.70205   0.00000   0.00000   0.00006   0.00006   0.70211
   D12        2.73544   0.00000   0.00000   0.00006   0.00006   2.73550
   D13       -0.03036  -0.00000   0.00000  -0.00003  -0.00003  -0.03039
   D14        3.10326  -0.00000   0.00000  -0.00002  -0.00002   3.10324
   D15       -0.18758  -0.00000   0.00000  -0.00000  -0.00000  -0.18758
   D16        2.96592  -0.00000   0.00000  -0.00001  -0.00001   2.96591
   D17        2.94571   0.00000   0.00000   0.00002   0.00002   2.94573
   D18       -0.18397   0.00000   0.00000   0.00001   0.00001  -0.18396
   D19       -3.11838  -0.00000   0.00000   0.00000   0.00000  -3.11838
   D20        0.01840  -0.00000   0.00000  -0.00000  -0.00000   0.01840
   D21        0.01193   0.00000   0.00000   0.00001   0.00001   0.01194
   D22       -3.13447   0.00000   0.00000   0.00000   0.00000  -3.13447
   D23        3.11424  -0.00000   0.00000  -0.00000  -0.00000   3.11424
   D24       -0.04667  -0.00000   0.00000  -0.00002  -0.00002  -0.04669
   D25       -0.01586  -0.00000   0.00000  -0.00001  -0.00001  -0.01587
   D26        3.10641  -0.00000   0.00000  -0.00002  -0.00002   3.10638
   D27       -0.00177   0.00000   0.00000   0.00000   0.00000  -0.00177
   D28        3.13532  -0.00000   0.00000  -0.00001  -0.00001   3.13531
   D29       -3.13843   0.00000   0.00000   0.00001   0.00001  -3.13843
   D30       -0.00134  -0.00000   0.00000  -0.00001  -0.00001  -0.00135
   D31       -0.00606  -0.00000   0.00000  -0.00001  -0.00001  -0.00607
   D32        3.13416   0.00000   0.00000   0.00000   0.00000   3.13416
   D33        3.14001   0.00000   0.00000   0.00000   0.00000   3.14001
   D34       -0.00296   0.00000   0.00000   0.00001   0.00001  -0.00295
   D35        0.00259   0.00000   0.00000   0.00001   0.00001   0.00260
   D36       -3.13768  -0.00000   0.00000  -0.00000  -0.00000  -3.13768
   D37        0.00877   0.00000   0.00000   0.00000   0.00000   0.00877
   D38       -3.11343   0.00000   0.00000   0.00002   0.00002  -3.11341
   D39        3.12618  -0.00000   0.00000  -0.00002  -0.00002   3.12616
   D40       -0.03407  -0.00000   0.00000  -0.00004  -0.00004  -0.03411
   D41       -1.42120  -0.00000   0.00000  -0.00001  -0.00001  -1.42122
   D42        0.73573   0.00000   0.00000  -0.00000  -0.00000   0.73573
   D43        2.76950  -0.00000   0.00000  -0.00001  -0.00001   2.76949
   D44        1.15547   0.00000   0.00000   0.00001   0.00001   1.15549
   D45       -0.95455   0.00000   0.00000   0.00000   0.00000  -0.95454
   D46       -3.04225   0.00000   0.00000   0.00001   0.00001  -3.04223
   D47       -0.98906   0.00000   0.00000   0.00001   0.00001  -0.98906
   D48       -3.09908  -0.00000   0.00000  -0.00000  -0.00000  -3.09909
   D49        1.09640   0.00000   0.00000   0.00001   0.00001   1.09641
   D50       -3.10576  -0.00000   0.00000  -0.00000  -0.00000  -3.10577
   D51        1.06740  -0.00000   0.00000  -0.00002  -0.00002   1.06739
   D52       -1.02030  -0.00000   0.00000  -0.00001  -0.00001  -1.02030
         Item               Value     Threshold  Converged?
 Maximum Force            0.000009     0.000450     YES
 RMS     Force            0.000002     0.000300     YES
 Maximum Displacement     0.000132     0.001800     YES
 RMS     Displacement     0.000042     0.001200     YES
 Predicted change in Energy=-7.751157D-10
 Optimization completed.
    -- Stationary point found.
                           ----------------------------
                           !   Optimized Parameters   !
                           ! (Angstroms and Degrees)  !
 --------------------------                            --------------------------
 ! Name  Definition              Value          Derivative Info.                !
 --------------------------------------------------------------------------------
 ! R1    R(1,2)                  1.5163         -DE/DX =    0.0                 !
 ! R2    R(1,15)                 1.0987         -DE/DX =    0.0                 !
 ! R3    R(1,16)                 1.1            -DE/DX =    0.0                 !
 ! R4    R(1,17)                 1.0999         -DE/DX =    0.0                 !
 ! R5    R(2,3)                  1.4264         -DE/DX =    0.0                 !
 ! R6    R(2,18)                 1.0997         -DE/DX =    0.0                 !
 ! R7    R(2,19)                 1.0984         -DE/DX =    0.0                 !
 ! R8    R(3,4)                  1.3458         -DE/DX =    0.0                 !
 ! R9    R(4,5)                  1.2019         -DE/DX =    0.0                 !
 ! R10   R(4,6)                  1.4928         -DE/DX =    0.0                 !
 ! R11   R(6,7)                  1.3941         -DE/DX =    0.0                 !
 ! R12   R(6,11)                 1.4217         -DE/DX =    0.0                 !
 ! R13   R(7,8)                  1.3931         -DE/DX =    0.0                 !
 ! R14   R(7,20)                 1.0902         -DE/DX =    0.0                 !
 ! R15   R(8,9)                  1.3889         -DE/DX =    0.0                 !
 ! R16   R(8,21)                 1.0902         -DE/DX =    0.0                 !
 ! R17   R(9,10)                 1.3304         -DE/DX =    0.0                 !
 ! R18   R(9,22)                 1.0955         -DE/DX =    0.0                 !
 ! R19   R(10,11)                1.3263         -DE/DX =    0.0                 !
 ! R20   R(11,12)                1.3249         -DE/DX =    0.0                 !
 ! R21   R(12,13)                1.4243         -DE/DX =    0.0                 !
 ! R22   R(13,14)                1.5162         -DE/DX =    0.0                 !
 ! R23   R(13,23)                1.0995         -DE/DX =    0.0                 !
 ! R24   R(13,24)                1.0983         -DE/DX =    0.0                 !
 ! R25   R(14,25)                1.0987         -DE/DX =    0.0                 !
 ! R26   R(14,26)                1.0996         -DE/DX =    0.0                 !
 ! R27   R(14,27)                1.1002         -DE/DX =    0.0                 !
 ! A1    A(2,1,15)             110.5785         -DE/DX =    0.0                 !
 ! A2    A(2,1,16)             109.8902         -DE/DX =    0.0                 !
 ! A3    A(2,1,17)             110.8617         -DE/DX =    0.0                 !
 ! A4    A(15,1,16)            108.1805         -DE/DX =    0.0                 !
 ! A5    A(15,1,17)            108.9501         -DE/DX =    0.0                 !
 ! A6    A(16,1,17)            108.3062         -DE/DX =    0.0                 !
 ! A7    A(1,2,3)              111.8122         -DE/DX =    0.0                 !
 ! A8    A(1,2,18)             110.7644         -DE/DX =    0.0                 !
 ! A9    A(1,2,19)             111.2653         -DE/DX =    0.0                 !
 ! A10   A(3,2,18)             109.062          -DE/DX =    0.0                 !
 ! A11   A(3,2,19)             104.8054         -DE/DX =    0.0                 !
 ! A12   A(18,2,19)            108.9257         -DE/DX =    0.0                 !
 ! A13   A(2,3,4)              117.1724         -DE/DX =    0.0                 !
 ! A14   A(3,4,5)              122.9446         -DE/DX =    0.0                 !
 ! A15   A(3,4,6)              110.8515         -DE/DX =    0.0                 !
 ! A16   A(5,4,6)              126.2021         -DE/DX =    0.0                 !
 ! A17   A(4,6,7)              120.6741         -DE/DX =    0.0                 !
 ! A18   A(4,6,11)             122.4094         -DE/DX =    0.0                 !
 ! A19   A(7,6,11)             116.9132         -DE/DX =    0.0                 !
 ! A20   A(6,7,8)              120.4954         -DE/DX =    0.0                 !
 ! A21   A(6,7,20)             118.5257         -DE/DX =    0.0                 !
 ! A22   A(8,7,20)             120.9783         -DE/DX =    0.0                 !
 ! A23   A(7,8,9)              117.4347         -DE/DX =    0.0                 !
 ! A24   A(7,8,21)             121.5432         -DE/DX =    0.0                 !
 ! A25   A(9,8,21)             121.0216         -DE/DX =    0.0                 !
 ! A26   A(8,9,10)             123.394          -DE/DX =    0.0                 !
 ! A27   A(8,9,22)             120.5499         -DE/DX =    0.0                 !
 ! A28   A(10,9,22)            116.0561         -DE/DX =    0.0                 !
 ! A29   A(9,10,11)            119.3719         -DE/DX =    0.0                 !
 ! A30   A(6,11,10)            122.3851         -DE/DX =    0.0                 !
 ! A31   A(6,11,12)            118.6251         -DE/DX =    0.0                 !
 ! A32   A(10,11,12)           118.9808         -DE/DX =    0.0                 !
 ! A33   A(11,12,13)           119.7694         -DE/DX =    0.0                 !
 ! A34   A(12,13,14)           111.9502         -DE/DX =    0.0                 !
 ! A35   A(12,13,23)           109.674          -DE/DX =    0.0                 !
 ! A36   A(12,13,24)           104.1452         -DE/DX =    0.0                 !
 ! A37   A(14,13,23)           110.9316         -DE/DX =    0.0                 !
 ! A38   A(14,13,24)           110.9072         -DE/DX =    0.0                 !
 ! A39   A(23,13,24)           108.9966         -DE/DX =    0.0                 !
 ! A40   A(13,14,25)           110.6934         -DE/DX =    0.0                 !
 ! A41   A(13,14,26)           110.585          -DE/DX =    0.0                 !
 ! A42   A(13,14,27)           109.8289         -DE/DX =    0.0                 !
 ! A43   A(25,14,26)           108.9917         -DE/DX =    0.0                 !
 ! A44   A(25,14,27)           108.2595         -DE/DX =    0.0                 !
 ! A45   A(26,14,27)           108.4176         -DE/DX =    0.0                 !
 ! D1    D(15,1,2,3)            64.813          -DE/DX =    0.0                 !
 ! D2    D(15,1,2,18)          -57.0546         -DE/DX =    0.0                 !
 ! D3    D(15,1,2,19)         -178.372          -DE/DX =    0.0                 !
 ! D4    D(16,1,2,3)          -175.8295         -DE/DX =    0.0                 !
 ! D5    D(16,1,2,18)           62.3029         -DE/DX =    0.0                 !
 ! D6    D(16,1,2,19)          -59.0144         -DE/DX =    0.0                 !
 ! D7    D(17,1,2,3)           -56.1375         -DE/DX =    0.0                 !
 ! D8    D(17,1,2,18)         -178.0051         -DE/DX =    0.0                 !
 ! D9    D(17,1,2,19)           60.6775         -DE/DX =    0.0                 !
 ! D10   D(1,2,3,4)            -82.6165         -DE/DX =    0.0                 !
 ! D11   D(18,2,3,4)            40.2245         -DE/DX =    0.0                 !
 ! D12   D(19,2,3,4)           156.7294         -DE/DX =    0.0                 !
 ! D13   D(2,3,4,5)             -1.7394         -DE/DX =    0.0                 !
 ! D14   D(2,3,4,6)            177.8035         -DE/DX =    0.0                 !
 ! D15   D(3,4,6,7)            -10.7477         -DE/DX =    0.0                 !
 ! D16   D(3,4,6,11)           169.9348         -DE/DX =    0.0                 !
 ! D17   D(5,4,6,7)            168.7769         -DE/DX =    0.0                 !
 ! D18   D(5,4,6,11)           -10.5406         -DE/DX =    0.0                 !
 ! D19   D(4,6,7,8)           -178.6702         -DE/DX =    0.0                 !
 ! D20   D(4,6,7,20)             1.0542         -DE/DX =    0.0                 !
 ! D21   D(11,6,7,8)             0.6836         -DE/DX =    0.0                 !
 ! D22   D(11,6,7,20)         -179.592          -DE/DX =    0.0                 !
 ! D23   D(4,6,11,10)          178.4329         -DE/DX =    0.0                 !
 ! D24   D(4,6,11,12)           -2.6743         -DE/DX =    0.0                 !
 ! D25   D(7,6,11,10)           -0.9087         -DE/DX =    0.0                 !
 ! D26   D(7,6,11,12)          177.984          -DE/DX =    0.0                 !
 ! D27   D(6,7,8,9)             -0.1015         -DE/DX =    0.0                 !
 ! D28   D(6,7,8,21)           179.6408         -DE/DX =    0.0                 !
 ! D29   D(20,7,8,9)          -179.8191         -DE/DX =    0.0                 !
 ! D30   D(20,7,8,21)           -0.0768         -DE/DX =    0.0                 !
 ! D31   D(7,8,9,10)            -0.347          -DE/DX =    0.0                 !
 ! D32   D(7,8,9,22)           179.5742         -DE/DX =    0.0                 !
 ! D33   D(21,8,9,10)          179.9093         -DE/DX =    0.0                 !
 ! D34   D(21,8,9,22)           -0.1695         -DE/DX =    0.0                 !
 ! D35   D(8,9,10,11)            0.1484         -DE/DX =    0.0                 !
 ! D36   D(22,9,10,11)        -179.7761         -DE/DX =    0.0                 !
 ! D37   D(9,10,11,6)            0.5027         -DE/DX =    0.0                 !
 ! D38   D(9,10,11,12)        -178.3863         -DE/DX =    0.0                 !
 ! D39   D(6,11,12,13)         179.1168         -DE/DX =    0.0                 !
 ! D40   D(10,11,12,13)         -1.952          -DE/DX =    0.0                 !
 ! D41   D(11,12,13,14)        -81.4289         -DE/DX =    0.0                 !
 ! D42   D(11,12,13,23)         42.1543         -DE/DX =    0.0                 !
 ! D43   D(11,12,13,24)        158.6805         -DE/DX =    0.0                 !
 ! D44   D(12,13,14,25)         66.2037         -DE/DX =    0.0                 !
 ! D45   D(12,13,14,26)        -54.6916         -DE/DX =    0.0                 !
 ! D46   D(12,13,14,27)       -174.3078         -DE/DX =    0.0                 !
 ! D47   D(23,13,14,25)        -56.6692         -DE/DX =    0.0                 !
 ! D48   D(23,13,14,26)       -177.5645         -DE/DX =    0.0                 !
 ! D49   D(23,13,14,27)         62.8193         -DE/DX =    0.0                 !
 ! D50   D(24,13,14,25)       -177.9471         -DE/DX =    0.0                 !
 ! D51   D(24,13,14,26)         61.1577         -DE/DX =    0.0                 !
 ! D52   D(24,13,14,27)        -58.4586         -DE/DX =    0.0                 !
 --------------------------------------------------------------------------------
 GradGradGradGradGradGradGradGradGradGradGradGradGradGradGradGradGradGrad

                          Input orientation:                          
 ---------------------------------------------------------------------
 Center     Atomic      Atomic             Coordinates (Angstroms)
 Number     Number       Type             X           Y           Z
 ---------------------------------------------------------------------
      1          6           0        4.153230   -0.741830    0.944260
      2          6           0        3.652740   -0.345760   -0.431220
      3          8           0        2.433310    0.390710   -0.359710
      4          6           0        1.294240   -0.316390   -0.243120
      5          8           0        1.269350   -1.517940   -0.228970
      6          6           0        0.114820    0.591360   -0.127260
      7          6           0        0.287740    1.959650    0.076030
      8          6           0       -0.815620    2.799270    0.211170
      9          6           0       -2.074930    2.218710    0.132900
     10          7           0       -2.270490    0.918300   -0.068920
     11          6           0       -1.222900    0.115920   -0.202210
     12          8           0       -1.426550   -1.172370   -0.435110
     13          6           0       -2.756540   -1.678350   -0.496320
     14          6           0       -3.327510   -1.939880    0.883720
     15          1           0        3.452700   -1.439130    1.424120
     16          1           0        5.129510   -1.241320    0.857780
     17          1           0        4.273390    0.142580    1.587000
     18          1           0        3.499390   -1.234110   -1.061020
     19          1           0        4.359240    0.329150   -0.933140
     20          1           0        1.302750    2.353650    0.130930
     21          1           0       -0.700160    3.870660    0.376410
     22          1           0       -2.977630    2.830290    0.239170
     23          1           0       -3.392800   -0.979910   -1.058780
     24          1           0       -2.662150   -2.613220   -1.065060
     25          1           0       -3.454500   -0.998670    1.436100
     26          1           0       -2.664840   -2.604470    1.456710
     27          1           0       -4.311980   -2.422970    0.794890
 ---------------------------------------------------------------------
                    Distance matrix (angstroms):
                    1          2          3          4          5
     1  C    0.000000
     2  C    1.516347   0.000000
     3  O    2.437439   1.426363   0.000000
     4  C    3.124851   2.366171   1.345758   0.000000
     5  O    3.208673   2.663730   2.239384   1.201891   0.000000
     6  C    4.385693   3.672528   2.338737   1.492804   2.406747
     7  C    4.795188   4.110407   2.693495   2.509035   3.626323
     8  C    6.145428   5.501829   4.084435   3.790149   4.814470
     9  C    6.943564   6.300868   4.889629   4.233135   5.027694
    10  N    6.711687   6.067435   4.742219   3.776520   4.300157
    11  C    5.563533   4.902801   3.669903   2.554322   2.980189
    12  O    5.763850   5.146114   4.165024   2.858717   2.725764
    13  C    7.120201   6.546671   5.588758   4.281105   4.037945
    14  C    7.576309   7.279710   6.337572   5.026536   4.748393
    15  H    1.098743   2.162813   2.751276   2.949438   2.739696
    16  H    1.100042   2.155087   3.378653   4.095946   4.019749
    17  H    1.099879   2.167232   2.690194   3.526376   3.883211
    18  H    2.165870   1.099695   2.066011   2.524650   2.397070
    19  H    2.171191   1.098440   2.010427   3.207347   3.668108
    20  H    4.285877   3.622883   2.317763   2.696127   3.888425
    21  H    6.719592   6.113772   4.740312   4.678978   5.769096
    22  H    8.006645   7.382311   5.965608   5.327577   6.096154
    23  H    7.810981   7.101803   6.025849   4.803530   4.765890
    24  H    7.347712   6.739508   5.956914   4.648014   4.165979
    25  H    7.627937   7.377400   6.310437   5.082895   5.035559
    26  H    7.086474   6.969782   6.185598   4.878427   4.415871
    27  H    8.631820   8.321954   7.399245   6.078227   5.746182
                    6          7          8          9         10
     6  C    0.000000
     7  C    1.394075   0.000000
     8  C    2.419736   1.393064   0.000000
     9  C    2.740612   2.377510   1.388898   0.000000
    10  N    2.408318   2.765856   2.394399   1.330429   0.000000
    11  C    1.421673   2.399748   2.745383   2.293465   1.326282
    12  O    2.362485   3.606883   4.069992   3.498922   2.284126
    13  C    3.678654   4.778103   4.931206   4.005944   2.676099
    14  C    4.390774   5.378543   5.405688   4.407557   3.192806
    15  H    4.203702   4.835910   6.136272   6.752906   6.367225
    16  H    5.429193   5.856627   7.217274   8.025037   7.764195
    17  H    4.520376   4.633593   5.903298   6.835634   6.794570
    18  H    3.957217   4.669870   6.042014   6.664867   6.237680
    19  H    4.328198   4.500452   5.847231   6.790097   6.711728
    20  H    2.140912   1.090181   2.166220   3.380375   3.855932
    21  H    3.416385   2.172127   1.090189   2.162921   3.373527
    22  H    3.835404   3.383381   2.162414   1.095532   2.061716
    23  H    3.954746   4.845119   4.747297   3.658969   2.417148
    24  H    4.342852   5.560133   5.859478   5.012732   3.690166
    25  H    4.208603   4.960424   4.784192   3.735382   2.709564
    26  H    4.522035   5.608493   5.845630   5.036222   3.859141
    27  H    5.434437   6.393868   6.311660   5.194980   4.009730
                   11         12         13         14         15
    11  C    0.000000
    12  O    1.324918   0.000000
    13  C    2.378646   1.424302   0.000000
    14  C    3.136071   2.437629   1.516217   0.000000
    15  H    5.188869   5.228286   6.503843   6.820120   0.000000
    16  H    6.581701   6.682682   8.013387   8.485862   1.780888
    17  H    5.780241   6.189292   7.554861   7.912327   1.789377
    18  H    4.985996   4.965930   6.297055   7.133491   2.494020
    19  H    5.633828   5.998163   7.406429   8.218005   3.083067
    20  H    3.390771   4.494697   5.755719   6.359277   4.547505
    21  H    3.834857   5.159298   5.981795   6.397086   6.821863
    22  H    3.262162   4.345318   4.573583   4.826218   7.809046
    23  H    2.577406   2.071749   1.099548   2.167743   7.296338
    24  H    3.203772   1.999898   1.098343   2.166526   6.705661
    25  H    2.984361   2.764811   2.164107   1.098693   6.921240
    26  H    3.497389   2.676426   2.163431   1.099604   6.227630
    27  H    4.120993   3.376775   2.154316   1.100204   7.852014
                   16         17         18         19         20
    16  H    0.000000
    17  H    1.783222   0.000000
    18  H    2.517764   3.083239   0.000000
    19  H    2.503415   2.528494   1.788708   0.000000
    20  H    5.300586   3.979155   4.372413   3.817457   0.000000
    21  H    7.768469   6.332480   6.764695   6.313061   2.524525
    22  H    9.093207   7.849696   7.756393   7.839622   4.308196
    23  H    8.739068   8.187222   6.896877   7.862795   5.880155
    24  H    8.141830   7.920200   6.313995   7.614123   6.466887
    25  H    8.606890   7.813162   7.392403   8.272299   5.964306
    26  H    7.935287   7.463397   6.798131   7.978421   6.487096
    27  H    9.515355   8.995447   8.116359   9.260146   7.401495
                   21         22         23         24         25
    21  H    0.000000
[...]
 Alpha virt. eigenvalues --    6.01265   6.05702   6.10168   6.17367   6.24830
 Alpha virt. eigenvalues --    6.32287   6.38819   6.46139   6.47359   6.54298
 Alpha virt. eigenvalues --    6.67803   6.74967   6.75822   6.80283   6.86976
 Alpha virt. eigenvalues --    6.89456   6.94366   7.03170   7.03749   7.08840
 Alpha virt. eigenvalues --    7.17450   7.25340   7.31589   7.44886   7.55064
 Alpha virt. eigenvalues --    7.57141  22.41187  22.42615  22.51524  22.58004
 Alpha virt. eigenvalues --   22.61315  22.74046  22.92166  23.12738  23.35613
 Alpha virt. eigenvalues --   23.65493  32.68263  44.06961  44.33879  44.47086
          Condensed to atoms (all electrons):
               1          2          3          4          5          6
     1  C    4.960331   0.323025  -0.039969   0.003180  -0.014506  -0.001815
     2  C    0.323025   4.794360   0.215394  -0.040291   0.012137   0.009546
     3  O   -0.039969   0.215394   8.004920   0.387242  -0.086550  -0.180046
     4  C    0.003180  -0.040291   0.387242   4.490660   0.651634   0.258881
     5  O   -0.014506   0.012137  -0.086550   0.651634   7.866908  -0.095215
     6  C   -0.001815   0.009546  -0.180046   0.258881  -0.095215   5.568277
     7  C    0.000535  -0.003359   0.038003  -0.050590   0.006191   0.414537
     8  C   -0.000014  -0.000085   0.000222   0.005577  -0.000192  -0.038659
     9  C    0.000001  -0.000011   0.000425  -0.001966   0.000212  -0.039247
    10  N   -0.000001   0.000021  -0.000216   0.004215  -0.000341  -0.071273
    11  C   -0.000230  -0.000939  -0.005534  -0.073266  -0.000441   0.352431
    12  O   -0.000017   0.000161  -0.000201   0.016942  -0.014406  -0.122634
    13  C    0.000002  -0.000016   0.000019  -0.000287   0.001686  -0.001111
    14  C    0.000000  -0.000001  -0.000004  -0.000240  -0.000564   0.002217
    15  H    0.418330  -0.039129  -0.003329   0.004005   0.006450   0.003120
    16  H    0.397797  -0.033732   0.004347   0.000533   0.000213  -0.000013
    17  H    0.396095  -0.030553   0.003083  -0.002770   0.000463  -0.001429
    18  H   -0.043624   0.423290  -0.030636  -0.015224   0.011150  -0.002841
    19  H   -0.032543   0.396042  -0.033158   0.003857   0.001469   0.004214
    20  H   -0.000289  -0.000829   0.017474  -0.014130   0.000384  -0.034226
    21  H    0.000000   0.000002  -0.000117  -0.000050   0.000002   0.009962
    22  H   -0.000000   0.000000  -0.000001   0.000134  -0.000001  -0.000367
    23  H   -0.000000   0.000001   0.000001   0.000179  -0.000034  -0.006520
    24  H    0.000000  -0.000002   0.000001  -0.000531   0.000123   0.003606
    25  H    0.000000  -0.000000   0.000001  -0.000056   0.000021   0.003408
    26  H   -0.000000   0.000001   0.000000   0.000128   0.000226  -0.002383
    27  H   -0.000000   0.000000   0.000000   0.000007   0.000004  -0.000091
               7          8          9         10         11         12
     1  C    0.000535  -0.000014   0.000001  -0.000001  -0.000230  -0.000017
     2  C   -0.003359  -0.000085  -0.000011   0.000021  -0.000939   0.000161
     3  O    0.038003   0.000222   0.000425  -0.000216  -0.005534  -0.000201
     4  C   -0.050590   0.005577  -0.001966   0.004215  -0.073266   0.016942
     5  O    0.006191  -0.000192   0.000212  -0.000341  -0.000441  -0.014406
     6  C    0.414537  -0.038659  -0.039247  -0.071273   0.352431  -0.122634
     7  C    4.983541   0.459621   0.008931  -0.037562  -0.043417  -0.000552
     8  C    0.459621   4.976779   0.504308  -0.061196  -0.029628   0.001877
     9  C    0.008931   0.504308   4.692367   0.542423  -0.079236   0.000069
    10  N   -0.037562  -0.061196   0.542423   6.641967   0.429835  -0.082350
    11  C   -0.043417  -0.029628  -0.079236   0.429835   4.722838   0.428783
    12  O   -0.000552   0.001877   0.000069  -0.082350   0.428783   7.885785
    13  C   -0.001292  -0.000038  -0.001483  -0.017556  -0.028616   0.226431
    14  C    0.000073   0.000065  -0.000504  -0.008763   0.002854  -0.041706
    15  H   -0.000328   0.000006  -0.000001   0.000000  -0.000000   0.000006
    16  H   -0.000004   0.000000   0.000000   0.000000   0.000011   0.000000
    17  H    0.000222   0.000028   0.000001  -0.000000   0.000001  -0.000000
    18  H    0.000995   0.000033  -0.000001  -0.000000   0.000063  -0.000021
    19  H   -0.000999  -0.000019  -0.000003   0.000000   0.000184   0.000002
    20  H    0.421389  -0.042590   0.004154  -0.000888   0.009737  -0.000106
    21  H   -0.055382   0.425904  -0.036484   0.006353  -0.001040   0.000038
    22  H    0.004096  -0.069658   0.430028  -0.032567   0.005614  -0.000083
    23  H    0.000209  -0.000234   0.001583   0.023794  -0.022266  -0.029146
    24  H    0.000079   0.000034   0.000058   0.001094   0.002611  -0.035212
    25  H   -0.000058   0.000252   0.000457   0.007498   0.002456  -0.001890
    26  H    0.000020  -0.000021   0.000074   0.000788  -0.002274   0.003811
    27  H   -0.000002   0.000003   0.000057   0.000497   0.000328   0.004501
              13         14         15         16         17         18
     1  C    0.000002   0.000000   0.418330   0.397797   0.396095  -0.043624
     2  C   -0.000016  -0.000001  -0.039129  -0.033732  -0.030553   0.423290
     3  O    0.000019  -0.000004  -0.003329   0.004347   0.003083  -0.030636
     4  C   -0.000287  -0.000240   0.004005   0.000533  -0.002770  -0.015224
     5  O    0.001686  -0.000564   0.006450   0.000213   0.000463   0.011150
     6  C   -0.001111   0.002217   0.003120  -0.000013  -0.001429  -0.002841
     7  C   -0.001292   0.000073  -0.000328  -0.000004   0.000222   0.000995
     8  C   -0.000038   0.000065   0.000006   0.000000   0.000028   0.000033
     9  C   -0.001483  -0.000504  -0.000001   0.000000   0.000001  -0.000001
    10  N   -0.017556  -0.008763   0.000000   0.000000  -0.000000  -0.000000
    11  C   -0.028616   0.002854  -0.000000   0.000011   0.000001   0.000063
    12  O    0.226431  -0.041706   0.000006   0.000000  -0.000000  -0.000021
    13  C    4.783882   0.324226   0.000001   0.000000  -0.000000  -0.000002
    14  C    0.324226   4.964668  -0.000001   0.000000   0.000000   0.000001
    15  H    0.000001  -0.000001   0.507911  -0.020304  -0.023600  -0.005423
    16  H    0.000000   0.000000  -0.020304   0.553987  -0.019493   0.000834
    17  H   -0.000000   0.000000  -0.023600  -0.019493   0.563451   0.006909
    18  H   -0.000002   0.000001  -0.005423   0.000834   0.006909   0.564774
    19  H    0.000000   0.000000   0.004919  -0.002273  -0.005534  -0.030742
    20  H    0.000027  -0.000002  -0.000038   0.000012   0.000347   0.000354
    21  H   -0.000001   0.000005   0.000000  -0.000000  -0.000001  -0.000001
    22  H    0.000054   0.000138   0.000000  -0.000000  -0.000000  -0.000000
    23  H    0.419396  -0.045291   0.000000   0.000000   0.000000  -0.000000
    24  H    0.397752  -0.028994  -0.000000   0.000000   0.000000   0.000001
    25  H   -0.045643   0.418115   0.000000  -0.000000  -0.000000  -0.000000
    26  H   -0.031268   0.399899   0.000000  -0.000000  -0.000000  -0.000000
    27  H   -0.033162   0.393487   0.000000   0.000000   0.000000   0.000000
              19         20         21         22         23         24
     1  C   -0.032543  -0.000289   0.000000  -0.000000  -0.000000   0.000000
     2  C    0.396042  -0.000829   0.000002   0.000000   0.000001  -0.000002
     3  O   -0.033158   0.017474  -0.000117  -0.000001   0.000001   0.000001
     4  C    0.003857  -0.014130  -0.000050   0.000134   0.000179  -0.000531
     5  O    0.001469   0.000384   0.000002  -0.000001  -0.000034   0.000123
     6  C    0.004214  -0.034226   0.009962  -0.000367  -0.006520   0.003606
     7  C   -0.000999   0.421389  -0.055382   0.004096   0.000209   0.000079
     8  C   -0.000019  -0.042590   0.425904  -0.069658  -0.000234   0.000034
     9  C   -0.000003   0.004154  -0.036484   0.430028   0.001583   0.000058
    10  N    0.000000  -0.000888   0.006353  -0.032567   0.023794   0.001094
    11  C    0.000184   0.009737  -0.001040   0.005614  -0.022266   0.002611
    12  O    0.000002  -0.000106   0.000038  -0.000083  -0.029146  -0.035212
    13  C    0.000000   0.000027  -0.000001   0.000054   0.419396   0.397752
    14  C    0.000000  -0.000002   0.000005   0.000138  -0.045291  -0.028994
    15  H    0.004919  -0.000038   0.000000   0.000000   0.000000  -0.000000
    16  H   -0.002273   0.000012  -0.000000  -0.000000   0.000000   0.000000
    17  H   -0.005534   0.000347  -0.000001  -0.000000   0.000000   0.000000
    18  H   -0.030742   0.000354  -0.000001  -0.000000  -0.000000   0.000001
    19  H    0.581775  -0.000238   0.000001  -0.000000   0.000000  -0.000000
    20  H   -0.000238   0.488877  -0.005346  -0.000197   0.000006  -0.000000
    21  H    0.000001  -0.005346   0.527435  -0.001832  -0.000010  -0.000000
    22  H   -0.000000  -0.000197  -0.001832   0.536071  -0.000109  -0.000014
    23  H    0.000000   0.000006  -0.000010  -0.000109   0.583199  -0.032772
    24  H   -0.000000  -0.000000  -0.000000  -0.000014  -0.032772   0.576678
    25  H    0.000000  -0.000001  -0.000006  -0.000223  -0.004987   0.005089
    26  H   -0.000000   0.000000  -0.000000  -0.000000   0.006989  -0.005226
    27  H    0.000000   0.000000  -0.000000  -0.000002   0.001294  -0.002555
              25         26         27
     1  C    0.000000  -0.000000  -0.000000
     2  C   -0.000000   0.000001   0.000000
     3  O    0.000001   0.000000   0.000000
     4  C   -0.000056   0.000128   0.000007
     5  O    0.000021   0.000226   0.000004
     6  C    0.003408  -0.002383  -0.000091
     7  C   -0.000058   0.000020  -0.000002
     8  C    0.000252  -0.000021   0.000003
     9  C    0.000457   0.000074   0.000057
    10  N    0.007498   0.000788   0.000497
    11  C    0.002456  -0.002274   0.000328
    12  O   -0.001890   0.003811   0.004501
    13  C   -0.045643  -0.031268  -0.033162
    14  C    0.418115   0.399899   0.393487
    15  H    0.000000   0.000000   0.000000
    16  H   -0.000000  -0.000000   0.000000
    17  H   -0.000000  -0.000000   0.000000
    18  H   -0.000000  -0.000000   0.000000
    19  H    0.000000  -0.000000   0.000000
    20  H   -0.000001   0.000000   0.000000
    21  H   -0.000006  -0.000000  -0.000000
    22  H   -0.000223  -0.000000  -0.000002
    23  H   -0.004987   0.006989   0.001294
    24  H    0.005089  -0.005226  -0.002555
    25  H    0.524686  -0.023677  -0.021075
    26  H   -0.023677   0.548527  -0.018827
    27  H   -0.021075  -0.018827   0.561628
 Mulliken charges:
               1
     1  C   -0.366289
     2  C   -0.025034
     3  O   -0.291374
     4  C    0.372226
     5  O   -0.347023
     6  C   -0.032327
     7  C   -0.144896
     8  C   -0.132374
     9  C   -0.026212
    10  N   -0.345769
    11  C    0.329140
    12  O   -0.240081
    13  C    0.007000
    14  C   -0.379678
    15  H    0.147405
    16  H    0.118084
    17  H    0.112780
    18  H    0.120112
    19  H    0.113045
    20  H    0.156118
    21  H    0.130568
    22  H    0.128919
    23  H    0.104721
    24  H    0.118183
    25  H    0.135635
    26  H    0.123213
    27  H    0.113907
 Sum of Mulliken charges =  -0.00000
 Mulliken charges with hydrogens summed into heavy atoms:
               1
     1  C    0.011980
     2  C    0.208123
     3  O   -0.291374
     4  C    0.372226
     5  O   -0.347023
     6  C   -0.032327
     7  C    0.011222
     8  C   -0.001806
     9  C    0.102707
    10  N   -0.345769
    11  C    0.329140
    12  O   -0.240081
    13  C    0.229903
    14  C   -0.006922
 Electronic spatial extent (au):  <R**2>=           3320.1694
 Charge=             -0.0000 electrons
 Dipole moment (field-independent basis, Debye):
    X=              0.5043    Y=              1.9227    Z=              0.2815  Tot=              2.0076
 Quadrupole moment (field-independent basis, Debye-Ang):
   XX=            -70.0038   YY=            -78.0914   ZZ=            -83.0901
   XY=              2.5573   XZ=              0.0246   YZ=              1.0662
 Traceless Quadrupole moment (field-independent basis, Debye-Ang):
   XX=              7.0580   YY=             -1.0296   ZZ=             -6.0283
   XY=              2.5573   XZ=              0.0246   YZ=              1.0662
 Octapole moment (field-independent basis, Debye-Ang**2):
  XXX=             40.4454  YYY=             14.6944  ZZZ=             -6.3869  XYY=            -16.0853
  XXY=            -15.3652  XXZ=             -5.7477  XZZ=              4.8142  YZZ=             -8.7983
  YYZ=              2.6438  XYZ=             -2.7388
 Hexadecapole moment (field-independent basis, Debye-Ang**3):
 XXXX=          -2767.6741 YYYY=          -1128.1742 ZZZZ=           -238.1535 XXXY=              1.5470
 XXXZ=            -14.0239 YYYX=              4.0700 YYYZ=             20.6940 ZZZX=             -1.2977
 ZZZY=              4.0914 XXYY=           -643.6774 XXZZ=           -538.5936 YYZZ=           -250.4475
 XXYZ=             13.5545 YYXZ=              1.1657 ZZXY=              5.1355
 N-N= 8.996419187787D+02 E-N=-3.362420088130D+03  KE= 6.660498387703D+02
 Breneman (CHELPG) radii used.
 Read replacement radii for each type of atom:
 Atom Element Radius
    1     6    1.50
    2     6    1.50
    3     8    1.70
    4     6    1.50
    5     8    1.70
    6     6    1.50
    7     6    1.50
    8     6    1.50
    9     6    1.50
   10     7    1.70
   11     6    1.50
   12     8    1.70
   13     6    1.50
   14     6    1.50
   15     1    1.45
   16     1    1.45
   17     1    1.45
   18     1    1.45
   19     1    1.45
   20     1    1.45
   21     1    1.45
   22     1    1.45
   23     1    1.45
   24     1    1.45
   25     1    1.45
   26     1    1.45
   27     1    1.45
 Generate Potential Derived Charges using the Breneman model, NDens= 1.
 Grid spacing= 0.300 Box extension= 2.800
 NStep X,Y,Z=   52     42     28   Total possible points=       61152
 Number of Points to Fit=   17322

 **********************************************************************

            Electrostatic Properties Using The SCF Density.

 **********************************************************************

       Atomic Center    1 is at   4.153229 -0.741835  0.944260
       Atomic Center    2 is at   3.652740 -0.345765 -0.431220
       Atomic Center    3 is at   2.433311  0.390707 -0.359710
       Atomic Center    4 is at   1.294240 -0.316392 -0.243120
       Atomic Center    5 is at   1.269348 -1.517942 -0.228970
       Atomic Center    6 is at   0.114821  0.591360 -0.127260
       Atomic Center    7 is at   0.287742  1.959649  0.076030
       Atomic Center    8 is at  -0.815617  2.799271  0.211170
       Atomic Center    9 is at  -2.074927  2.218712  0.132900
       Atomic Center   10 is at  -2.270489  0.918302 -0.068920
       Atomic Center   11 is at  -1.222900  0.115921 -0.202210
       Atomic Center   12 is at  -1.426551 -1.172369 -0.435110
       Atomic Center   13 is at  -2.756542 -1.678347 -0.496320
       Atomic Center   14 is at  -3.327512 -1.939876  0.883720
       Atomic Center   15 is at   3.452698 -1.439134  1.424120
       Atomic Center   16 is at   5.129509 -1.241326  0.857780
       Atomic Center   17 is at   4.273390  0.142575  1.587000
       Atomic Center   18 is at   3.499389 -1.234114 -1.061020
       Atomic Center   19 is at   4.359240  0.329145 -0.933140
       Atomic Center   20 is at   1.302753  2.353648  0.130930
       Atomic Center   21 is at  -0.700155  3.870661  0.376410
       Atomic Center   22 is at  -2.977627  2.830293  0.239170
       Atomic Center   23 is at  -3.392801 -0.979906 -1.058780
       Atomic Center   24 is at  -2.662153 -2.613217 -1.065060
       Atomic Center   25 is at  -3.454501 -0.998666  1.436100
       Atomic Center   26 is at  -2.664843 -2.604467  1.456710
       Atomic Center   27 is at  -4.311983 -2.422965  0.794890
   17322 points will be used for fitting atomic charges
 Fitting point charges to electrostatic potential
 Charges from ESP fit, RMS=   0.00270 RRMS=   0.22434:
 ESP charges:
               1
     1  C   -0.211417
     2  C    0.322675
     3  O   -0.436047
     4  C    0.718286
     5  O   -0.489209
     6  C   -0.405103
     7  C    0.107623
     8  C   -0.320279
     9  C    0.236309
    10  N   -0.511982
    11  C    0.734721
    12  O   -0.468904
    13  C    0.365751
    14  C   -0.274093
    15  H    0.067009
    16  H    0.048486
    17  H    0.058616
    18  H   -0.011688
    19  H    0.003907
    20  H    0.094685
    21  H    0.130612
    22  H    0.061531
    23  H   -0.048441
    24  H    0.018082
    25  H    0.062322
    26  H    0.083850
    27  H    0.062698
 Sum of ESP charges =  -0.00000
 ESP charges with hydrogens summed into heavy atoms:
               1
     1  C   -0.037306
     2  C    0.314893
     3  O   -0.436047
     4  C    0.718286
     5  O   -0.489209
     6  C   -0.405103
     7  C    0.202309
     8  C   -0.189667
     9  C    0.297840
    10  N   -0.511982
    11  C    0.734721
    12  O   -0.468904
    13  C    0.335392
    14  C   -0.065223
 Charge=  -0.00000 Dipole=     0.4936     1.9674     0.2620 Tot=     2.0453
 -----------------------------------------------------------------

              Electrostatic Properties (Atomic Units)

 -----------------------------------------------------------------
    Center     Electric         -------- Electric Field --------
               Potential          X             Y             Z
 -----------------------------------------------------------------
    1 Atom    -14.773883
    2 Atom    -14.711719
    3 Atom    -22.319329
    4 Atom    -14.643519
    5 Atom    -22.388513
    6 Atom    -14.745446
    7 Atom    -14.743428
    8 Atom    -14.762528
    9 Atom    -14.723447
   10 Atom    -18.396793
   11 Atom    -14.663610
   12 Atom    -22.325336
   13 Atom    -14.718102
   14 Atom    -14.780486
   15 Atom     -1.120474
   16 Atom     -1.111658
   17 Atom     -1.117657
   18 Atom     -1.115356
   19 Atom     -1.112065
   20 Atom     -1.089628
   21 Atom     -1.092284
   22 Atom     -1.097102
   23 Atom     -1.121810
   24 Atom     -1.120605
   25 Atom     -1.126214
   26 Atom     -1.124733
   27 Atom     -1.117507
 -----------------------------------------------------------------
 Unable to Open any file for archive entry.
 1\1\GINC-NOTCH281\SP\RwB97XD\def2TZVP\C10H13N1O3\U6053008\14-Jul-2024\
 0\\#N Guess=Read Geom=Check Integral(Ultrafine) Density Pop=(ChelpG,Re
 adRadii) NMR wB97XD def2TZVP\\12326832_8\\0,1\C,0,4.15323,-0.74183,0.9
 4426\C,0,3.65274,-0.34576,-0.43122\O,0,2.43331,0.39071,-0.35971\C,0,1.
 29424,-0.31639,-0.24312\O,0,1.26935,-1.51794,-0.22897\C,0,0.11482,0.59
 136,-0.12726\C,0,0.28774,1.95965,0.07603\C,0,-0.81562,2.79927,0.21117\
 C,0,-2.07493,2.21871,0.1329\N,0,-2.27049,0.9183,-0.06892\C,0,-1.2229,0
 .11592,-0.20221\O,0,-1.42655,-1.17237,-0.43511\C,0,-2.75654,-1.67835,-
 0.49632\C,0,-3.32751,-1.93988,0.88372\H,0,3.4527,-1.43913,1.42412\H,0,
 5.12951,-1.24132,0.85778\H,0,4.27339,0.14258,1.587\H,0,3.49939,-1.2341
 1,-1.06102\H,0,4.35924,0.32915,-0.93314\H,0,1.30275,2.35365,0.13093\H,
 0,-0.70016,3.87066,0.37641\H,0,-2.97763,2.83029,0.23917\H,0,-3.3928,-0
 .97991,-1.05878\H,0,-2.66215,-2.61322,-1.06506\H,0,-3.4545,-0.99867,1.
 4361\H,0,-2.66484,-2.60447,1.45671\H,0,-4.31198,-2.42297,0.79489\\Vers
 ion=ES64L-G16RevC.01\State=1-A\HF=-669.3632536\RMSD=2.731e-09\Dipole=0
 .1983993,0.7564635,0.1107563\Quadrupole=5.2474315,-0.7655117,-4.481919
 7,1.9013157,0.0183167,0.7926634\PG=C01 [X(C10H13N1O3)]\\@
 The archive entry for this job was punched.


 BLESSED ARE THOSE WHO NOUGHT EXPECT,
 FOR THEY SHALL NOT BE DISAPPOINTED..  WALCOT - ODE TO PITT
 Job cpu time:       0 days  1 hours  2 minutes 16.8 seconds.
 Elapsed time:       0 days  0 hours  4 minutes  4.6 seconds.
 File lengths (MBytes):  RWF=    165 Int=      0 D2E=      0 Chk=     25 Scr=      2
 Normal termination of Gaussian 16 at Sun Jul 14 10:13:52 2024.
