 Entering Gaussian System, Link 0=g16
 Input=12326832_13.com
 Output=12326832_13.log
 Initial command:
 /uufs/chpc.utah.edu/sys/installdir/gaussian16/C01/AVX/g16/l1.exe "/scratch/general/vast/u6053008/1287138-notchpeak.peaks/Gau-1732397.inp" -scrdir="/scratch/general/vast/u6053008/1287138-notchpeak.peaks/"
 Entering Link 1 = /uufs/chpc.utah.edu/sys/installdir/gaussian16/C01/AVX/g16/l1.exe PID=   1732398.
  
 Copyright (c) 1988-2019, Gaussian, Inc.  All Rights Reserved.
  
 This is part of the Gaussian(R) 16 program.  It is based on
 the Gaussian(R) 09 system (copyright 2009, Gaussian, Inc.),
 the Gaussian(R) 03 system (copyright 2003, Gaussian, Inc.),
 the Gaussian(R) 98 system (copyright 1998, Gaussian, Inc.),
 the Gaussian(R) 94 system (copyright 1995, Gaussian, Inc.),
 the Gaussian 92(TM) system (copyright 1992, Gaussian, Inc.),
 the Gaussian 90(TM) system (copyright 1990, Gaussian, Inc.),
 the Gaussian 88(TM) system (copyright 1988, Gaussian, Inc.),
 the Gaussian 86(TM) system (copyright 1986, Carnegie Mellon
 University), and the Gaussian 82(TM) system (copyright 1983,
 Carnegie Mellon University). Gaussian is a federally registered
 trademark of Gaussian, Inc.
  
 This software contains proprietary and confidential information,
 including trade secrets, belonging to Gaussian, Inc.
  
 This software is provided under written license and may be
 used, copied, transmitted, or stored only in accord with that
 written license.
  
 The following legend is applicable only to US Government
 contracts under FAR:
  
                    RESTRICTED RIGHTS LEGEND
  
 Use, reproduction and disclosure by the US Government is
 subject to restrictions as set forth in subparagraphs (a)
 and (c) of the Commercial Computer Software - Restricted
 Rights clause in FAR 52.227-19.
  
 Gaussian, Inc.
 340 Quinnipiac St., Bldg. 40, Wallingford CT 06492
  
  
 ---------------------------------------------------------------
 Warning -- This program may not be used in any manner that
 competes with the business of Gaussian, Inc. or will provide
 assistance to any competitor of Gaussian, Inc.  The licensee
 of this program is prohibited from giving any competitor of
 Gaussian, Inc. access to this program.  By using this program,
 the user acknowledges that Gaussian, Inc. is engaged in the
 business of creating and licensing software in the field of
 computational chemistry and represents and warrants to the
 licensee that it is not a competitor of Gaussian, Inc. and that
 it will not use this program in any manner prohibited above.
 ---------------------------------------------------------------
  

 Cite this work as:
 Gaussian 16, Revision C.01,
 M. J. Frisch, G. W. Trucks, H. B. Schlegel, G. E. Scuseria, 
 M. A. Robb, J. R. Cheeseman, G. Scalmani, V. Barone, 
 G. A. Petersson, H. Nakatsuji, X. Li, M. Caricato, A. V. Marenich, 
 J. Bloino, B. G. Janesko, R. Gomperts, B. Mennucci, H. P. Hratchian, 
 J. V. Ortiz, A. F. Izmaylov, J. L. Sonnenberg, D. Williams-Young, 
 F. Ding, F. Lipparini, F. Egidi, J. Goings, B. Peng, A. Petrone, 
 T. Henderson, D. Ranasinghe, V. G. Zakrzewski, J. Gao, N. Rega, 
 G. Zheng, W. Liang, M. Hada, M. Ehara, K. Toyota, R. Fukuda, 
 J. Hasegawa, M. Ishida, T. Nakajima, Y. Honda, O. Kitao, H. Nakai, 
 T. Vreven, K. Throssell, J. A. Montgomery, Jr., J. E. Peralta, 
 F. Ogliaro, M. J. Bearpark, J. J. Heyd, E. N. Brothers, K. N. Kudin, 
 V. N. Staroverov, T. A. Keith, R. Kobayashi, J. Normand, 
 K. Raghavachari, A. P. Rendell, J. C. Burant, S. S. Iyengar, 
 J. Tomasi, M. Cossi, J. M. Millam, M. Klene, C. Adamo, R. Cammi, 
 J. W. Ochterski, R. L. Martin, K. Morokuma, O. Farkas, 
 J. B. Foresman, and D. J. Fox, Gaussian, Inc., Wallingford CT, 2019.
 
 ******************************************
 Gaussian 16:  ES64L-G16RevC.01  3-Jul-2019
                12-Jul-2024 
 ******************************************
 %NProcShared=16
 Will use up to   16 processors via shared memory.
 %Mem=32GB
 %chk=12326832_13.chk
 ------------------------------------------------------
 #N OPT FREQ=NORAMAN Integral(Ultrafine) wB97XD def2SVP
 ------------------------------------------------------
 1/18=20,19=15,26=4,38=1/1,3;
 2/9=110,12=2,17=6,18=5,40=1/2;
 3/5=43,7=101,11=2,25=1,30=1,71=1,74=-58,75=-5/1,2,3;
 4//1;
 5/5=2,38=5/2;
 6/7=2,8=2,9=2,10=2,28=1/1;
 7//1,2,3,16;
 1/18=20,19=15,26=4/3(2);
 2/9=110/2;
 99//99;
 2/9=110/2;
 3/5=43,7=101,11=2,25=1,30=1,71=1,74=-58,75=-5/1,2,3;
 4/5=5,16=3,69=1/1;
 5/5=2,38=5/2;
 7//1,2,3,16;
 1/18=20,19=15,26=4/3(-5);
 2/9=110/2;
 6/7=2,8=2,9=2,10=2,19=2,28=1/1;
 99/9=1/99;
 -----------
 12326832_13
 -----------
 Symbolic Z-matrix:
 Charge =  0 Multiplicity = 1
 C                    -4.72248  -0.37301   0.04944 
 C                    -3.3914   -1.08651  -0.0043 
 O                    -2.36273  -0.10134   0.01236 
 C                    -1.09727  -0.55404  -0.02859 
 O                    -0.83107  -1.72507  -0.0732 
 C                    -0.12316   0.5772   -0.01361 
 C                    -0.56463   1.89959  -0.01414 
 C                     0.35026   2.95029  -0.00607 
 C                     1.70034   2.62455   0.00341 
 N                     2.15205   1.37284   0.00678 
 C                     1.28359   0.37063  -0.00085 
 O                     1.7476   -0.86891   0.00657 
 C                     3.1544   -1.07863   0.01924 
 C                     3.38716  -2.57201   0.02279 
 H                    -5.54171  -1.10611   0.03893 
 H                    -4.80854   0.2281    0.96617 
 H                    -4.84528   0.29441  -0.81581 
 H                    -3.29093  -1.69854  -0.91465 
 H                    -3.25533  -1.76505   0.85263 
 H                    -1.63784   2.0908   -0.02204 
 H                     0.02342   3.99039  -0.00764 
 H                     2.46272   3.41132   0.00887 
 H                     3.60525  -0.5942   -0.86155 
 H                     3.5899   -0.59223   0.90668 
 H                     2.93135  -3.03464   0.90955 
 H                     4.46612  -2.78348   0.03164 
 H                     2.9453   -3.0364   -0.87006 
 

 GradGradGradGradGradGradGradGradGradGradGradGradGradGradGradGradGradGrad
 Berny optimization.
 Initialization pass.
                           ----------------------------
                           !    Initial Parameters    !
                           ! (Angstroms and Degrees)  !
 --------------------------                            --------------------------
 ! Name  Definition              Value          Derivative Info.                !
 --------------------------------------------------------------------------------
 ! R1    R(1,2)                  1.5112         estimate D2E/DX2                !
 ! R2    R(1,15)                 1.0994         estimate D2E/DX2                !
 ! R3    R(1,16)                 1.0996         estimate D2E/DX2                !
 ! R4    R(1,17)                 1.0996         estimate D2E/DX2                !
 ! R5    R(2,3)                  1.4244         estimate D2E/DX2                !
 ! R6    R(2,18)                 1.1015         estimate D2E/DX2                !
 ! R7    R(2,19)                 1.1015         estimate D2E/DX2                !
 ! R8    R(3,4)                  1.3446         estimate D2E/DX2                !
 ! R9    R(4,5)                  1.2017         estimate D2E/DX2                !
 ! R10   R(4,6)                  1.4929         estimate D2E/DX2                !
 ! R11   R(6,7)                  1.3941         estimate D2E/DX2                !
 ! R12   R(6,11)                 1.4219         estimate D2E/DX2                !
 ! R13   R(7,8)                  1.3932         estimate D2E/DX2                !
 ! R14   R(7,20)                 1.0901         estimate D2E/DX2                !
 ! R15   R(8,9)                  1.3889         estimate D2E/DX2                !
 ! R16   R(8,21)                 1.0902         estimate D2E/DX2                !
 ! R17   R(9,10)                 1.3307         estimate D2E/DX2                !
 ! R18   R(9,22)                 1.0956         estimate D2E/DX2                !
 ! R19   R(10,11)                1.3262         estimate D2E/DX2                !
 ! R20   R(11,12)                1.3236         estimate D2E/DX2                !
 ! R21   R(12,13)                1.4224         estimate D2E/DX2                !
 ! R22   R(13,14)                1.5114         estimate D2E/DX2                !
 ! R23   R(13,23)                1.1017         estimate D2E/DX2                !
 ! R24   R(13,24)                1.1017         estimate D2E/DX2                !
 ! R25   R(14,25)                1.0992         estimate D2E/DX2                !
 ! R26   R(14,26)                1.0995         estimate D2E/DX2                !
 ! R27   R(14,27)                1.0991         estimate D2E/DX2                !
 ! A1    A(2,1,15)             109.9482         estimate D2E/DX2                !
 ! A2    A(2,1,16)             110.8966         estimate D2E/DX2                !
 ! A3    A(2,1,17)             110.9128         estimate D2E/DX2                !
 ! A4    A(15,1,16)            108.3109         estimate D2E/DX2                !
 ! A5    A(15,1,17)            108.2997         estimate D2E/DX2                !
 ! A6    A(16,1,17)            108.3885         estimate D2E/DX2                !
 ! A7    A(1,2,3)              108.0066         estimate D2E/DX2                !
 ! A8    A(1,2,18)             111.8421         estimate D2E/DX2                !
 ! A9    A(1,2,19)             111.8386         estimate D2E/DX2                !
 ! A10   A(3,2,18)             109.1517         estimate D2E/DX2                !
 ! A11   A(3,2,19)             109.1321         estimate D2E/DX2                !
 ! A12   A(18,2,19)            106.8225         estimate D2E/DX2                !
 ! A13   A(2,3,4)              116.5154         estimate D2E/DX2                !
 ! A14   A(3,4,5)              122.5256         estimate D2E/DX2                !
 ! A15   A(3,4,6)              111.0177         estimate D2E/DX2                !
 ! A16   A(5,4,6)              126.4566         estimate D2E/DX2                !
 ! A17   A(4,6,7)              120.8051         estimate D2E/DX2                !
 ! A18   A(4,6,11)             122.3808         estimate D2E/DX2                !
 ! A19   A(7,6,11)             116.814          estimate D2E/DX2                !
 ! A20   A(6,7,8)              120.4906         estimate D2E/DX2                !
 ! A21   A(6,7,20)             118.5627         estimate D2E/DX2                !
 ! A22   A(8,7,20)             120.9466         estimate D2E/DX2                !
 ! A23   A(7,8,9)              117.4841         estimate D2E/DX2                !
 ! A24   A(7,8,21)             121.5066         estimate D2E/DX2                !
 ! A25   A(9,8,21)             121.0093         estimate D2E/DX2                !
 ! A26   A(8,9,10)             123.4082         estimate D2E/DX2                !
 ! A27   A(8,9,22)             120.5343         estimate D2E/DX2                !
 ! A28   A(10,9,22)            116.0575         estimate D2E/DX2                !
 ! A29   A(9,10,11)            119.2448         estimate D2E/DX2                !
 ! A30   A(6,11,10)            122.5581         estimate D2E/DX2                !
 ! A31   A(6,11,12)            118.8782         estimate D2E/DX2                !
 ! A32   A(10,11,12)           118.5636         estimate D2E/DX2                !
 ! A33   A(11,12,13)           119.0034         estimate D2E/DX2                !
 ! A34   A(12,13,14)           107.3384         estimate D2E/DX2                !
 ! A35   A(12,13,23)           109.4383         estimate D2E/DX2                !
 ! A36   A(12,13,24)           109.4531         estimate D2E/DX2                !
 ! A37   A(14,13,23)           111.9207         estimate D2E/DX2                !
 ! A38   A(14,13,24)           111.9289         estimate D2E/DX2                !
 ! A39   A(23,13,24)           106.7438         estimate D2E/DX2                !
 ! A40   A(13,14,25)           110.7265         estimate D2E/DX2                !
 ! A41   A(13,14,26)           109.9484         estimate D2E/DX2                !
 ! A42   A(13,14,27)           110.7106         estimate D2E/DX2                !
 ! A43   A(25,14,26)           108.6323         estimate D2E/DX2                !
 ! A44   A(25,14,27)           108.1084         estimate D2E/DX2                !
 ! A45   A(26,14,27)           108.649          estimate D2E/DX2                !
 ! D1    D(15,1,2,3)          -179.9552         estimate D2E/DX2                !
 ! D2    D(15,1,2,18)           59.9168         estimate D2E/DX2                !
 ! D3    D(15,1,2,19)          -59.8537         estimate D2E/DX2                !
 ! D4    D(16,1,2,3)           -60.1979         estimate D2E/DX2                !
 ! D5    D(16,1,2,18)          179.6741         estimate D2E/DX2                !
 ! D6    D(16,1,2,19)           59.9037         estimate D2E/DX2                !
 ! D7    D(17,1,2,3)            60.291          estimate D2E/DX2                !
 ! D8    D(17,1,2,18)          -59.837          estimate D2E/DX2                !
 ! D9    D(17,1,2,19)         -179.6074         estimate D2E/DX2                !
 ! D10   D(1,2,3,4)            179.9241         estimate D2E/DX2                !
 ! D11   D(18,2,3,4)           -58.2717         estimate D2E/DX2                !
 ! D12   D(19,2,3,4)            58.1358         estimate D2E/DX2                !
 ! D13   D(2,3,4,5)             -0.2098         estimate D2E/DX2                !
 ! D14   D(2,3,4,6)            179.6666         estimate D2E/DX2                !
 ! D15   D(3,4,6,7)             -2.4589         estimate D2E/DX2                !
 ! D16   D(3,4,6,11)           177.665          estimate D2E/DX2                !
 ! D17   D(5,4,6,7)            177.4115         estimate D2E/DX2                !
 ! D18   D(5,4,6,11)            -2.4646         estimate D2E/DX2                !
 ! D19   D(4,6,7,8)           -179.7156         estimate D2E/DX2                !
 ! D20   D(4,6,7,20)             0.2215         estimate D2E/DX2                !
 ! D21   D(11,6,7,8)             0.1672         estimate D2E/DX2                !
 ! D22   D(11,6,7,20)         -179.8958         estimate D2E/DX2                !
 ! D23   D(4,6,11,10)          179.7081         estimate D2E/DX2                !
 ! D24   D(4,6,11,12)           -0.438          estimate D2E/DX2                !
 ! D25   D(7,6,11,10)           -0.1727         estimate D2E/DX2                !
 ! D26   D(7,6,11,12)          179.6813         estimate D2E/DX2                !
 ! D27   D(6,7,8,9)             -0.0475         estimate D2E/DX2                !
 ! D28   D(6,7,8,21)           179.9205         estimate D2E/DX2                !
 ! D29   D(20,7,8,9)          -179.9831         estimate D2E/DX2                !
 ! D30   D(20,7,8,21)           -0.0151         estimate D2E/DX2                !
 ! D31   D(7,8,9,10)            -0.0865         estimate D2E/DX2                !
 ! D32   D(7,8,9,22)           179.9302         estimate D2E/DX2                !
 ! D33   D(21,8,9,10)          179.9453         estimate D2E/DX2                !
 ! D34   D(21,8,9,22)           -0.038          estimate D2E/DX2                !
 ! D35   D(8,9,10,11)            0.0863         estimate D2E/DX2                !
 ! D36   D(22,9,10,11)        -179.9298         estimate D2E/DX2                !
 ! D37   D(9,10,11,6)            0.0487         estimate D2E/DX2                !
 ! D38   D(9,10,11,12)        -179.8057         estimate D2E/DX2                !
 ! D39   D(6,11,12,13)         179.9954         estimate D2E/DX2                !
 ! D40   D(10,11,12,13)         -0.1447         estimate D2E/DX2                !
 ! D41   D(11,12,13,14)       -179.8973         estimate D2E/DX2                !
 ! D42   D(11,12,13,23)        -58.2351         estimate D2E/DX2                !
 ! D43   D(11,12,13,24)         58.4219         estimate D2E/DX2                !
 ! D44   D(12,13,14,25)        -60.0016         estimate D2E/DX2                !
 ! D45   D(12,13,14,26)        179.9491         estimate D2E/DX2                !
 ! D46   D(12,13,14,27)         59.8891         estimate D2E/DX2                !
 ! D47   D(23,13,14,25)        179.9033         estimate D2E/DX2                !
 ! D48   D(23,13,14,26)         59.854          estimate D2E/DX2                !
 ! D49   D(23,13,14,27)        -60.206          estimate D2E/DX2                !
 ! D50   D(24,13,14,25)         60.1166         estimate D2E/DX2                !
 ! D51   D(24,13,14,26)        -59.9327         estimate D2E/DX2                !
 ! D52   D(24,13,14,27)       -179.9927         estimate D2E/DX2                !
 --------------------------------------------------------------------------------
 Trust Radius=3.00D-01 FncErr=1.00D-07 GrdErr=1.00D-06 EigMax=2.50D+02 EigMin=1.00D-04
 Number of steps in this run=    134 maximum allowed number of steps=    162.
 GradGradGradGradGradGradGradGradGradGradGradGradGradGradGradGradGradGrad

                          Input orientation:                          
 ---------------------------------------------------------------------
 Center     Atomic      Atomic             Coordinates (Angstroms)
 Number     Number       Type             X           Y           Z
 ---------------------------------------------------------------------
      1          6           0       -4.722480   -0.373010    0.049440
      2          6           0       -3.391400   -1.086510   -0.004300
      3          8           0       -2.362730   -0.101340    0.012360
      4          6           0       -1.097270   -0.554040   -0.028590
      5          8           0       -0.831070   -1.725070   -0.073200
      6          6           0       -0.123160    0.577200   -0.013610
      7          6           0       -0.564630    1.899590   -0.014140
      8          6           0        0.350260    2.950290   -0.006070
      9          6           0        1.700340    2.624550    0.003410
     10          7           0        2.152050    1.372840    0.006780
     11          6           0        1.283590    0.370630   -0.000850
     12          8           0        1.747600   -0.868910    0.006570
     13          6           0        3.154400   -1.078630    0.019240
     14          6           0        3.387160   -2.572010    0.022790
     15          1           0       -5.541710   -1.106110    0.038930
     16          1           0       -4.808540    0.228100    0.966170
     17          1           0       -4.845280    0.294410   -0.815810
     18          1           0       -3.290930   -1.698540   -0.914650
     19          1           0       -3.255330   -1.765050    0.852630
     20          1           0       -1.637840    2.090800   -0.022040
     21          1           0        0.023420    3.990390   -0.007640
     22          1           0        2.462720    3.411320    0.008870
     23          1           0        3.605250   -0.594200   -0.861550
     24          1           0        3.589900   -0.592230    0.906680
     25          1           0        2.931350   -3.034640    0.909550
     26          1           0        4.466120   -2.783480    0.031640
     27          1           0        2.945300   -3.036400   -0.870060
 ---------------------------------------------------------------------
                    Distance matrix (angstroms):
                    1          2          3          4          5
     1  C    0.000000
     2  C    1.511206   0.000000
     3  O    2.375626   1.424430   0.000000
     4  C    3.630566   2.355238   1.344620   0.000000
     5  O    4.121429   2.639658   2.233786   1.201734   0.000000
     6  C    4.696873   3.667344   2.340249   1.492923   2.409385
     7  C    4.738826   4.111875   2.690276   2.510819   3.634919
     8  C    6.064660   5.504160   4.083271   3.791593   4.822763
     9  C    7.088025   6.300622   4.892759   4.234511   5.033200
    10  N    7.092882   6.064517   4.749366   3.777856   4.301447
    11  C    6.052141   4.896815   3.676762   2.554267   2.978083
    12  O    6.489198   5.143616   4.181389   2.862458   2.718255
    13  C    7.908480   6.545847   5.603023   4.284178   4.038614
    14  C    8.402534   6.939475   6.258239   4.917820   4.303485
    15  H    1.099402   2.150834   3.334094   4.479106   4.752453
    16  H    1.099606   2.162937   2.645802   3.921073   4.551421
    17  H    1.099630   2.163159   2.646798   3.922647   4.554520
    18  H    2.176197   1.101550   2.066870   2.628141   2.599933
    19  H    2.176102   1.101481   2.066572   2.626845   2.595341
    20  H    3.948477   3.629130   2.309140   2.699525   3.900559
    21  H    6.447176   6.118490   4.736704   4.680623   5.779354
    22  H    8.120954   7.382504   5.968564   5.329072   6.102318
    23  H    8.380329   7.066142   6.051728   4.775890   4.645568
    24  H    8.359341   7.057815   6.039419   4.779723   4.667812
    25  H    8.148937   6.678885   6.118536   4.823200   4.103240
    26  H    9.499529   8.038757   7.336719   5.993775   5.402911
    27  H    8.169087   6.686208   6.129309   4.817941   4.076217
                    6          7          8          9         10
     6  C    0.000000
     7  C    1.394135   0.000000
     8  C    2.419864   1.393219   0.000000
     9  C    2.741730   2.378227   1.388853   0.000000
    10  N    2.410402   2.767355   2.394778   1.330726   0.000000
    11  C    1.421893   2.398711   2.743315   2.292129   1.326162
    12  O    2.364611   3.607136   4.066818   3.493781   2.277943
    13  C    3.672227   4.764671   4.908772   3.978452   2.648503
    14  C    4.716057   5.967681   6.302332   5.463513   4.133714
    15  H    5.674238   5.814497   7.153441   8.146556   8.083327
    16  H    4.799440   4.665368   5.913441   7.002528   7.119036
    17  H    4.798115   4.641470   5.890926   6.996129   7.127573
    18  H    4.003203   4.603278   5.974563   6.666687   6.317313
    19  H    4.005870   4.628255   5.997673   6.674461   6.308849
    20  H    2.141334   1.090139   2.165992   3.380678   3.857404
    21  H    3.416341   2.171932   1.090245   2.162800   3.373847
    22  H    3.836602   3.383889   2.162235   1.095564   2.062019
    23  H    3.999028   4.932037   4.887762   3.838905   2.595194
    24  H    4.000164   4.931247   4.886494   3.838490   2.595907
    25  H    4.819507   6.117328   6.581776   5.861988   4.565981
    26  H    5.688384   6.873259   7.058176   6.074300   4.757156
    27  H    4.817370   6.116879   6.581882   5.861675   4.565029
                   11         12         13         14         15
    11  C    0.000000
    12  O    1.323563   0.000000
    13  C    2.366577   1.422403   0.000000
    14  C    3.617277   2.364100   1.511414   0.000000
    15  H    6.983342   7.293240   8.696176   9.048417   0.000000
    16  H    6.170048   6.716192   8.124816   8.712065   1.782534
    17  H    6.183285   6.745049   8.159499   8.757436   1.782429
    18  H    5.103208   5.188807   6.542073   6.799899   2.515213
    19  H    5.088355   5.152494   6.500027   6.742588   2.514725
    20  H    3.390308   4.496877   5.745655   6.855248   5.046202
    21  H    3.832850   5.156141   5.958080   7.374332   7.546334
    22  H    3.261325   4.339559   4.542926   6.054339   9.191245
    23  H    2.657406   2.068807   1.101694   2.177465   9.205422
    24  H    2.658905   2.069014   1.101724   2.177589   9.187130
    25  H    3.890990   2.628122   2.160643   1.099151   8.733267
    26  H    4.480844   3.325140   2.151111   1.099524  10.147427
    27  H    3.889044   2.626971   2.160426   1.099127   8.751093
                   16         17         18         19         20
    16  H    0.000000
    17  H    1.783592   0.000000
    18  H    3.090723   2.529352   0.000000
    19  H    2.529427   3.090794   1.768889   0.000000
    20  H    3.807827   3.760952   4.229487   4.271873   0.000000
    21  H    6.200885   6.165845   6.646165   6.679473   2.523576
    22  H    7.995032   7.987621   7.750358   7.759048   4.308053
    23  H    8.649196   8.497245   6.984245   7.167765   5.950126
    24  H    8.438618   8.654788   7.203262   6.945186   5.948986
    25  H    8.399677   8.633390   6.620396   6.315862   6.929321
    26  H    9.796034   9.843462   7.889511   7.831476   7.811518
    27  H    8.611082   8.472920   6.378277   6.559863   6.929105
                   21         22         23         24         25
    21  H    0.000000
    22  H    2.507146   0.000000
    23  H    5.880232   4.255255   0.000000
    24  H    5.878449   4.254998   1.768298   0.000000
    25  H    7.658220   6.525430   3.089771   2.529637   0.000000
    26  H    8.100891   6.510736   2.516313   2.516949   1.785868
    27  H    7.658781   6.525220   2.529812   3.089706   1.779666
                   26         27
    26  H    0.000000
    27  H    1.786036   0.000000
 Stoichiometry    C10H13NO3
 Framework group  C1[X(C10H13NO3)]
 Deg. of freedom    75
 Full point group                 C1      NOp   1
 Largest Abelian subgroup         C1      NOp   1
 Largest concise Abelian subgroup C1      NOp   1
                         Standard orientation:                         
 ---------------------------------------------------------------------
 Center     Atomic      Atomic             Coordinates (Angstroms)
 Number     Number       Type             X           Y           Z
 ---------------------------------------------------------------------
      1          6           0       -4.722480   -0.373010    0.049441
      2          6           0       -3.391401   -1.086510   -0.004299
      3          8           0       -2.362730   -0.101340    0.012361
      4          6           0       -1.097270   -0.554040   -0.028589
      5          8           0       -0.831071   -1.725070   -0.073199
      6          6           0       -0.123160    0.577200   -0.013609
      7          6           0       -0.564630    1.899590   -0.014139
      8          6           0        0.350260    2.950289   -0.006069
      9          6           0        1.700340    2.624549    0.003411
     10          7           0        2.152050    1.372839    0.006781
     11          6           0        1.283590    0.370629   -0.000849
     12          8           0        1.747600   -0.868911    0.006571
     13          6           0        3.154399   -1.078631    0.019241
     14          6           0        3.387159   -2.572011    0.022791
     15          1           0       -5.541711   -1.106110    0.038931
     16          1           0       -4.808540    0.228100    0.966171
     17          1           0       -4.845280    0.294410   -0.815809
     18          1           0       -3.290931   -1.698540   -0.914649
     19          1           0       -3.255331   -1.765050    0.852631
     20          1           0       -1.637840    2.090800   -0.022039
     21          1           0        0.023420    3.990390   -0.007639
     22          1           0        2.462720    3.411319    0.008871
     23          1           0        3.605250   -0.594201   -0.861549
     24          1           0        3.589900   -0.592231    0.906681
     25          1           0        2.931349   -3.034641    0.909551
     26          1           0        4.466119   -2.783481    0.031641
     27          1           0        2.945299   -3.036401   -0.870059
 ---------------------------------------------------------------------
 Rotational constants (GHZ):           0.9950095           0.4472962           0.3110502
 Standard basis: def2SVP (5D, 7F)
 There are   275 symmetry adapted cartesian basis functions of A   symmetry.
 There are   261 symmetry adapted basis functions of A   symmetry.
   261 basis functions,   441 primitive gaussians,   275 cartesian basis functions
    52 alpha electrons       52 beta electrons
       nuclear repulsion energy       889.6839264613 Hartrees.
 NAtoms=   27 NActive=   27 NUniq=   27 SFac= 1.00D+00 NAtFMM=   60 NAOKFM=F Big=F
 Integral buffers will be    131072 words long.
 Raffenetti 2 integral format.
 Two-electron integral symmetry is turned on.
 Nuclear repulsion after empirical dispersion term =      889.6701635110 Hartrees.
 One-electron integrals computed using PRISM.
   1 Symmetry operations used in ECPInt.
 ECPInt:  NShTT=    7626 NPrTT=   27482 LenC2=    7057 LenP2D=   18288.
 LDataN:  DoStor=T MaxTD1= 4 Len=   56
 NBasis=   261 RedAO= T EigKep=  6.19D-04  NBF=   261
 NBsUse=   261 1.00D-06 EigRej= -1.00D+00 NBFU=   261
 ExpMin= 1.22D-01 ExpMax= 2.27D+03 ExpMxC= 3.41D+02 IAcc=3 IRadAn=         5 AccDes= 0.00D+00
 Harris functional with IExCor= 4639 and IRadAn=       5 diagonalized for initial guess.
 HarFok:  IExCor= 4639 AccDes= 0.00D+00 IRadAn=         5 IDoV= 1 UseB2=F ITyADJ=14
 ICtDFT=  3500011 ScaDFX=  1.000000  1.000000  1.000000  1.000000
 FoFCou: FMM=F IPFlag=           0 FMFlag=      100000 FMFlg1=           0
         NFxFlg=           0 DoJE=T BraDBF=F KetDBF=T FulRan=T
         wScrn=  0.000000 ICntrl=       500 IOpCl=  0 I1Cent=   200000004 NGrid=           0
         NMat0=    1 NMatS0=      1 NMatT0=    0 NMatD0=    1 NMtDS0=    0 NMtDT0=    0
 Petite list used in FoFCou.
 Requested convergence on RMS density matrix=1.00D-08 within 128 cycles.
 Requested convergence on MAX density matrix=1.00D-06.
 Requested convergence on             energy=1.00D-06.
 No special actions if energy rises.
 Integral accuracy reduced to 1.0D-05 until final iterations.
 Initial convergence to 1.0D-05 achieved.  Increase integral accuracy.
 SCF Done:  E(RwB97XD) =  -668.629633811     A.U. after   16 cycles
            NFock= 16  Conv=0.57D-08     -V/T= 2.0098

 **********************************************************************

            Population analysis using the SCF Density.

 **********************************************************************

 Orbital symmetries:
       Occupied  (A) (A) (A) (A) (A) (A) (A) (A) (A) (A) (A) (A)
                 (A) (A) (A) (A) (A) (A) (A) (A) (A) (A) (A) (A)
                 (A) (A) (A) (A) (A) (A) (A) (A) (A) (A) (A) (A)
                 (A) (A) (A) (A) (A) (A) (A) (A) (A) (A) (A) (A)
                 (A) (A) (A) (A)
       Virtual   (A) (A) (A) (A) (A) (A) (A) (A) (A) (A) (A) (A)
                 (A) (A) (A) (A) (A) (A) (A) (A) (A) (A) (A) (A)
                 (A) (A) (A) (A) (A) (A) (A) (A) (A) (A) (A) (A)
                 (A) (A) (A) (A) (A) (A) (A) (A) (A) (A) (A) (A)
                 (A) (A) (A) (A) (A) (A) (A) (A) (A) (A) (A) (A)
                 (A) (A) (A) (A) (A) (A) (A) (A) (A) (A) (A) (A)
                 (A) (A) (A) (A) (A) (A) (A) (A) (A) (A) (A) (A)
                 (A) (A) (A) (A) (A) (A) (A) (A) (A) (A) (A) (A)
                 (A) (A) (A) (A) (A) (A) (A) (A) (A) (A) (A) (A)
                 (A) (A) (A) (A) (A) (A) (A) (A) (A) (A) (A) (A)
                 (A) (A) (A) (A) (A) (A) (A) (A) (A) (A) (A) (A)
                 (A) (A) (A) (A) (A) (A) (A) (A) (A) (A) (A) (A)
                 (A) (A) (A) (A) (A) (A) (A) (A) (A) (A) (A) (A)
                 (A) (A) (A) (A) (A) (A) (A) (A) (A) (A) (A) (A)
                 (A) (A) (A) (A) (A) (A) (A) (A) (A) (A) (A) (A)
                 (A) (A) (A) (A) (A) (A) (A) (A) (A) (A) (A) (A)
                 (A) (A) (A) (A) (A) (A) (A) (A) (A) (A) (A) (A)
                 (A) (A) (A) (A) (A)
 The electronic state is 1-A.
 Alpha  occ. eigenvalues --  -19.29672 -19.28954 -19.23575 -14.44210 -10.42565
 Alpha  occ. eigenvalues --  -10.40369 -10.35452 -10.34816 -10.34696 -10.32885
 Alpha  occ. eigenvalues --  -10.32009 -10.30845 -10.29985 -10.28841  -1.19990
 Alpha  occ. eigenvalues --   -1.18088  -1.10325  -1.04151  -0.91794  -0.88292
 Alpha  occ. eigenvalues --   -0.86893  -0.83566  -0.76587  -0.74885  -0.71910
 Alpha  occ. eigenvalues --   -0.68817  -0.66325  -0.63937  -0.61457  -0.59611
 Alpha  occ. eigenvalues --   -0.58807  -0.57703  -0.56038  -0.54908  -0.52311
 Alpha  occ. eigenvalues --   -0.50957  -0.50135  -0.49816  -0.48183  -0.48130
 Alpha  occ. eigenvalues --   -0.47370  -0.46710  -0.45574  -0.44553  -0.43379
 Alpha  occ. eigenvalues --   -0.42671  -0.40827  -0.38284  -0.37370  -0.36069
 Alpha  occ. eigenvalues --   -0.34549  -0.31571
 Alpha virt. eigenvalues --    0.01360   0.05883   0.12900   0.14149   0.15501
 Alpha virt. eigenvalues --    0.15694   0.18718   0.19462   0.19579   0.20356
 Alpha virt. eigenvalues --    0.20437   0.20907   0.21353   0.22132   0.23367
 Alpha virt. eigenvalues --    0.23849   0.24741   0.24762   0.26152   0.29252
 Alpha virt. eigenvalues --    0.30008   0.31360   0.31602   0.34480   0.35323
 Alpha virt. eigenvalues --    0.37234   0.37678   0.40420   0.44789   0.46033
 Alpha virt. eigenvalues --    0.48229   0.50066   0.50396   0.50883   0.51908
 Alpha virt. eigenvalues --    0.52260   0.52701   0.52760   0.53877   0.55468
 Alpha virt. eigenvalues --    0.57050   0.57177   0.58746   0.59602   0.60593
 Alpha virt. eigenvalues --    0.63309   0.65911   0.66415   0.67534   0.69156
 Alpha virt. eigenvalues --    0.70142   0.70762   0.71859   0.71961   0.72345
 Alpha virt. eigenvalues --    0.73341   0.74132   0.74408   0.74625   0.75174
 Alpha virt. eigenvalues --    0.76101   0.76480   0.76646   0.77423   0.77542
 Alpha virt. eigenvalues --    0.78047   0.78501   0.79252   0.80097   0.80857
 Alpha virt. eigenvalues --    0.81506   0.81864   0.84382   0.85377   0.87090
 Alpha virt. eigenvalues --    0.90229   0.96552   0.96949   0.97049   1.00240
 Alpha virt. eigenvalues --    1.03826   1.06178   1.10098   1.10815   1.14750
 Alpha virt. eigenvalues --    1.14896   1.17683   1.18478   1.19415   1.23316
 Alpha virt. eigenvalues --    1.24789   1.27540   1.31022   1.32168   1.32715
 Alpha virt. eigenvalues --    1.33565   1.34045   1.36572   1.37543   1.41140
 Alpha virt. eigenvalues --    1.41513   1.43369   1.44382   1.44852   1.46857
 Alpha virt. eigenvalues --    1.52949   1.54919   1.57596   1.61104   1.62143
 Alpha virt. eigenvalues --    1.63344   1.64436   1.67190   1.68182   1.70544
 Alpha virt. eigenvalues --    1.77421   1.78367   1.78810   1.79589   1.80314
 Alpha virt. eigenvalues --    1.83157   1.83405   1.83981   1.84268   1.84730
 Alpha virt. eigenvalues --    1.85432   1.85888   1.86482   1.88213   1.89006
 Alpha virt. eigenvalues --    1.89522   1.90047   1.90539   1.90845   1.92404
 Alpha virt. eigenvalues --    1.94541   1.96797   1.97222   1.99373   2.00203
 Alpha virt. eigenvalues --    2.02225   2.04152   2.04972   2.05703   2.07554
 Alpha virt. eigenvalues --    2.10581   2.12552   2.12881   2.15151   2.18363
 Alpha virt. eigenvalues --    2.21100   2.24384   2.24824   2.25748   2.26190
 Alpha virt. eigenvalues --    2.28840   2.28898   2.33304   2.36894   2.41466
 Alpha virt. eigenvalues --    2.45185   2.47143   2.48206   2.48470   2.50512
 Alpha virt. eigenvalues --    2.50653   2.51543   2.55469   2.56443   2.56493
 Alpha virt. eigenvalues --    2.62803   2.63156   2.64072   2.66030   2.72205
 Alpha virt. eigenvalues --    2.72880   2.77118   2.77178   2.79471   2.80984
 Alpha virt. eigenvalues --    2.82374   2.85968   2.89058   2.90929   2.93152
 Alpha virt. eigenvalues --    2.93946   2.94899   2.98027   3.01863   3.02498
 Alpha virt. eigenvalues --    3.03902   3.04538   3.05770   3.06197   3.07340
 Alpha virt. eigenvalues --    3.11602   3.13560   3.19032   3.19583   3.22464
 Alpha virt. eigenvalues --    3.28947   3.31867   3.34786   3.52202   3.55984
 Alpha virt. eigenvalues --    3.62805   3.69850   3.79145   3.84714
          Condensed to atoms (all electrons):
               1          2          3          4          5          6
     1  C    4.598290   0.410207  -0.045338   0.006070   0.001530   0.001175
     2  C    0.410207   4.479059   0.257031  -0.033888  -0.002415   0.009680
     3  O   -0.045338   0.257031   7.992517   0.415730  -0.083587  -0.167911
     4  C    0.006070  -0.033888   0.415730   4.554009   0.749818   0.109047
     5  O    0.001530  -0.002415  -0.083587   0.749818   7.642040  -0.111379
     6  C    0.001175   0.009680  -0.167911   0.109047  -0.111379   5.858580
     7  C   -0.000545  -0.000418   0.015060  -0.047949   0.003464   0.431010
     8  C   -0.000002  -0.000013   0.000885   0.012949  -0.000031   0.000287
     9  C   -0.000000   0.000000   0.000001   0.000111   0.000009  -0.070639
    10  N   -0.000000   0.000002  -0.000008   0.006620   0.000050  -0.085880
    11  C    0.000018   0.000024   0.000540  -0.046402   0.005825   0.351659
    12  O    0.000000   0.000013  -0.000013   0.010966  -0.006827  -0.113365
    13  C    0.000000  -0.000000   0.000000  -0.000418  -0.000123   0.006356
    14  C   -0.000000  -0.000000   0.000000  -0.000302   0.000125   0.000671
    15  H    0.382152  -0.013824   0.003219   0.000013   0.000025   0.000008
    16  H    0.389062  -0.018151   0.001764  -0.000128  -0.000038  -0.000162
    17  H    0.388983  -0.018041   0.001674  -0.000142  -0.000038  -0.000177
    18  H   -0.027151   0.398162  -0.029257  -0.003684   0.008591   0.000831
    19  H   -0.026979   0.398074  -0.028976  -0.003800   0.008756   0.000533
    20  H   -0.000345  -0.000687   0.016411  -0.022714   0.000277  -0.044196
    21  H   -0.000000   0.000001  -0.000025  -0.000156   0.000000   0.011122
    22  H    0.000000   0.000000  -0.000000   0.000086  -0.000000   0.001468
    23  H    0.000000  -0.000000  -0.000000   0.000014  -0.000027   0.000239
    24  H    0.000000   0.000000  -0.000000  -0.000000  -0.000028   0.000234
    25  H   -0.000000   0.000000   0.000000   0.000087   0.000122  -0.000227
    26  H    0.000000   0.000000   0.000000   0.000006   0.000000  -0.000001
    27  H   -0.000000   0.000000   0.000000   0.000087   0.000145  -0.000226
               7          8          9         10         11         12
     1  C   -0.000545  -0.000002  -0.000000  -0.000000   0.000018   0.000000
     2  C   -0.000418  -0.000013   0.000000   0.000002   0.000024   0.000013
     3  O    0.015060   0.000885   0.000001  -0.000008   0.000540  -0.000013
     4  C   -0.047949   0.012949   0.000111   0.006620  -0.046402   0.010966
     5  O    0.003464  -0.000031   0.000009   0.000050   0.005825  -0.006827
     6  C    0.431010   0.000287  -0.070639  -0.085880   0.351659  -0.113365
     7  C    4.822645   0.408850   0.000964  -0.041041  -0.053120  -0.000116
     8  C    0.408850   5.007115   0.440877  -0.041749  -0.063624   0.000498
     9  C    0.000964   0.440877   4.705178   0.511723  -0.034462   0.001593
    10  N   -0.041041  -0.041749   0.511723   6.408478   0.530700  -0.083261
    11  C   -0.053120  -0.063624  -0.034462   0.530700   4.696841   0.459835
    12  O   -0.000116   0.000498   0.001593  -0.083261   0.459835   7.848566
    13  C   -0.000220   0.000035   0.000698  -0.013735  -0.042477   0.272207
    14  C    0.000029   0.000004   0.000037   0.001872   0.005286  -0.049489
    15  H    0.000006   0.000000   0.000000   0.000000  -0.000000   0.000000
    16  H    0.000018   0.000001   0.000000  -0.000000  -0.000001  -0.000000
    17  H    0.000012   0.000002   0.000000  -0.000000  -0.000000  -0.000000
    18  H    0.000025   0.000005  -0.000000  -0.000000  -0.000017  -0.000001
    19  H    0.000065   0.000006  -0.000000  -0.000000   0.000007  -0.000002
    20  H    0.439817  -0.056959   0.009059  -0.000133   0.011073  -0.000058
    21  H   -0.054226   0.425274  -0.045625   0.005254   0.000998   0.000014
    22  H    0.005875  -0.066077   0.421388  -0.038625   0.003853  -0.000080
    23  H    0.000018   0.000007   0.000282   0.014690  -0.006977  -0.028804
    24  H    0.000025   0.000004   0.000274   0.014686  -0.007095  -0.028746
    25  H   -0.000002  -0.000000  -0.000000  -0.000035  -0.000054   0.002151
    26  H   -0.000000  -0.000000  -0.000002   0.000023  -0.000026   0.003400
    27  H   -0.000002  -0.000000  -0.000000  -0.000034  -0.000060   0.002138
              13         14         15         16         17         18
     1  C    0.000000  -0.000000   0.382152   0.389062   0.388983  -0.027151
     2  C   -0.000000  -0.000000  -0.013824  -0.018151  -0.018041   0.398162
     3  O    0.000000   0.000000   0.003219   0.001764   0.001674  -0.029257
     4  C   -0.000418  -0.000302   0.000013  -0.000128  -0.000142  -0.003684
     5  O   -0.000123   0.000125   0.000025  -0.000038  -0.000038   0.008591
     6  C    0.006356   0.000671   0.000008  -0.000162  -0.000177   0.000831
     7  C   -0.000220   0.000029   0.000006   0.000018   0.000012   0.000025
     8  C    0.000035   0.000004   0.000000   0.000001   0.000002   0.000005
     9  C    0.000698   0.000037   0.000000   0.000000   0.000000  -0.000000
    10  N   -0.013735   0.001872   0.000000  -0.000000  -0.000000  -0.000000
    11  C   -0.042477   0.005286  -0.000000  -0.000001  -0.000000  -0.000017
    12  O    0.272207  -0.049489   0.000000  -0.000000  -0.000000  -0.000001
    13  C    4.491534   0.407859  -0.000000  -0.000000   0.000000   0.000000
    14  C    0.407859   4.595410  -0.000000   0.000000   0.000000  -0.000000
    15  H   -0.000000  -0.000000   0.623048  -0.017609  -0.017699  -0.002318
    16  H   -0.000000   0.000000  -0.017609   0.623459  -0.025087   0.007482
    17  H    0.000000   0.000000  -0.017699  -0.025087   0.624096  -0.010431
    18  H    0.000000  -0.000000  -0.002318   0.007482  -0.010431   0.650524
    19  H    0.000000   0.000000  -0.002341  -0.010415   0.007461  -0.037731
    20  H    0.000007  -0.000000   0.000010   0.000204   0.000275   0.000116
    21  H    0.000001  -0.000000  -0.000000  -0.000000  -0.000000  -0.000000
    22  H   -0.000046  -0.000008   0.000000  -0.000000  -0.000000   0.000000
    23  H    0.394417  -0.027639  -0.000000   0.000000  -0.000000   0.000000
    24  H    0.394420  -0.027794   0.000000  -0.000000   0.000000  -0.000000
    25  H   -0.016864   0.389386  -0.000000   0.000000  -0.000000  -0.000000
    26  H   -0.015028   0.379298  -0.000000  -0.000000  -0.000000  -0.000000
    27  H   -0.016809   0.389565  -0.000000  -0.000000   0.000000  -0.000000
              19         20         21         22         23         24
     1  C   -0.026979  -0.000345  -0.000000   0.000000   0.000000   0.000000
     2  C    0.398074  -0.000687   0.000001   0.000000  -0.000000   0.000000
     3  O   -0.028976   0.016411  -0.000025  -0.000000  -0.000000  -0.000000
     4  C   -0.003800  -0.022714  -0.000156   0.000086   0.000014  -0.000000
     5  O    0.008756   0.000277   0.000000  -0.000000  -0.000027  -0.000028
     6  C    0.000533  -0.044196   0.011122   0.001468   0.000239   0.000234
     7  C    0.000065   0.439817  -0.054226   0.005875   0.000018   0.000025
     8  C    0.000006  -0.056959   0.425274  -0.066077   0.000007   0.000004
     9  C   -0.000000   0.009059  -0.045625   0.421388   0.000282   0.000274
    10  N   -0.000000  -0.000133   0.005254  -0.038625   0.014690   0.014686
    11  C    0.000007   0.011073   0.000998   0.003853  -0.006977  -0.007095
    12  O   -0.000002  -0.000058   0.000014  -0.000080  -0.028804  -0.028746
    13  C    0.000000   0.000007   0.000001  -0.000046   0.394417   0.394420
    14  C    0.000000  -0.000000  -0.000000  -0.000008  -0.027639  -0.027794
    15  H   -0.002341   0.000010  -0.000000   0.000000  -0.000000   0.000000
    16  H   -0.010415   0.000204  -0.000000  -0.000000   0.000000  -0.000000
    17  H    0.007461   0.000275  -0.000000  -0.000000  -0.000000   0.000000
    18  H   -0.037731   0.000116  -0.000000   0.000000   0.000000  -0.000000
    19  H    0.650094   0.000138  -0.000000   0.000000  -0.000000   0.000000
    20  H    0.000138   0.615667  -0.009304  -0.000247   0.000001   0.000001
    21  H   -0.000000  -0.009304   0.642997  -0.006053  -0.000002  -0.000002
    22  H    0.000000  -0.000247  -0.006053   0.639212  -0.000061  -0.000060
    23  H   -0.000000   0.000001  -0.000002  -0.000061   0.662353  -0.039027
    24  H    0.000000   0.000001  -0.000002  -0.000060  -0.039027   0.662812
    25  H   -0.000000  -0.000000   0.000000   0.000000   0.007512  -0.010468
    26  H   -0.000000   0.000000  -0.000000   0.000000  -0.002341  -0.002304
    27  H   -0.000000  -0.000000   0.000000   0.000000  -0.010439   0.007497
              25         26         27
     1  C   -0.000000   0.000000  -0.000000
     2  C    0.000000   0.000000   0.000000
     3  O    0.000000   0.000000   0.000000
     4  C    0.000087   0.000006   0.000087
     5  O    0.000122   0.000000   0.000145
     6  C   -0.000227  -0.000001  -0.000226
     7  C   -0.000002  -0.000000  -0.000002
     8  C   -0.000000  -0.000000  -0.000000
     9  C   -0.000000  -0.000002  -0.000000
    10  N   -0.000035   0.000023  -0.000034
    11  C   -0.000054  -0.000026  -0.000060
    12  O    0.002151   0.003400   0.002138
    13  C   -0.016864  -0.015028  -0.016809
    14  C    0.389386   0.379298   0.389565
    15  H   -0.000000  -0.000000  -0.000000
    16  H    0.000000  -0.000000  -0.000000
    17  H   -0.000000  -0.000000   0.000000
    18  H   -0.000000  -0.000000  -0.000000
    19  H   -0.000000  -0.000000  -0.000000
    20  H   -0.000000   0.000000  -0.000000
    21  H    0.000000  -0.000000   0.000000
    22  H    0.000000   0.000000   0.000000
    23  H    0.007512  -0.002341  -0.010439
    24  H   -0.010468  -0.002304   0.007497
    25  H    0.616289  -0.018136  -0.023085
    26  H   -0.018136   0.635252  -0.018054
    27  H   -0.023085  -0.018054   0.615115
 Mulliken charges:
               1
     1  C   -0.077126
     2  C    0.135184
     3  O   -0.349718
     4  C    0.293971
     5  O   -0.216285
     6  C   -0.188734
     7  C    0.069756
     8  C   -0.068344
     9  C    0.058536
    10  N   -0.189596
    11  C    0.187655
    12  O   -0.290619
    13  C    0.138186
    14  C   -0.064308
    15  H    0.045310
    16  H    0.049600
    17  H    0.049111
    18  H    0.044855
    19  H    0.045112
    20  H    0.041588
    21  H    0.029731
    22  H    0.039375
    23  H    0.035786
    24  H    0.035573
    25  H    0.053325
    26  H    0.037912
    27  H    0.054163
 Sum of Mulliken charges =  -0.00000
 Mulliken charges with hydrogens summed into heavy atoms:
               1
     1  C    0.066896
     2  C    0.225151
     3  O   -0.349718
     4  C    0.293971
     5  O   -0.216285
     6  C   -0.188734
     7  C    0.111344
     8  C   -0.038613
     9  C    0.097911
    10  N   -0.189596
    11  C    0.187655
    12  O   -0.290619
    13  C    0.209546
    14  C    0.081092
 Electronic spatial extent (au):  <R**2>=           3514.3477
 Charge=             -0.0000 electrons
 Dipole moment (field-independent basis, Debye):
    X=             -1.0508    Y=              1.7111    Z=              0.0621  Tot=              2.0089
 Quadrupole moment (field-independent basis, Debye-Ang):
   XX=            -68.9525   YY=            -78.5564   ZZ=            -82.0700
   XY=             -1.0254   XZ=              0.0534   YZ=             -0.2918
 Traceless Quadrupole moment (field-independent basis, Debye-Ang):
   XX=              7.5738   YY=             -2.0301   ZZ=             -5.5438
   XY=             -1.0254   XZ=              0.0534   YZ=             -0.2918
 Octapole moment (field-independent basis, Debye-Ang**2):
  XXX=            -26.8552  YYY=             21.1494  ZZZ=             -0.1217  XYY=              4.7999
  XXY=            -29.0838  XXZ=             -0.1659  XZZ=             -3.0673  YZZ=            -10.5349
  YYZ=              0.4451  XYZ=              0.2344
 Hexadecapole moment (field-independent basis, Debye-Ang**3):
 XXXX=          -2916.4982 YYYY=          -1340.2231 ZZZZ=           -106.2943 XXXY=              9.6347
 XXXZ=              1.1630 YYYX=             20.3018 YYYZ=             -0.6162 ZZZX=              0.1296
 ZZZY=              0.7108 XXYY=           -707.5231 XXZZ=           -533.4594 YYZZ=           -265.9741
 XXYZ=             -0.4185 YYXZ=             -0.0396 ZZXY=             -2.0534
 N-N= 8.896701635110D+02 E-N=-3.337173885683D+03  KE= 6.621472187364D+02
   1 Symmetry operations used in ECPInt.
 ECPInt:  NShTT=    7626 NPrTT=   27482 LenC2=    7057 LenP2D=   18288.
 LDataN:  DoStor=T MaxTD1= 5 Len=  102
 Calling FoFJK, ICntrl=      2127 FMM=F ISym2X=0 I1Cent= 0 IOpClX= 0 NMat=1 NMatS=1 NMatT=0.
 ***** Axes restored to original set *****
 -------------------------------------------------------------------
 Center     Atomic                   Forces (Hartrees/Bohr)
 Number     Number              X              Y              Z
 -------------------------------------------------------------------
      1        6          -0.000004406   -0.000002695   -0.000001910
      2        6          -0.000002589    0.000002434   -0.000003457
      3        8           0.000000120   -0.000000710    0.000000427
      4        6           0.000003592    0.000011109   -0.000002002
      5        8           0.000000835   -0.000005339    0.000000511
      6        6           0.000007240   -0.000012257    0.000001570
      7        6          -0.000002188    0.000007162   -0.000000293
      8        6          -0.000002139    0.000005290    0.000000731
      9        6           0.000000124   -0.000005580   -0.000001181
     10        7           0.000001805   -0.000001581    0.000002221
     11        6          -0.000009159    0.000000182   -0.000002943
     12        8          -0.000002852    0.000004901    0.000002776
     13        6           0.000005977   -0.000003970   -0.000000587
     14        6          -0.000001973   -0.000000618   -0.000001953
     15        1           0.000001805    0.000003606   -0.000000437
     16        1           0.000000501    0.000002520    0.000000702
     17        1           0.000000975    0.000000973    0.000001096
     18        1           0.000000244    0.000002111    0.000001312
     19        1           0.000000430    0.000000268   -0.000000134
     20        1           0.000001313   -0.000000791    0.000000596
     21        1           0.000002846   -0.000004367    0.000001234
     22        1           0.000002280    0.000000581    0.000001188
     23        1          -0.000001256   -0.000000635    0.000000999
     24        1          -0.000002073   -0.000000776   -0.000000060
     25        1          -0.000000066   -0.000000159   -0.000001436
     26        1          -0.000000996   -0.000001646   -0.000000246
     27        1          -0.000000388   -0.000000012    0.000001275
 -------------------------------------------------------------------
 Cartesian Forces:  Max     0.000012257 RMS     0.000003225

 GradGradGradGradGradGradGradGradGradGradGradGradGradGradGradGradGradGrad
 Berny optimization.
 FormGI is forming the generalized inverse of G from B-inverse, IUseBI=4.
 Internal  Forces:  Max     0.000008268 RMS     0.000001613
 Search for a local minimum.
 Step number   1 out of a maximum of  134
 All quantities printed in internal units (Hartrees-Bohrs-Radians)
 Mixed Optimization -- En-DIIS/RFO-DIIS
 Second derivative matrix not updated -- first step.
 ITU=  0
     Eigenvalues ---    0.00615   0.00618   0.00860   0.01349   0.01369
     Eigenvalues ---    0.01395   0.01628   0.01987   0.02172   0.02208
     Eigenvalues ---    0.02218   0.02234   0.02355   0.02424   0.02526
     Eigenvalues ---    0.02703   0.05346   0.05411   0.05711   0.05756
     Eigenvalues ---    0.05757   0.05760   0.05817   0.05822   0.11299
     Eigenvalues ---    0.11363   0.13634   0.13679   0.16000   0.16000
     Eigenvalues ---    0.16000   0.16000   0.16000   0.16000   0.16000
     Eigenvalues ---    0.16000   0.16000   0.21891   0.21907   0.22084
     Eigenvalues ---    0.23314   0.24911   0.25000   0.25000   0.25000
     Eigenvalues ---    0.25000   0.25000   0.25000   0.31209   0.31230
     Eigenvalues ---    0.33131   0.33492   0.33496   0.33511   0.33519
     Eigenvalues ---    0.33723   0.33726   0.33735   0.33748   0.33776
     Eigenvalues ---    0.33779   0.34178   0.34784   0.34797   0.40342
     Eigenvalues ---    0.41800   0.42101   0.44415   0.45449   0.47042
     Eigenvalues ---    0.56182   0.57289   0.59115   0.61052   1.03957
 RFO step:  Lambda= 0.00000000D+00 EMin= 6.14956214D-03
 Linear search not attempted -- first point.
 Iteration  1 RMS(Cart)=  0.00004232 RMS(Int)=  0.00000000
 Iteration  2 RMS(Cart)=  0.00000000 RMS(Int)=  0.00000000
 Variable       Old X    -DE/DX   Delta X   Delta X   Delta X     New X
                                 (Linear)    (Quad)   (Total)
    R1        2.85577   0.00000   0.00000   0.00000   0.00000   2.85577
    R2        2.07757  -0.00000   0.00000  -0.00001  -0.00001   2.07756
    R3        2.07795   0.00000   0.00000   0.00000   0.00000   2.07796
    R4        2.07800  -0.00000   0.00000  -0.00000  -0.00000   2.07800
    R5        2.69178   0.00000   0.00000   0.00000   0.00000   2.69178
    R6        2.08163  -0.00000   0.00000  -0.00001  -0.00001   2.08162
    R7        2.08150   0.00000   0.00000   0.00000   0.00000   2.08150
    R8        2.54096   0.00000   0.00000   0.00000   0.00000   2.54097
    R9        2.27095   0.00001   0.00000   0.00001   0.00001   2.27095
   R10        2.82122  -0.00001   0.00000  -0.00002  -0.00002   2.82120
   R11        2.63453   0.00001   0.00000   0.00001   0.00001   2.63455
   R12        2.68699  -0.00001   0.00000  -0.00002  -0.00002   2.68697
   R13        2.63280  -0.00000   0.00000  -0.00000  -0.00000   2.63280
   R14        2.06006  -0.00000   0.00000  -0.00000  -0.00000   2.06006
   R15        2.62455   0.00000   0.00000   0.00000   0.00000   2.62455
   R16        2.06027  -0.00000   0.00000  -0.00001  -0.00001   2.06025
   R17        2.51471  -0.00000   0.00000  -0.00000  -0.00000   2.51470
   R18        2.07032   0.00000   0.00000   0.00001   0.00001   2.07032
   R19        2.50608  -0.00000   0.00000  -0.00000  -0.00000   2.50608
   R20        2.50117  -0.00000   0.00000  -0.00001  -0.00001   2.50117
   R21        2.68795   0.00000   0.00000   0.00001   0.00001   2.68796
   R22        2.85616  -0.00000   0.00000  -0.00000  -0.00000   2.85615
   R23        2.08190  -0.00000   0.00000  -0.00000  -0.00000   2.08190
   R24        2.08196  -0.00000   0.00000  -0.00000  -0.00000   2.08195
   R25        2.07709  -0.00000   0.00000  -0.00000  -0.00000   2.07709
   R26        2.07780  -0.00000   0.00000  -0.00000  -0.00000   2.07780
   R27        2.07705  -0.00000   0.00000  -0.00001  -0.00001   2.07704
    A1        1.91896   0.00000   0.00000   0.00001   0.00001   1.91897
    A2        1.93551  -0.00000   0.00000  -0.00000  -0.00000   1.93551
    A3        1.93579  -0.00000   0.00000  -0.00001  -0.00001   1.93579
    A4        1.89038   0.00000   0.00000   0.00000   0.00000   1.89039
    A5        1.89019   0.00000   0.00000   0.00000   0.00000   1.89019
    A6        1.89174  -0.00000   0.00000  -0.00001  -0.00001   1.89173
    A7        1.88507   0.00000   0.00000   0.00001   0.00001   1.88508
    A8        1.95201   0.00000   0.00000   0.00001   0.00001   1.95202
    A9        1.95195  -0.00000   0.00000   0.00000   0.00000   1.95195
   A10        1.90506  -0.00000   0.00000  -0.00000  -0.00000   1.90505
   A11        1.90471  -0.00000   0.00000  -0.00001  -0.00001   1.90470
   A12        1.86440  -0.00000   0.00000  -0.00000  -0.00000   1.86440
   A13        2.03358   0.00000   0.00000   0.00001   0.00001   2.03358
   A14        2.13847  -0.00000   0.00000  -0.00000  -0.00000   2.13847
   A15        1.93762   0.00000   0.00000   0.00000   0.00000   1.93763
   A16        2.20708  -0.00000   0.00000  -0.00000  -0.00000   2.20708
   A17        2.10845  -0.00000   0.00000  -0.00000  -0.00000   2.10844
   A18        2.13595   0.00000   0.00000   0.00000   0.00000   2.13595
   A19        2.03879  -0.00000   0.00000   0.00000   0.00000   2.03879
   A20        2.10296  -0.00000   0.00000  -0.00000  -0.00000   2.10295
   A21        2.06931  -0.00000   0.00000  -0.00001  -0.00001   2.06930
   A22        2.11092   0.00000   0.00000   0.00001   0.00001   2.11093
   A23        2.05048  -0.00000   0.00000  -0.00000  -0.00000   2.05048
   A24        2.12069   0.00000   0.00000   0.00000   0.00000   2.12069
   A25        2.11201   0.00000   0.00000   0.00000   0.00000   2.11201
   A26        2.15388   0.00000   0.00000   0.00001   0.00001   2.15388
   A27        2.10372  -0.00000   0.00000  -0.00000  -0.00000   2.10372
   A28        2.02559  -0.00000   0.00000  -0.00000  -0.00000   2.02558
   A29        2.08121  -0.00000   0.00000  -0.00001  -0.00001   2.08121
   A30        2.13904   0.00000   0.00000   0.00001   0.00001   2.13905
   A31        2.07482   0.00000   0.00000   0.00001   0.00001   2.07482
   A32        2.06932  -0.00000   0.00000  -0.00001  -0.00001   2.06931
   A33        2.07700  -0.00000   0.00000  -0.00000  -0.00000   2.07700
   A34        1.87341   0.00000   0.00000  -0.00000  -0.00000   1.87341
   A35        1.91006  -0.00000   0.00000  -0.00001  -0.00001   1.91005
   A36        1.91032  -0.00000   0.00000  -0.00001  -0.00001   1.91031
   A37        1.95338   0.00000   0.00000   0.00000   0.00000   1.95339
   A38        1.95353   0.00000   0.00000   0.00001   0.00001   1.95354
   A39        1.86303  -0.00000   0.00000   0.00000   0.00000   1.86303
   A40        1.93254  -0.00000   0.00000  -0.00000  -0.00000   1.93254
   A41        1.91896   0.00000   0.00000   0.00001   0.00001   1.91897
   A42        1.93227   0.00000   0.00000   0.00000   0.00000   1.93227
   A43        1.89599  -0.00000   0.00000  -0.00000  -0.00000   1.89599
   A44        1.88685   0.00000   0.00000  -0.00000  -0.00000   1.88685
   A45        1.89628  -0.00000   0.00000   0.00000   0.00000   1.89628
    D1       -3.14081   0.00000   0.00000   0.00001   0.00001  -3.14080
    D2        1.04575  -0.00000   0.00000   0.00001   0.00001   1.04575
    D3       -1.04464  -0.00000   0.00000   0.00001   0.00001  -1.04464
    D4       -1.05065   0.00000   0.00000   0.00002   0.00002  -1.05063
    D5        3.13591   0.00000   0.00000   0.00001   0.00001   3.13592
    D6        1.04552   0.00000   0.00000   0.00001   0.00001   1.04553
    D7        1.05228  -0.00000   0.00000   0.00001   0.00001   1.05228
    D8       -1.04435  -0.00000   0.00000   0.00000   0.00000  -1.04435
    D9       -3.13474  -0.00000   0.00000  -0.00000  -0.00000  -3.13474
   D10        3.14027  -0.00000   0.00000  -0.00004  -0.00004   3.14023
   D11       -1.01703   0.00000   0.00000  -0.00002  -0.00002  -1.01706
   D12        1.01466  -0.00000   0.00000  -0.00004  -0.00004   1.01462
   D13       -0.00366  -0.00000   0.00000  -0.00005  -0.00005  -0.00371
   D14        3.13577   0.00000   0.00000   0.00003   0.00003   3.13580
   D15       -0.04292  -0.00000   0.00000  -0.00004  -0.00004  -0.04296
   D16        3.10084  -0.00000   0.00000  -0.00003  -0.00003   3.10080
   D17        3.09642   0.00000   0.00000   0.00004   0.00004   3.09646
   D18       -0.04302   0.00000   0.00000   0.00005   0.00005  -0.04297
   D19       -3.13663   0.00000   0.00000   0.00000   0.00000  -3.13663
   D20        0.00387   0.00000   0.00000   0.00001   0.00001   0.00388
   D21        0.00292  -0.00000   0.00000  -0.00000  -0.00000   0.00291
   D22       -3.13977   0.00000   0.00000   0.00001   0.00001  -3.13977
   D23        3.13650   0.00000   0.00000   0.00000   0.00000   3.13650
   D24       -0.00764  -0.00000   0.00000  -0.00002  -0.00002  -0.00766
   D25       -0.00301   0.00000   0.00000   0.00001   0.00001  -0.00301
   D26        3.13603  -0.00000   0.00000  -0.00001  -0.00001   3.13602
   D27       -0.00083   0.00000   0.00000   0.00001   0.00001  -0.00082
   D28        3.14020   0.00000   0.00000   0.00001   0.00001   3.14022
   D29       -3.14130  -0.00000   0.00000  -0.00000  -0.00000  -3.14130
   D30       -0.00026   0.00000   0.00000   0.00000   0.00000  -0.00026
   D31       -0.00151  -0.00000   0.00000  -0.00002  -0.00002  -0.00153
   D32        3.14037   0.00000   0.00000   0.00001   0.00001   3.14039
   D33        3.14064  -0.00000   0.00000  -0.00002  -0.00002   3.14061
   D34       -0.00066   0.00000   0.00000   0.00001   0.00001  -0.00066
   D35        0.00151   0.00000   0.00000   0.00002   0.00002   0.00153
   D36       -3.14037  -0.00000   0.00000  -0.00001  -0.00001  -3.14037
   D37        0.00085  -0.00000   0.00000  -0.00002  -0.00002   0.00083
   D38       -3.13820   0.00000   0.00000   0.00000   0.00000  -3.13820
   D39        3.14151  -0.00000   0.00000  -0.00001  -0.00001   3.14150
   D40       -0.00253  -0.00000   0.00000  -0.00003  -0.00003  -0.00256
   D41       -3.13980   0.00000   0.00000   0.00007   0.00007  -3.13974
   D42       -1.01639   0.00000   0.00000   0.00006   0.00006  -1.01633
   D43        1.01965  -0.00000   0.00000   0.00005   0.00005   1.01971
   D44       -1.04723  -0.00000   0.00000  -0.00002  -0.00002  -1.04725
   D45        3.14070  -0.00000   0.00000  -0.00002  -0.00002   3.14068
   D46        1.04526  -0.00000   0.00000  -0.00003  -0.00003   1.04523
   D47        3.13990   0.00000   0.00000  -0.00001  -0.00001   3.13989
   D48        1.04465   0.00000   0.00000  -0.00001  -0.00001   1.04464
   D49       -1.05079   0.00000   0.00000  -0.00002  -0.00002  -1.05081
   D50        1.04923  -0.00000   0.00000  -0.00003  -0.00003   1.04920
   D51       -1.04602  -0.00000   0.00000  -0.00003  -0.00003  -1.04605
   D52       -3.14146  -0.00000   0.00000  -0.00003  -0.00003  -3.14150
         Item               Value     Threshold  Converged?
 Maximum Force            0.000008     0.000450     YES
 RMS     Force            0.000002     0.000300     YES
 Maximum Displacement     0.000139     0.001800     YES
 RMS     Displacement     0.000042     0.001200     YES
 Predicted change in Energy=-6.985033D-10
 Optimization completed.
    -- Stationary point found.
                           ----------------------------
                           !   Optimized Parameters   !
                           ! (Angstroms and Degrees)  !
 --------------------------                            --------------------------
 ! Name  Definition              Value          Derivative Info.                !
 --------------------------------------------------------------------------------
 ! R1    R(1,2)                  1.5112         -DE/DX =    0.0                 !
 ! R2    R(1,15)                 1.0994         -DE/DX =    0.0                 !
 ! R3    R(1,16)                 1.0996         -DE/DX =    0.0                 !
 ! R4    R(1,17)                 1.0996         -DE/DX =    0.0                 !
 ! R5    R(2,3)                  1.4244         -DE/DX =    0.0                 !
 ! R6    R(2,18)                 1.1015         -DE/DX =    0.0                 !
 ! R7    R(2,19)                 1.1015         -DE/DX =    0.0                 !
 ! R8    R(3,4)                  1.3446         -DE/DX =    0.0                 !
 ! R9    R(4,5)                  1.2017         -DE/DX =    0.0                 !
 ! R10   R(4,6)                  1.4929         -DE/DX =    0.0                 !
 ! R11   R(6,7)                  1.3941         -DE/DX =    0.0                 !
 ! R12   R(6,11)                 1.4219         -DE/DX =    0.0                 !
 ! R13   R(7,8)                  1.3932         -DE/DX =    0.0                 !
 ! R14   R(7,20)                 1.0901         -DE/DX =    0.0                 !
 ! R15   R(8,9)                  1.3889         -DE/DX =    0.0                 !
 ! R16   R(8,21)                 1.0902         -DE/DX =    0.0                 !
 ! R17   R(9,10)                 1.3307         -DE/DX =    0.0                 !
 ! R18   R(9,22)                 1.0956         -DE/DX =    0.0                 !
 ! R19   R(10,11)                1.3262         -DE/DX =    0.0                 !
 ! R20   R(11,12)                1.3236         -DE/DX =    0.0                 !
 ! R21   R(12,13)                1.4224         -DE/DX =    0.0                 !
 ! R22   R(13,14)                1.5114         -DE/DX =    0.0                 !
 ! R23   R(13,23)                1.1017         -DE/DX =    0.0                 !
 ! R24   R(13,24)                1.1017         -DE/DX =    0.0                 !
 ! R25   R(14,25)                1.0992         -DE/DX =    0.0                 !
 ! R26   R(14,26)                1.0995         -DE/DX =    0.0                 !
 ! R27   R(14,27)                1.0991         -DE/DX =    0.0                 !
 ! A1    A(2,1,15)             109.9482         -DE/DX =    0.0                 !
 ! A2    A(2,1,16)             110.8966         -DE/DX =    0.0                 !
 ! A3    A(2,1,17)             110.9128         -DE/DX =    0.0                 !
 ! A4    A(15,1,16)            108.3109         -DE/DX =    0.0                 !
 ! A5    A(15,1,17)            108.2997         -DE/DX =    0.0                 !
 ! A6    A(16,1,17)            108.3885         -DE/DX =    0.0                 !
 ! A7    A(1,2,3)              108.0066         -DE/DX =    0.0                 !
 ! A8    A(1,2,18)             111.8421         -DE/DX =    0.0                 !
 ! A9    A(1,2,19)             111.8386         -DE/DX =    0.0                 !
 ! A10   A(3,2,18)             109.1517         -DE/DX =    0.0                 !
 ! A11   A(3,2,19)             109.1321         -DE/DX =    0.0                 !
 ! A12   A(18,2,19)            106.8225         -DE/DX =    0.0                 !
 ! A13   A(2,3,4)              116.5154         -DE/DX =    0.0                 !
 ! A14   A(3,4,5)              122.5256         -DE/DX =    0.0                 !
 ! A15   A(3,4,6)              111.0177         -DE/DX =    0.0                 !
 ! A16   A(5,4,6)              126.4566         -DE/DX =    0.0                 !
 ! A17   A(4,6,7)              120.8051         -DE/DX =    0.0                 !
 ! A18   A(4,6,11)             122.3808         -DE/DX =    0.0                 !
 ! A19   A(7,6,11)             116.814          -DE/DX =    0.0                 !
 ! A20   A(6,7,8)              120.4906         -DE/DX =    0.0                 !
 ! A21   A(6,7,20)             118.5627         -DE/DX =    0.0                 !
 ! A22   A(8,7,20)             120.9466         -DE/DX =    0.0                 !
 ! A23   A(7,8,9)              117.4841         -DE/DX =    0.0                 !
 ! A24   A(7,8,21)             121.5066         -DE/DX =    0.0                 !
 ! A25   A(9,8,21)             121.0093         -DE/DX =    0.0                 !
 ! A26   A(8,9,10)             123.4082         -DE/DX =    0.0                 !
 ! A27   A(8,9,22)             120.5343         -DE/DX =    0.0                 !
 ! A28   A(10,9,22)            116.0575         -DE/DX =    0.0                 !
 ! A29   A(9,10,11)            119.2448         -DE/DX =    0.0                 !
 ! A30   A(6,11,10)            122.5581         -DE/DX =    0.0                 !
 ! A31   A(6,11,12)            118.8782         -DE/DX =    0.0                 !
 ! A32   A(10,11,12)           118.5636         -DE/DX =    0.0                 !
 ! A33   A(11,12,13)           119.0034         -DE/DX =    0.0                 !
 ! A34   A(12,13,14)           107.3384         -DE/DX =    0.0                 !
 ! A35   A(12,13,23)           109.4383         -DE/DX =    0.0                 !
 ! A36   A(12,13,24)           109.4531         -DE/DX =    0.0                 !
 ! A37   A(14,13,23)           111.9207         -DE/DX =    0.0                 !
 ! A38   A(14,13,24)           111.9289         -DE/DX =    0.0                 !
 ! A39   A(23,13,24)           106.7438         -DE/DX =    0.0                 !
 ! A40   A(13,14,25)           110.7265         -DE/DX =    0.0                 !
 ! A41   A(13,14,26)           109.9484         -DE/DX =    0.0                 !
 ! A42   A(13,14,27)           110.7106         -DE/DX =    0.0                 !
 ! A43   A(25,14,26)           108.6323         -DE/DX =    0.0                 !
 ! A44   A(25,14,27)           108.1084         -DE/DX =    0.0                 !
 ! A45   A(26,14,27)           108.649          -DE/DX =    0.0                 !
 ! D1    D(15,1,2,3)          -179.9552         -DE/DX =    0.0                 !
 ! D2    D(15,1,2,18)           59.9168         -DE/DX =    0.0                 !
 ! D3    D(15,1,2,19)          -59.8537         -DE/DX =    0.0                 !
 ! D4    D(16,1,2,3)           -60.1979         -DE/DX =    0.0                 !
 ! D5    D(16,1,2,18)          179.6741         -DE/DX =    0.0                 !
 ! D6    D(16,1,2,19)           59.9037         -DE/DX =    0.0                 !
 ! D7    D(17,1,2,3)            60.291          -DE/DX =    0.0                 !
 ! D8    D(17,1,2,18)          -59.837          -DE/DX =    0.0                 !
 ! D9    D(17,1,2,19)         -179.6074         -DE/DX =    0.0                 !
 ! D10   D(1,2,3,4)            179.9241         -DE/DX =    0.0                 !
 ! D11   D(18,2,3,4)           -58.2717         -DE/DX =    0.0                 !
 ! D12   D(19,2,3,4)            58.1358         -DE/DX =    0.0                 !
 ! D13   D(2,3,4,5)             -0.2098         -DE/DX =    0.0                 !
 ! D14   D(2,3,4,6)            179.6666         -DE/DX =    0.0                 !
 ! D15   D(3,4,6,7)             -2.4589         -DE/DX =    0.0                 !
 ! D16   D(3,4,6,11)           177.665          -DE/DX =    0.0                 !
 ! D17   D(5,4,6,7)            177.4115         -DE/DX =    0.0                 !
 ! D18   D(5,4,6,11)            -2.4646         -DE/DX =    0.0                 !
 ! D19   D(4,6,7,8)           -179.7156         -DE/DX =    0.0                 !
 ! D20   D(4,6,7,20)             0.2215         -DE/DX =    0.0                 !
 ! D21   D(11,6,7,8)             0.1672         -DE/DX =    0.0                 !
 ! D22   D(11,6,7,20)         -179.8958         -DE/DX =    0.0                 !
 ! D23   D(4,6,11,10)          179.7081         -DE/DX =    0.0                 !
 ! D24   D(4,6,11,12)           -0.438          -DE/DX =    0.0                 !
 ! D25   D(7,6,11,10)           -0.1727         -DE/DX =    0.0                 !
 ! D26   D(7,6,11,12)          179.6813         -DE/DX =    0.0                 !
 ! D27   D(6,7,8,9)             -0.0475         -DE/DX =    0.0                 !
 ! D28   D(6,7,8,21)           179.9205         -DE/DX =    0.0                 !
 ! D29   D(20,7,8,9)          -179.9831         -DE/DX =    0.0                 !
 ! D30   D(20,7,8,21)           -0.0151         -DE/DX =    0.0                 !
 ! D31   D(7,8,9,10)            -0.0865         -DE/DX =    0.0                 !
 ! D32   D(7,8,9,22)           179.9302         -DE/DX =    0.0                 !
 ! D33   D(21,8,9,10)          179.9453         -DE/DX =    0.0                 !
 ! D34   D(21,8,9,22)           -0.038          -DE/DX =    0.0                 !
 ! D35   D(8,9,10,11)            0.0863         -DE/DX =    0.0                 !
 ! D36   D(22,9,10,11)        -179.9298         -DE/DX =    0.0                 !
 ! D37   D(9,10,11,6)            0.0487         -DE/DX =    0.0                 !
 ! D38   D(9,10,11,12)        -179.8057         -DE/DX =    0.0                 !
 ! D39   D(6,11,12,13)         179.9954         -DE/DX =    0.0                 !
 ! D40   D(10,11,12,13)         -0.1447         -DE/DX =    0.0                 !
 ! D41   D(11,12,13,14)       -179.8973         -DE/DX =    0.0                 !
 ! D42   D(11,12,13,23)        -58.2351         -DE/DX =    0.0                 !
 ! D43   D(11,12,13,24)         58.4219         -DE/DX =    0.0                 !
 ! D44   D(12,13,14,25)        -60.0016         -DE/DX =    0.0                 !
 ! D45   D(12,13,14,26)        179.9491         -DE/DX =    0.0                 !
 ! D46   D(12,13,14,27)         59.8891         -DE/DX =    0.0                 !
 ! D47   D(23,13,14,25)        179.9033         -DE/DX =    0.0                 !
 ! D48   D(23,13,14,26)         59.854          -DE/DX =    0.0                 !
 ! D49   D(23,13,14,27)        -60.206          -DE/DX =    0.0                 !
 ! D50   D(24,13,14,25)         60.1166         -DE/DX =    0.0                 !
 ! D51   D(24,13,14,26)        -59.9327         -DE/DX =    0.0                 !
 ! D52   D(24,13,14,27)       -179.9927         -DE/DX =    0.0                 !
 --------------------------------------------------------------------------------
 GradGradGradGradGradGradGradGradGradGradGradGradGradGradGradGradGradGrad

                          Input orientation:                          
 ---------------------------------------------------------------------
 Center     Atomic      Atomic             Coordinates (Angstroms)
 Number     Number       Type             X           Y           Z
 ---------------------------------------------------------------------
      1          6           0       -4.722480   -0.373010    0.049440
      2          6           0       -3.391400   -1.086510   -0.004300
      3          8           0       -2.362730   -0.101340    0.012360
      4          6           0       -1.097270   -0.554040   -0.028590
      5          8           0       -0.831070   -1.725070   -0.073200
      6          6           0       -0.123160    0.577200   -0.013610
      7          6           0       -0.564630    1.899590   -0.014140
      8          6           0        0.350260    2.950290   -0.006070
      9          6           0        1.700340    2.624550    0.003410
     10          7           0        2.152050    1.372840    0.006780
     11          6           0        1.283590    0.370630   -0.000850
     12          8           0        1.747600   -0.868910    0.006570
     13          6           0        3.154400   -1.078630    0.019240
     14          6           0        3.387160   -2.572010    0.022790
     15          1           0       -5.541710   -1.106110    0.038930
     16          1           0       -4.808540    0.228100    0.966170
     17          1           0       -4.845280    0.294410   -0.815810
     18          1           0       -3.290930   -1.698540   -0.914650
     19          1           0       -3.255330   -1.765050    0.852630
     20          1           0       -1.637840    2.090800   -0.022040
     21          1           0        0.023420    3.990390   -0.007640
     22          1           0        2.462720    3.411320    0.008870
     23          1           0        3.605250   -0.594200   -0.861550
     24          1           0        3.589900   -0.592230    0.906680
     25          1           0        2.931350   -3.034640    0.909550
     26          1           0        4.466120   -2.783480    0.031640
     27          1           0        2.945300   -3.036400   -0.870060
 ---------------------------------------------------------------------
                    Distance matrix (angstroms):
                    1          2          3          4          5
     1  C    0.000000
     2  C    1.511206   0.000000
     3  O    2.375626   1.424430   0.000000
     4  C    3.630566   2.355238   1.344620   0.000000
     5  O    4.121429   2.639658   2.233786   1.201734   0.000000
     6  C    4.696873   3.667344   2.340249   1.492923   2.409385
     7  C    4.738826   4.111875   2.690276   2.510819   3.634919
     8  C    6.064660   5.504160   4.083271   3.791593   4.822763
     9  C    7.088025   6.300622   4.892759   4.234511   5.033200
    10  N    7.092882   6.064517   4.749366   3.777856   4.301447
    11  C    6.052141   4.896815   3.676762   2.554267   2.978083
    12  O    6.489198   5.143616   4.181389   2.862458   2.718255
    13  C    7.908480   6.545847   5.603023   4.284178   4.038614
    14  C    8.402534   6.939475   6.258239   4.917820   4.303485
    15  H    1.099402   2.150834   3.334094   4.479106   4.752453
    16  H    1.099606   2.162937   2.645802   3.921073   4.551421
    17  H    1.099630   2.163159   2.646798   3.922647   4.554520
    18  H    2.176197   1.101550   2.066870   2.628141   2.599933
    19  H    2.176102   1.101481   2.066572   2.626845   2.595341
    20  H    3.948477   3.629130   2.309140   2.699525   3.900559
    21  H    6.447176   6.118490   4.736704   4.680623   5.779354
    22  H    8.120954   7.382504   5.968564   5.329072   6.102318
    23  H    8.380329   7.066142   6.051728   4.775890   4.645568
    24  H    8.359341   7.057815   6.039419   4.779723   4.667812
    25  H    8.148937   6.678885   6.118536   4.823200   4.103240
    26  H    9.499529   8.038757   7.336719   5.993775   5.402911
    27  H    8.169087   6.686208   6.129309   4.817941   4.076217
                    6          7          8          9         10
     6  C    0.000000
     7  C    1.394135   0.000000
     8  C    2.419864   1.393219   0.000000
     9  C    2.741730   2.378227   1.388853   0.000000
    10  N    2.410402   2.767355   2.394778   1.330726   0.000000
    11  C    1.421893   2.398711   2.743315   2.292129   1.326162
    12  O    2.364611   3.607136   4.066818   3.493781   2.277943
    13  C    3.672227   4.764671   4.908772   3.978452   2.648503
    14  C    4.716057   5.967681   6.302332   5.463513   4.133714
    15  H    5.674238   5.814497   7.153441   8.146556   8.083327
    16  H    4.799440   4.665368   5.913441   7.002528   7.119036
    17  H    4.798115   4.641470   5.890926   6.996129   7.127573
    18  H    4.003203   4.603278   5.974563   6.666687   6.317313
    19  H    4.005870   4.628255   5.997673   6.674461   6.308849
    20  H    2.141334   1.090139   2.165992   3.380678   3.857404
    21  H    3.416341   2.171932   1.090245   2.162800   3.373847
    22  H    3.836602   3.383889   2.162235   1.095564   2.062019
    23  H    3.999028   4.932037   4.887762   3.838905   2.595194
    24  H    4.000164   4.931247   4.886494   3.838490   2.595907
    25  H    4.819507   6.117328   6.581776   5.861988   4.565981
    26  H    5.688384   6.873259   7.058176   6.074300   4.757156
    27  H    4.817370   6.116879   6.581882   5.861675   4.565029
                   11         12         13         14         15
    11  C    0.000000
    12  O    1.323563   0.000000
    13  C    2.366577   1.422403   0.000000
    14  C    3.617277   2.364100   1.511414   0.000000
    15  H    6.983342   7.293240   8.696176   9.048417   0.000000
    16  H    6.170048   6.716192   8.124816   8.712065   1.782534
    17  H    6.183285   6.745049   8.159499   8.757436   1.782429
    18  H    5.103208   5.188807   6.542073   6.799899   2.515213
    19  H    5.088355   5.152494   6.500027   6.742588   2.514725
    20  H    3.390308   4.496877   5.745655   6.855248   5.046202
    21  H    3.832850   5.156141   5.958080   7.374332   7.546334
    22  H    3.261325   4.339559   4.542926   6.054339   9.191245
    23  H    2.657406   2.068807   1.101694   2.177465   9.205422
    24  H    2.658905   2.069014   1.101724   2.177589   9.187130
    25  H    3.890990   2.628122   2.160643   1.099151   8.733267
    26  H    4.480844   3.325140   2.151111   1.099524  10.147427
    27  H    3.889044   2.626971   2.160426   1.099127   8.751093
                   16         17         18         19         20
    16  H    0.000000
    17  H    1.783592   0.000000
    18  H    3.090723   2.529352   0.000000
    19  H    2.529427   3.090794   1.768889   0.000000
    20  H    3.807827   3.760952   4.229487   4.271873   0.000000
    21  H    6.200885   6.165845   6.646165   6.679473   2.523576
    22  H    7.995032   7.987621   7.750358   7.759048   4.308053
    23  H    8.649196   8.497245   6.984245   7.167765   5.950126
    24  H    8.438618   8.654788   7.203262   6.945186   5.948986
    25  H    8.399677   8.633390   6.620396   6.315862   6.929321
    26  H    9.796034   9.843462   7.889511   7.831476   7.811518
    27  H    8.611082   8.472920   6.378277   6.559863   6.929105
                   21         22         23         24         25
    21  H    0.000000
[...]
 Alpha virt. eigenvalues --    5.80660   5.81497   5.87106   5.90081   5.97258
 Alpha virt. eigenvalues --    6.02507   6.04581   6.09274   6.17968   6.27166
 Alpha virt. eigenvalues --    6.31268   6.41326   6.44993   6.48274   6.55025
 Alpha virt. eigenvalues --    6.68904   6.75167   6.76153   6.81441   6.87044
 Alpha virt. eigenvalues --    6.87624   6.94799   6.97735   6.99913   7.10961
 Alpha virt. eigenvalues --    7.19372   7.26628   7.36332   7.48941   7.55676
 Alpha virt. eigenvalues --    7.57895  22.39030  22.40129  22.50667  22.58796
 Alpha virt. eigenvalues --   22.63930  22.74134  22.92331  23.13488  23.36448
 Alpha virt. eigenvalues --   23.67966  32.67662  44.07245  44.38421  44.52495
          Condensed to atoms (all electrons):
               1          2          3          4          5          6
     1  C    4.893388   0.313860  -0.045194   0.001442   0.004728   0.005273
     2  C    0.313860   4.813794   0.221321  -0.038103   0.000590   0.006814
     3  O   -0.045194   0.221321   7.998398   0.390296  -0.083338  -0.170853
     4  C    0.001442  -0.038103   0.390296   4.458325   0.660416   0.288517
     5  O    0.004728   0.000590  -0.083338   0.660416   7.852210  -0.098990
     6  C    0.005273   0.006814  -0.170853   0.288517  -0.098990   5.445822
     7  C   -0.001378  -0.002663   0.036256  -0.059261   0.007518   0.419463
     8  C    0.000034  -0.000104  -0.000131   0.007452  -0.000316  -0.038810
     9  C   -0.000008  -0.000017   0.000380  -0.002298   0.000259  -0.047540
    10  N    0.000000   0.000029  -0.000195   0.005887  -0.000253  -0.057955
    11  C    0.000055   0.000274  -0.003290  -0.075323   0.000905   0.407767
    12  O    0.000002   0.000126  -0.000189   0.016103  -0.013498  -0.121734
    13  C    0.000000  -0.000008   0.000004  -0.001563  -0.000516   0.012883
    14  C   -0.000000  -0.000004   0.000009  -0.000238   0.001286   0.001226
    15  H    0.410542  -0.037610   0.004217   0.000147   0.000119  -0.000030
    16  H    0.405361  -0.032275   0.001736   0.000012  -0.000091  -0.000524
    17  H    0.405291  -0.032239   0.001604   0.000005  -0.000094  -0.000614
    18  H   -0.031492   0.417594  -0.038263  -0.005605   0.005756  -0.001848
    19  H   -0.031159   0.416814  -0.037100  -0.006189   0.005886  -0.002690
    20  H   -0.000569  -0.001072   0.014620  -0.014077   0.000401  -0.028900
    21  H    0.000001   0.000007  -0.000096   0.000008   0.000002   0.010554
    22  H    0.000000   0.000000  -0.000001   0.000173  -0.000001   0.000191
    23  H    0.000000   0.000000  -0.000001   0.000102  -0.000053  -0.003402
    24  H    0.000000   0.000000  -0.000000   0.000045  -0.000053  -0.003440
    25  H   -0.000000   0.000000  -0.000000   0.000073   0.000053  -0.000494
    26  H    0.000000   0.000000   0.000000   0.000038   0.000019  -0.000095
    27  H   -0.000000   0.000000   0.000000   0.000070   0.000080  -0.000460
               7          8          9         10         11         12
     1  C   -0.001378   0.000034  -0.000008   0.000000   0.000055   0.000002
     2  C   -0.002663  -0.000104  -0.000017   0.000029   0.000274   0.000126
     3  O    0.036256  -0.000131   0.000380  -0.000195  -0.003290  -0.000189
     4  C   -0.059261   0.007452  -0.002298   0.005887  -0.075323   0.016103
     5  O    0.007518  -0.000316   0.000259  -0.000253   0.000905  -0.013498
     6  C    0.419463  -0.038810  -0.047540  -0.057955   0.407767  -0.121734
     7  C    5.008873   0.451423   0.014166  -0.045130  -0.049131  -0.001036
     8  C    0.451423   4.981558   0.497142  -0.057526  -0.024486   0.002247
     9  C    0.014166   0.497142   4.692740   0.542752  -0.073187  -0.000569
    10  N   -0.045130  -0.057526   0.542752   6.584802   0.456094  -0.081104
    11  C   -0.049131  -0.024486  -0.073187   0.456094   4.656097   0.443782
    12  O   -0.001036   0.002247  -0.000569  -0.081104   0.443782   7.876199
    13  C   -0.001209   0.000409  -0.000013  -0.020369  -0.042555   0.223740
    14  C    0.000116   0.000014   0.000208   0.004386   0.001312  -0.048219
    15  H    0.000016   0.000001   0.000000   0.000000  -0.000001  -0.000000
    16  H    0.000204   0.000006   0.000001  -0.000000  -0.000016  -0.000000
    17  H    0.000212   0.000011   0.000001  -0.000000  -0.000010  -0.000000
    18  H    0.000413   0.000013   0.000001  -0.000000  -0.000248  -0.000008
    19  H    0.000610   0.000024   0.000000  -0.000001  -0.000120  -0.000010
    20  H    0.423538  -0.045261   0.004301  -0.001013   0.007360  -0.000105
    21  H   -0.058333   0.426727  -0.036207   0.006543  -0.001282   0.000046
    22  H    0.002959  -0.069897   0.431656  -0.032910   0.004565  -0.000084
    23  H    0.000198  -0.000267   0.000827   0.013473  -0.009664  -0.037169
    24  H    0.000226  -0.000255   0.000712   0.013336  -0.009758  -0.036612
    25  H   -0.000002   0.000000  -0.000005  -0.000056  -0.000389   0.002262
    26  H   -0.000004  -0.000002   0.000015   0.000175   0.000477   0.004508
    27  H   -0.000003   0.000001  -0.000007  -0.000062  -0.000411   0.002262
              13         14         15         16         17         18
     1  C    0.000000  -0.000000   0.410542   0.405361   0.405291  -0.031492
     2  C   -0.000008  -0.000004  -0.037610  -0.032275  -0.032239   0.417594
     3  O    0.000004   0.000009   0.004217   0.001736   0.001604  -0.038263
     4  C   -0.001563  -0.000238   0.000147   0.000012   0.000005  -0.005605
     5  O   -0.000516   0.001286   0.000119  -0.000091  -0.000094   0.005756
     6  C    0.012883   0.001226  -0.000030  -0.000524  -0.000614  -0.001848
     7  C   -0.001209   0.000116   0.000016   0.000204   0.000212   0.000413
     8  C    0.000409   0.000014   0.000001   0.000006   0.000011   0.000013
     9  C   -0.000013   0.000208   0.000000   0.000001   0.000001   0.000001
    10  N   -0.020369   0.004386   0.000000  -0.000000  -0.000000  -0.000000
    11  C   -0.042555   0.001312  -0.000001  -0.000016  -0.000010  -0.000248
    12  O    0.223740  -0.048219  -0.000000  -0.000000  -0.000000  -0.000008
    13  C    4.837616   0.316600  -0.000000  -0.000000  -0.000000  -0.000001
    14  C    0.316600   4.876575  -0.000000   0.000000   0.000000  -0.000000
    15  H   -0.000000  -0.000000   0.547597  -0.020988  -0.021217  -0.001826
    16  H   -0.000000   0.000000  -0.020988   0.557277  -0.028380   0.007426
    17  H   -0.000000   0.000000  -0.021217  -0.028380   0.558277  -0.008215
    18  H   -0.000001  -0.000000  -0.001826   0.007426  -0.008215   0.585685
    19  H   -0.000000  -0.000000  -0.001936  -0.008179   0.007415  -0.043976
    20  H    0.000025  -0.000000   0.000054   0.000000   0.000098   0.000051
    21  H   -0.000007  -0.000001  -0.000000  -0.000000  -0.000000  -0.000000
    22  H   -0.000124  -0.000029   0.000000  -0.000000  -0.000000   0.000000
    23  H    0.410202  -0.031289  -0.000000   0.000000  -0.000000   0.000000
    24  H    0.410020  -0.031568   0.000000  -0.000000   0.000000  -0.000000
    25  H   -0.029929   0.404701   0.000000   0.000000  -0.000000   0.000000
    26  H   -0.042459   0.411193  -0.000000   0.000000   0.000000  -0.000000
    27  H   -0.029809   0.404864   0.000000  -0.000000   0.000000  -0.000000
              19         20         21         22         23         24
     1  C   -0.031159  -0.000569   0.000001   0.000000   0.000000   0.000000
     2  C    0.416814  -0.001072   0.000007   0.000000   0.000000   0.000000
     3  O   -0.037100   0.014620  -0.000096  -0.000001  -0.000001  -0.000000
     4  C   -0.006189  -0.014077   0.000008   0.000173   0.000102   0.000045
     5  O    0.005886   0.000401   0.000002  -0.000001  -0.000053  -0.000053
     6  C   -0.002690  -0.028900   0.010554   0.000191  -0.003402  -0.003440
     7  C    0.000610   0.423538  -0.058333   0.002959   0.000198   0.000226
     8  C    0.000024  -0.045261   0.426727  -0.069897  -0.000267  -0.000255
     9  C    0.000000   0.004301  -0.036207   0.431656   0.000827   0.000712
    10  N   -0.000001  -0.001013   0.006543  -0.032910   0.013473   0.013336
    11  C   -0.000120   0.007360  -0.001282   0.004565  -0.009664  -0.009758
    12  O   -0.000010  -0.000105   0.000046  -0.000084  -0.037169  -0.036612
    13  C   -0.000000   0.000025  -0.000007  -0.000124   0.410202   0.410020
    14  C   -0.000000  -0.000000  -0.000001  -0.000029  -0.031289  -0.031568
    15  H   -0.001936   0.000054  -0.000000   0.000000  -0.000000   0.000000
    16  H   -0.008179   0.000000  -0.000000  -0.000000   0.000000  -0.000000
    17  H    0.007415   0.000098  -0.000000  -0.000000  -0.000000   0.000000
    18  H   -0.043976   0.000051  -0.000000   0.000000   0.000000  -0.000000
    19  H    0.585779   0.000125  -0.000000   0.000000  -0.000000   0.000000
    20  H    0.000125   0.485714  -0.005396  -0.000195   0.000003   0.000004
    21  H   -0.000000  -0.005396   0.529196  -0.001665  -0.000005  -0.000005
    22  H    0.000000  -0.000195  -0.001665   0.536934  -0.000037  -0.000039
    23  H   -0.000000   0.000003  -0.000005  -0.000037   0.603433  -0.047177
    24  H    0.000000   0.000004  -0.000005  -0.000039  -0.047177   0.603982
    25  H    0.000000  -0.000000   0.000000   0.000000   0.007558  -0.008256
    26  H   -0.000000   0.000000  -0.000000   0.000001  -0.001817  -0.001808
    27  H   -0.000000  -0.000000   0.000000   0.000000  -0.008231   0.007541
              25         26         27
     1  C   -0.000000   0.000000  -0.000000
     2  C    0.000000   0.000000   0.000000
     3  O   -0.000000   0.000000   0.000000
     4  C    0.000073   0.000038   0.000070
     5  O    0.000053   0.000019   0.000080
     6  C   -0.000494  -0.000095  -0.000460
     7  C   -0.000002  -0.000004  -0.000003
     8  C    0.000000  -0.000002   0.000001
     9  C   -0.000005   0.000015  -0.000007
    10  N   -0.000056   0.000175  -0.000062
    11  C   -0.000389   0.000477  -0.000411
    12  O    0.002262   0.004508   0.002262
    13  C   -0.029929  -0.042459  -0.029809
    14  C    0.404701   0.411193   0.404864
    15  H    0.000000  -0.000000   0.000000
    16  H    0.000000   0.000000  -0.000000
    17  H   -0.000000   0.000000   0.000000
    18  H    0.000000  -0.000000  -0.000000
    19  H    0.000000  -0.000000  -0.000000
    20  H   -0.000000   0.000000  -0.000000
    21  H    0.000000  -0.000000   0.000000
    22  H    0.000000   0.000001   0.000000
    23  H    0.007558  -0.001817  -0.008231
    24  H   -0.008256  -0.001808   0.007541
    25  H    0.551266  -0.023571  -0.023377
    26  H   -0.023571   0.564622  -0.023513
    27  H   -0.023377  -0.023513   0.549823
 Mulliken charges:
               1
     1  C   -0.330178
     2  C   -0.047129
     3  O   -0.290189
     4  C    0.373548
     5  O   -0.343027
     6  C   -0.020132
     7  C   -0.148041
     8  C   -0.130007
     9  C   -0.025310
    10  N   -0.330902
    11  C    0.311182
    12  O   -0.230940
    13  C   -0.042938
    14  C   -0.311141
    15  H    0.120915
    16  H    0.118432
    17  H    0.117856
    18  H    0.114543
    19  H    0.114706
    20  H    0.160294
    21  H    0.129914
    22  H    0.128504
    23  H    0.103316
    24  H    0.103106
    25  H    0.120166
    26  H    0.112219
    27  H    0.121231
 Sum of Mulliken charges =  -0.00000
 Mulliken charges with hydrogens summed into heavy atoms:
               1
     1  C    0.027026
     2  C    0.182121
     3  O   -0.290189
     4  C    0.373548
     5  O   -0.343027
     6  C   -0.020132
     7  C    0.012253
     8  C   -0.000093
     9  C    0.103194
    10  N   -0.330902
    11  C    0.311182
    12  O   -0.230940
    13  C    0.163484
    14  C    0.042475
 Electronic spatial extent (au):  <R**2>=           3515.2762
 Charge=             -0.0000 electrons
 Dipole moment (field-independent basis, Debye):
    X=             -1.0854    Y=              1.8052    Z=              0.0668  Tot=              2.1074
 Quadrupole moment (field-independent basis, Debye-Ang):
   XX=            -69.3788   YY=            -78.8589   ZZ=            -82.5901
   XY=             -1.1522   XZ=              0.0445   YZ=             -0.3002
 Traceless Quadrupole moment (field-independent basis, Debye-Ang):
   XX=              7.5638   YY=             -1.9163   ZZ=             -5.6475
   XY=             -1.1522   XZ=              0.0445   YZ=             -0.3002
 Octapole moment (field-independent basis, Debye-Ang**2):
  XXX=            -27.6386  YYY=             23.9818  ZZZ=             -0.1027  XYY=              5.5611
  XXY=            -27.9446  XXZ=             -0.1684  XZZ=             -3.2102  YZZ=            -10.7053
  YYZ=              0.4641  XYZ=              0.2617
 Hexadecapole moment (field-independent basis, Debye-Ang**3):
 XXXX=          -2947.4315 YYYY=          -1349.6702 ZZZZ=           -111.2228 XXXY=             12.3213
 XXXZ=              1.1646 YYYX=             22.5249 YYYZ=             -0.7070 ZZZX=              0.1032
 ZZZY=              0.6773 XXYY=           -712.6394 XXZZ=           -539.6045 YYZZ=           -270.8178
 XXYZ=             -0.4588 YYXZ=             -0.0297 ZZXY=             -2.3099
 N-N= 8.896701635110D+02 E-N=-3.342443424343D+03  KE= 6.660533837335D+02
 Breneman (CHELPG) radii used.
 Read replacement radii for each type of atom:
 Atom Element Radius
    1     6    1.50
    2     6    1.50
    3     8    1.70
    4     6    1.50
    5     8    1.70
    6     6    1.50
    7     6    1.50
    8     6    1.50
    9     6    1.50
   10     7    1.70
   11     6    1.50
   12     8    1.70
   13     6    1.50
   14     6    1.50
   15     1    1.45
   16     1    1.45
   17     1    1.45
   18     1    1.45
   19     1    1.45
   20     1    1.45
   21     1    1.45
   22     1    1.45
   23     1    1.45
   24     1    1.45
   25     1    1.45
   26     1    1.45
   27     1    1.45
 Generate Potential Derived Charges using the Breneman model, NDens= 1.
 Grid spacing= 0.300 Box extension= 2.800
 NStep X,Y,Z=   54     44     26   Total possible points=       61776
 Number of Points to Fit=   17502

 **********************************************************************

            Electrostatic Properties Using The SCF Density.

 **********************************************************************

       Atomic Center    1 is at  -4.722480 -0.373010  0.049441
       Atomic Center    2 is at  -3.391401 -1.086510 -0.004299
       Atomic Center    3 is at  -2.362730 -0.101340  0.012361
       Atomic Center    4 is at  -1.097270 -0.554040 -0.028589
       Atomic Center    5 is at  -0.831071 -1.725070 -0.073199
       Atomic Center    6 is at  -0.123160  0.577200 -0.013609
       Atomic Center    7 is at  -0.564630  1.899590 -0.014139
       Atomic Center    8 is at   0.350260  2.950289 -0.006069
       Atomic Center    9 is at   1.700340  2.624549  0.003411
       Atomic Center   10 is at   2.152050  1.372839  0.006781
       Atomic Center   11 is at   1.283590  0.370629 -0.000849
       Atomic Center   12 is at   1.747600 -0.868911  0.006571
       Atomic Center   13 is at   3.154399 -1.078631  0.019241
       Atomic Center   14 is at   3.387159 -2.572011  0.022791
       Atomic Center   15 is at  -5.541711 -1.106110  0.038931
       Atomic Center   16 is at  -4.808540  0.228100  0.966171
       Atomic Center   17 is at  -4.845280  0.294410 -0.815809
       Atomic Center   18 is at  -3.290931 -1.698540 -0.914649
       Atomic Center   19 is at  -3.255331 -1.765050  0.852631
       Atomic Center   20 is at  -1.637840  2.090800 -0.022039
       Atomic Center   21 is at   0.023420  3.990390 -0.007639
       Atomic Center   22 is at   2.462720  3.411319  0.008871
       Atomic Center   23 is at   3.605250 -0.594201 -0.861549
       Atomic Center   24 is at   3.589900 -0.592231  0.906681
       Atomic Center   25 is at   2.931349 -3.034641  0.909551
       Atomic Center   26 is at   4.466119 -2.783481  0.031641
       Atomic Center   27 is at   2.945299 -3.036401 -0.870059
   17502 points will be used for fitting atomic charges
 Fitting point charges to electrostatic potential
 Charges from ESP fit, RMS=   0.00278 RRMS=   0.22224:
 ESP charges:
               1
     1  C   -0.274873
     2  C    0.343928
     3  O   -0.434623
     4  C    0.787291
     5  O   -0.547912
     6  C   -0.512003
     7  C    0.204309
     8  C   -0.407688
     9  C    0.351097
    10  N   -0.653496
    11  C    0.835997
    12  O   -0.469572
    13  C    0.439580
    14  C   -0.276466
    15  H    0.061761
    16  H    0.080822
    17  H    0.082472
    18  H   -0.004177
    19  H   -0.001923
    20  H    0.066807
    21  H    0.145182
    22  H    0.043486
    23  H   -0.041709
    24  H   -0.042385
    25  H    0.087108
    26  H    0.049044
    27  H    0.087941
 Sum of ESP charges =  -0.00000
 ESP charges with hydrogens summed into heavy atoms:
               1
     1  C   -0.049817
     2  C    0.337829
     3  O   -0.434623
     4  C    0.787291
     5  O   -0.547912
     6  C   -0.512003
     7  C    0.271116
     8  C   -0.262506
     9  C    0.394583
    10  N   -0.653496
    11  C    0.835997
    12  O   -0.469572
    13  C    0.355486
    14  C   -0.052372
 Charge=  -0.00000 Dipole=    -1.1063     1.8494     0.0663 Tot=     2.1561
 -----------------------------------------------------------------

              Electrostatic Properties (Atomic Units)

 -----------------------------------------------------------------
    Center     Electric         -------- Electric Field --------
               Potential          X             Y             Z
 -----------------------------------------------------------------
    1 Atom    -14.768134
    2 Atom    -14.710879
    3 Atom    -22.318681
    4 Atom    -14.644341
    5 Atom    -22.388963
    6 Atom    -14.745116
    7 Atom    -14.743554
    8 Atom    -14.762590
    9 Atom    -14.723983
   10 Atom    -18.397544
   11 Atom    -14.664740
   12 Atom    -22.325077
   13 Atom    -14.718381
   14 Atom    -14.779719
   15 Atom     -1.107685
   16 Atom     -1.113856
   17 Atom     -1.113801
   18 Atom     -1.115371
   19 Atom     -1.115462
   20 Atom     -1.089677
   21 Atom     -1.092450
   22 Atom     -1.097694
   23 Atom     -1.123380
   24 Atom     -1.123391
   25 Atom     -1.125793
   26 Atom     -1.117996
   27 Atom     -1.125878
 -----------------------------------------------------------------
 Unable to Open any file for archive entry.
 1\1\GINC-NOTCH465\SP\RwB97XD\def2TZVP\C10H13N1O3\U6053008\12-Jul-2024\
 0\\#N Guess=Read Geom=Check Integral(Ultrafine) Density Pop=(ChelpG,Re
 adRadii) NMR wB97XD def2TZVP\\12326832_13\\0,1\C,0,-4.72248,-0.37301,0
 .04944\C,0,-3.3914,-1.08651,-0.0043\O,0,-2.36273,-0.10134,0.01236\C,0,
 -1.09727,-0.55404,-0.02859\O,0,-0.83107,-1.72507,-0.0732\C,0,-0.12316,
 0.5772,-0.01361\C,0,-0.56463,1.89959,-0.01414\C,0,0.35026,2.95029,-0.0
 0607\C,0,1.70034,2.62455,0.00341\N,0,2.15205,1.37284,0.00678\C,0,1.283
 59,0.37063,-0.00085\O,0,1.7476,-0.86891,0.00657\C,0,3.1544,-1.07863,0.
 01924\C,0,3.38716,-2.57201,0.02279\H,0,-5.54171,-1.10611,0.03893\H,0,-
 4.80854,0.2281,0.96617\H,0,-4.84528,0.29441,-0.81581\H,0,-3.29093,-1.6
 9854,-0.91465\H,0,-3.25533,-1.76505,0.85263\H,0,-1.63784,2.0908,-0.022
 04\H,0,0.02342,3.99039,-0.00764\H,0,2.46272,3.41132,0.00887\H,0,3.6052
 5,-0.5942,-0.86155\H,0,3.5899,-0.59223,0.90668\H,0,2.93135,-3.03464,0.
 90955\H,0,4.46612,-2.78348,0.03164\H,0,2.9453,-3.0364,-0.87006\\Versio
 n=ES64L-G16RevC.01\State=1-A\HF=-669.3640573\RMSD=3.131e-09\Dipole=-0.
 4270099,0.710204,0.0262837\Quadrupole=5.6234893,-1.424717,-4.1987723,-
 0.8566467,0.0330626,-0.2232206\PG=C01 [X(C10H13N1O3)]\\@
 The archive entry for this job was punched.


 WHEN YOU'VE SEEN ONE NUCLEAR WAR YOU'VE SEEN THEM ALL.
 Job cpu time:       0 days  0 hours 39 minutes 27.5 seconds.
 Elapsed time:       0 days  0 hours  2 minutes 37.9 seconds.
 File lengths (MBytes):  RWF=    165 Int=      0 D2E=      0 Chk=     25 Scr=      2
 Normal termination of Gaussian 16 at Fri Jul 12 13:21:18 2024.
