 Entering Gaussian System, Link 0=g16
 Input=12326192_2.com
 Output=12326192_2.log
 Initial command:
 /uufs/chpc.utah.edu/sys/installdir/gaussian16/C01/AVX/g16/l1.exe "/scratch/general/vast/u6053008/1287106-notchpeak.peaks/Gau-290038.inp" -scrdir="/scratch/general/vast/u6053008/1287106-notchpeak.peaks/"
 Entering Link 1 = /uufs/chpc.utah.edu/sys/installdir/gaussian16/C01/AVX/g16/l1.exe PID=    290039.
  
 Copyright (c) 1988-2019, Gaussian, Inc.  All Rights Reserved.
  
 This is part of the Gaussian(R) 16 program.  It is based on
 the Gaussian(R) 09 system (copyright 2009, Gaussian, Inc.),
 the Gaussian(R) 03 system (copyright 2003, Gaussian, Inc.),
 the Gaussian(R) 98 system (copyright 1998, Gaussian, Inc.),
 the Gaussian(R) 94 system (copyright 1995, Gaussian, Inc.),
 the Gaussian 92(TM) system (copyright 1992, Gaussian, Inc.),
 the Gaussian 90(TM) system (copyright 1990, Gaussian, Inc.),
 the Gaussian 88(TM) system (copyright 1988, Gaussian, Inc.),
 the Gaussian 86(TM) system (copyright 1986, Carnegie Mellon
 University), and the Gaussian 82(TM) system (copyright 1983,
 Carnegie Mellon University). Gaussian is a federally registered
 trademark of Gaussian, Inc.
  
 This software contains proprietary and confidential information,
 including trade secrets, belonging to Gaussian, Inc.
  
 This software is provided under written license and may be
 used, copied, transmitted, or stored only in accord with that
 written license.
  
 The following legend is applicable only to US Government
 contracts under FAR:
  
                    RESTRICTED RIGHTS LEGEND
  
 Use, reproduction and disclosure by the US Government is
 subject to restrictions as set forth in subparagraphs (a)
 and (c) of the Commercial Computer Software - Restricted
 Rights clause in FAR 52.227-19.
  
 Gaussian, Inc.
 340 Quinnipiac St., Bldg. 40, Wallingford CT 06492
  
  
 ---------------------------------------------------------------
 Warning -- This program may not be used in any manner that
 competes with the business of Gaussian, Inc. or will provide
 assistance to any competitor of Gaussian, Inc.  The licensee
 of this program is prohibited from giving any competitor of
 Gaussian, Inc. access to this program.  By using this program,
 the user acknowledges that Gaussian, Inc. is engaged in the
 business of creating and licensing software in the field of
 computational chemistry and represents and warrants to the
 licensee that it is not a competitor of Gaussian, Inc. and that
 it will not use this program in any manner prohibited above.
 ---------------------------------------------------------------
  

 Cite this work as:
 Gaussian 16, Revision C.01,
 M. J. Frisch, G. W. Trucks, H. B. Schlegel, G. E. Scuseria, 
 M. A. Robb, J. R. Cheeseman, G. Scalmani, V. Barone, 
 G. A. Petersson, H. Nakatsuji, X. Li, M. Caricato, A. V. Marenich, 
 J. Bloino, B. G. Janesko, R. Gomperts, B. Mennucci, H. P. Hratchian, 
 J. V. Ortiz, A. F. Izmaylov, J. L. Sonnenberg, D. Williams-Young, 
 F. Ding, F. Lipparini, F. Egidi, J. Goings, B. Peng, A. Petrone, 
 T. Henderson, D. Ranasinghe, V. G. Zakrzewski, J. Gao, N. Rega, 
 G. Zheng, W. Liang, M. Hada, M. Ehara, K. Toyota, R. Fukuda, 
 J. Hasegawa, M. Ishida, T. Nakajima, Y. Honda, O. Kitao, H. Nakai, 
 T. Vreven, K. Throssell, J. A. Montgomery, Jr., J. E. Peralta, 
 F. Ogliaro, M. J. Bearpark, J. J. Heyd, E. N. Brothers, K. N. Kudin, 
 V. N. Staroverov, T. A. Keith, R. Kobayashi, J. Normand, 
 K. Raghavachari, A. P. Rendell, J. C. Burant, S. S. Iyengar, 
 J. Tomasi, M. Cossi, J. M. Millam, M. Klene, C. Adamo, R. Cammi, 
 J. W. Ochterski, R. L. Martin, K. Morokuma, O. Farkas, 
 J. B. Foresman, and D. J. Fox, Gaussian, Inc., Wallingford CT, 2019.
 
 ******************************************
 Gaussian 16:  ES64L-G16RevC.01  3-Jul-2019
                12-Jul-2024 
 ******************************************
 %NProcShared=16
 Will use up to   16 processors via shared memory.
 %Mem=32GB
 %chk=12326192_2.chk
 ------------------------------------------------------
 #N OPT FREQ=NORAMAN Integral(Ultrafine) wB97XD def2SVP
 ------------------------------------------------------
 1/18=20,19=15,26=4,38=1/1,3;
 2/9=110,12=2,17=6,18=5,40=1/2;
 3/5=43,7=101,11=2,25=1,30=1,71=1,74=-58,75=-5/1,2,3;
 4//1;
 5/5=2,38=5/2;
 6/7=2,8=2,9=2,10=2,28=1/1;
 7//1,2,3,16;
 1/18=20,19=15,26=4/3(2);
 2/9=110/2;
 99//99;
 2/9=110/2;
 3/5=43,7=101,11=2,25=1,30=1,71=1,74=-58,75=-5/1,2,3;
 4/5=5,16=3,69=1/1;
 5/5=2,38=5/2;
 7//1,2,3,16;
 1/18=20,19=15,26=4/3(-5);
 2/9=110/2;
 6/7=2,8=2,9=2,10=2,19=2,28=1/1;
 99/9=1/99;
 ----------
 12326192_2
 ----------
 Symbolic Z-matrix:
 Charge =  0 Multiplicity = 1
 C                    -4.07005  -0.98267   0.00025 
 C                    -3.12006   0.19084  -0.00016 
 O                    -1.78382  -0.32424  -0.00016 
 C                    -0.79384   0.55235  -0.00004 
 O                    -0.97903   1.75769   0. 
 C                     0.55354  -0.05754  -0.00003 
 C                     0.75948  -1.4449   -0.00006 
 C                     2.05477  -1.93481  -0.00003 
 N                     3.1284   -1.13385   0.00003 
 C                     2.95189   0.1725    0.00007 
 C                     1.68066   0.78685   0.00004 
 O                     1.61435   2.11225   0.00006 
 H                    -3.92218  -1.60743   0.89253 
 H                    -5.10759  -0.62003   0.00023 
 H                    -3.92233  -1.60792  -0.89171 
 H                    -3.25256   0.83022  -0.88635 
 H                    -3.25238   0.8307    0.88571 
 H                    -0.09861  -2.11768  -0.00012 
 H                     2.24425  -3.01209  -0.00006 
 H                     3.83665   0.8181    0.00011 
 H                     0.66563   2.36189   0. 
 

 GradGradGradGradGradGradGradGradGradGradGradGradGradGradGradGradGradGrad
 Berny optimization.
 Initialization pass.
                           ----------------------------
                           !    Initial Parameters    !
                           ! (Angstroms and Degrees)  !
 --------------------------                            --------------------------
 ! Name  Definition              Value          Derivative Info.                !
 --------------------------------------------------------------------------------
 ! R1    R(1,2)                  1.5098         estimate D2E/DX2                !
 ! R2    R(1,13)                 1.0993         estimate D2E/DX2                !
 ! R3    R(1,14)                 1.0991         estimate D2E/DX2                !
 ! R4    R(1,15)                 1.0993         estimate D2E/DX2                !
 ! R5    R(2,3)                  1.4321         estimate D2E/DX2                !
 ! R6    R(2,16)                 1.1008         estimate D2E/DX2                !
 ! R7    R(2,17)                 1.1008         estimate D2E/DX2                !
 ! R8    R(3,4)                  1.3223         estimate D2E/DX2                !
 ! R9    R(4,5)                  1.2195         estimate D2E/DX2                !
 ! R10   R(4,6)                  1.479          estimate D2E/DX2                !
 ! R11   R(6,7)                  1.4026         estimate D2E/DX2                !
 ! R12   R(6,11)                 1.4083         estimate D2E/DX2                !
 ! R13   R(7,8)                  1.3848         estimate D2E/DX2                !
 ! R14   R(7,18)                 1.0904         estimate D2E/DX2                !
 ! R15   R(8,9)                  1.3395         estimate D2E/DX2                !
 ! R16   R(8,19)                 1.0938         estimate D2E/DX2                !
 ! R17   R(9,10)                 1.3182         estimate D2E/DX2                !
 ! R18   R(10,11)                1.4119         estimate D2E/DX2                !
 ! R19   R(10,20)                1.0953         estimate D2E/DX2                !
 ! R20   R(11,12)                1.3271         estimate D2E/DX2                !
 ! R21   R(12,21)                0.981          estimate D2E/DX2                !
 ! A1    A(2,1,13)             110.9362         estimate D2E/DX2                !
 ! A2    A(2,1,14)             109.7257         estimate D2E/DX2                !
 ! A3    A(2,1,15)             110.9357         estimate D2E/DX2                !
 ! A4    A(13,1,14)            108.3322         estimate D2E/DX2                !
 ! A5    A(13,1,15)            108.4994         estimate D2E/DX2                !
 ! A6    A(14,1,15)            108.3315         estimate D2E/DX2                !
 ! A7    A(1,2,3)              107.911          estimate D2E/DX2                !
 ! A8    A(1,2,16)             112.0825         estimate D2E/DX2                !
 ! A9    A(1,2,17)             112.0828         estimate D2E/DX2                !
 ! A10   A(3,2,16)             108.7373         estimate D2E/DX2                !
 ! A11   A(3,2,17)             108.7376         estimate D2E/DX2                !
 ! A12   A(16,2,17)            107.2047         estimate D2E/DX2                !
 ! A13   A(2,3,4)              117.3962         estimate D2E/DX2                !
 ! A14   A(3,4,5)              122.789          estimate D2E/DX2                !
 ! A15   A(3,4,6)              114.1225         estimate D2E/DX2                !
 ! A16   A(5,4,6)              123.0885         estimate D2E/DX2                !
 ! A17   A(4,6,7)              122.7972         estimate D2E/DX2                !
 ! A18   A(4,6,11)             118.8072         estimate D2E/DX2                !
 ! A19   A(7,6,11)             118.3956         estimate D2E/DX2                !
 ! A20   A(6,7,8)              119.1612         estimate D2E/DX2                !
 ! A21   A(6,7,18)             119.6547         estimate D2E/DX2                !
 ! A22   A(8,7,18)             121.1842         estimate D2E/DX2                !
 ! A23   A(7,8,9)              122.5581         estimate D2E/DX2                !
 ! A24   A(7,8,19)             120.6934         estimate D2E/DX2                !
 ! A25   A(9,8,19)             116.7485         estimate D2E/DX2                !
 ! A26   A(8,9,10)             119.029          estimate D2E/DX2                !
 ! A27   A(9,10,11)            123.4882         estimate D2E/DX2                !
 ! A28   A(9,10,20)            118.4228         estimate D2E/DX2                !
 ! A29   A(11,10,20)           118.089          estimate D2E/DX2                !
 ! A30   A(6,11,10)            117.3678         estimate D2E/DX2                !
 ! A31   A(6,11,12)            123.9748         estimate D2E/DX2                !
 ! A32   A(10,11,12)           118.6573         estimate D2E/DX2                !
 ! A33   A(11,12,21)           107.6064         estimate D2E/DX2                !
 ! D1    D(13,1,2,3)            60.3365         estimate D2E/DX2                !
 ! D2    D(13,1,2,16)         -179.9647         estimate D2E/DX2                !
 ! D3    D(13,1,2,17)          -59.3629         estimate D2E/DX2                !
 ! D4    D(14,1,2,3)          -179.9983         estimate D2E/DX2                !
 ! D5    D(14,1,2,16)          -60.2995         estimate D2E/DX2                !
 ! D6    D(14,1,2,17)           60.3023         estimate D2E/DX2                !
 ! D7    D(15,1,2,3)           -60.3343         estimate D2E/DX2                !
 ! D8    D(15,1,2,16)           59.3645         estimate D2E/DX2                !
 ! D9    D(15,1,2,17)          179.9664         estimate D2E/DX2                !
 ! D10   D(1,2,3,4)           -179.9778         estimate D2E/DX2                !
 ! D11   D(16,2,3,4)            58.2304         estimate D2E/DX2                !
 ! D12   D(17,2,3,4)           -58.1855         estimate D2E/DX2                !
 ! D13   D(2,3,4,5)             -0.0038         estimate D2E/DX2                !
 ! D14   D(2,3,4,6)            179.9992         estimate D2E/DX2                !
 ! D15   D(3,4,6,7)             -0.0038         estimate D2E/DX2                !
 ! D16   D(3,4,6,11)           179.9975         estimate D2E/DX2                !
 ! D17   D(5,4,6,7)            179.9992         estimate D2E/DX2                !
 ! D18   D(5,4,6,11)             0.0005         estimate D2E/DX2                !
 ! D19   D(4,6,7,8)           -179.9991         estimate D2E/DX2                !
 ! D20   D(4,6,7,18)             0.0017         estimate D2E/DX2                !
 ! D21   D(11,6,7,8)            -0.0005         estimate D2E/DX2                !
 ! D22   D(11,6,7,18)         -179.9996         estimate D2E/DX2                !
 ! D23   D(4,6,11,10)          179.999          estimate D2E/DX2                !
 ! D24   D(4,6,11,12)           -0.002          estimate D2E/DX2                !
 ! D25   D(7,6,11,10)            0.0002         estimate D2E/DX2                !
 ! D26   D(7,6,11,12)          179.9993         estimate D2E/DX2                !
 ! D27   D(6,7,8,9)              0.0002         estimate D2E/DX2                !
 ! D28   D(6,7,8,19)          -179.9995         estimate D2E/DX2                !
 ! D29   D(18,7,8,9)           179.9993         estimate D2E/DX2                !
 ! D30   D(18,7,8,19)           -0.0004         estimate D2E/DX2                !
 ! D31   D(7,8,9,10)             0.0004         estimate D2E/DX2                !
 ! D32   D(19,8,9,10)         -179.9999         estimate D2E/DX2                !
 ! D33   D(8,9,10,11)           -0.0006         estimate D2E/DX2                !
 ! D34   D(8,9,10,20)         -179.9995         estimate D2E/DX2                !
 ! D35   D(9,10,11,6)            0.0003         estimate D2E/DX2                !
 ! D36   D(9,10,11,12)        -179.9988         estimate D2E/DX2                !
 ! D37   D(20,10,11,6)         179.9991         estimate D2E/DX2                !
 ! D38   D(20,10,11,12)          0.0001         estimate D2E/DX2                !
 ! D39   D(6,11,12,21)          -0.0011         estimate D2E/DX2                !
 ! D40   D(10,11,12,21)        179.9979         estimate D2E/DX2                !
 --------------------------------------------------------------------------------
 Trust Radius=3.00D-01 FncErr=1.00D-07 GrdErr=1.00D-06 EigMax=2.50D+02 EigMin=1.00D-04
 Number of steps in this run=    104 maximum allowed number of steps=    126.
 GradGradGradGradGradGradGradGradGradGradGradGradGradGradGradGradGradGrad

                          Input orientation:                          
 ---------------------------------------------------------------------
 Center     Atomic      Atomic             Coordinates (Angstroms)
 Number     Number       Type             X           Y           Z
 ---------------------------------------------------------------------
      1          6           0       -4.070050   -0.982670    0.000250
      2          6           0       -3.120060    0.190840   -0.000160
      3          8           0       -1.783820   -0.324240   -0.000160
      4          6           0       -0.793840    0.552350   -0.000040
      5          8           0       -0.979030    1.757690    0.000000
      6          6           0        0.553540   -0.057540   -0.000030
      7          6           0        0.759480   -1.444900   -0.000060
      8          6           0        2.054770   -1.934810   -0.000030
      9          7           0        3.128400   -1.133850    0.000030
     10          6           0        2.951890    0.172500    0.000070
     11          6           0        1.680660    0.786850    0.000040
     12          8           0        1.614350    2.112250    0.000060
     13          1           0       -3.922180   -1.607430    0.892530
     14          1           0       -5.107590   -0.620030    0.000230
     15          1           0       -3.922330   -1.607920   -0.891710
     16          1           0       -3.252560    0.830220   -0.886350
     17          1           0       -3.252380    0.830700    0.885710
     18          1           0       -0.098610   -2.117680   -0.000120
     19          1           0        2.244250   -3.012090   -0.000060
     20          1           0        3.836650    0.818100    0.000110
     21          1           0        0.665630    2.361890    0.000000
 ---------------------------------------------------------------------
                    Distance matrix (angstroms):
                    1          2          3          4          5
     1  C    0.000000
     2  C    1.509837   0.000000
     3  O    2.379155   1.432077   0.000000
     4  C    3.617988   2.354143   1.322297   0.000000
     5  O    4.130857   2.653117   2.232066   1.219483   0.000000
     6  C    4.715236   3.681987   2.352526   1.478986   2.375675
     7  C    4.851599   4.210282   2.779254   2.530180   3.644036
     8  C    6.198386   5.594395   4.162777   3.781606   4.778964
     9  N    7.200037   6.387336   4.978491   4.269337   5.023145
    10  C    7.116323   6.071978   4.761691   3.764941   4.238509
    11  C    6.016799   4.837576   3.638288   2.485587   2.831339
    12  O    6.472321   5.109448   4.181392   2.869262   2.617505
    13  H    1.099252   2.161959   2.648784   3.904849   4.558813
    14  H    1.099089   2.146575   3.336906   4.470225   4.764301
    15  H    1.099250   2.161952   2.648758   3.905034   4.559111
    16  H    2.177365   1.100771   2.067682   2.628319   2.610509
    17  H    2.177369   1.100770   2.067685   2.628013   2.609964
    18  H    4.130446   3.802424   2.460967   2.759059   3.974120
    19  H    6.632415   6.247766   4.842508   4.683505   5.756764
    20  H    8.109172   6.984932   5.735383   4.638110   4.906486
    21  H    5.797650   4.364047   3.635258   2.324755   1.752131
                    6          7          8          9         10
     6  C    0.000000
     7  C    1.402562   0.000000
     8  C    2.403713   1.384842   0.000000
     9  N    2.790761   2.389254   1.339484   0.000000
    10  C    2.409357   2.724453   2.290323   1.318221   0.000000
    11  C    1.408330   2.414390   2.747252   2.405211   1.411896
    12  O    2.415224   3.658431   4.070954   3.581831   2.356193
    13  H    4.819844   4.768760   6.052088   7.122606   7.156638
    14  H    5.689006   5.924772   7.282036   8.252002   8.098353
    15  H    4.819978   4.768748   6.052080   7.122692   7.156820
    16  H    4.007503   4.696610   6.049686   6.734975   6.301868
    17  H    4.007310   4.696591   6.049663   6.734853   6.301631
    18  H    2.160897   1.090390   2.161131   3.373650   3.814508
    19  H    3.404095   2.158848   1.093817   2.075935   3.262264
    20  H    3.397875   3.819705   3.279270   2.076470   1.095262
    21  H    2.422025   3.807947   4.515677   4.276147   3.165504
                   11         12         13         14         15
    11  C    0.000000
    12  O    1.327058   0.000000
    13  H    6.157997   6.729464   0.000000
    14  H    6.932507   7.256020   1.782233   0.000000
    15  H    6.158217   6.729766   1.784240   1.782225   0.000000
    16  H    5.012407   5.110395   3.091107   2.516026   2.528467
    17  H    5.012107   5.109971   2.528469   2.516048   3.091104
    18  H    3.406185   4.563610   3.959402   5.228082   3.959245
    19  H    3.840518   5.162909   6.387069   7.731203   6.386974
    20  H    2.156216   2.571661   8.177961   9.059120   8.178184
    21  H    1.873776   0.981015   6.131893   6.497839   6.132203
                   16         17         18         19         20
    16  H    0.000000
    17  H    1.772060   0.000000
    18  H    4.407144   4.407256   0.000000
    19  H    6.764893   6.764951   2.507780   0.000000
    20  H    7.144428   7.144144   4.909692   4.148023   0.000000
    21  H    4.299284   4.298817   4.544294   5.601045   3.526848
                   21
    21  H    0.000000
 Stoichiometry    C8H9NO3
 Framework group  C1[X(C8H9NO3)]
 Deg. of freedom    57
 Full point group                 C1      NOp   1
 Largest Abelian subgroup         C1      NOp   1
 Largest concise Abelian subgroup C1      NOp   1
                         Standard orientation:                         
 ---------------------------------------------------------------------
 Center     Atomic      Atomic             Coordinates (Angstroms)
 Number     Number       Type             X           Y           Z
 ---------------------------------------------------------------------
      1          6           0       -4.070051   -0.982667    0.000250
      2          6           0       -3.120060    0.190842   -0.000160
      3          8           0       -1.783821   -0.324240   -0.000160
      4          6           0       -0.793840    0.552349   -0.000040
      5          8           0       -0.979028    1.757689    0.000000
      6          6           0        0.553540   -0.057542   -0.000030
      7          6           0        0.759478   -1.444902   -0.000060
      8          6           0        2.054768   -1.934814   -0.000030
      9          7           0        3.128399   -1.133855    0.000030
     10          6           0        2.951890    0.172496    0.000070
     11          6           0        1.680661    0.786847    0.000040
     12          8           0        1.614352    2.112247    0.000060
     13          1           0       -3.922182   -1.607428    0.892530
     14          1           0       -5.107591   -0.620026    0.000230
     15          1           0       -3.922332   -1.607918   -0.891710
     16          1           0       -3.252559    0.830222   -0.886350
     17          1           0       -3.252379    0.830702    0.885710
     18          1           0       -0.098612   -2.117681   -0.000120
     19          1           0        2.244247   -3.012094   -0.000060
     20          1           0        3.836651    0.818095    0.000110
     21          1           0        0.665632    2.361888    0.000000
 ---------------------------------------------------------------------
 Rotational constants (GHZ):           1.9153551           0.5814431           0.4485624
 Standard basis: def2SVP (5D, 7F)
 There are   225 symmetry adapted cartesian basis functions of A   symmetry.
 There are   213 symmetry adapted basis functions of A   symmetry.
   213 basis functions,   363 primitive gaussians,   225 cartesian basis functions
    44 alpha electrons       44 beta electrons
       nuclear repulsion energy       686.6510874901 Hartrees.
 NAtoms=   21 NActive=   21 NUniq=   21 SFac= 1.00D+00 NAtFMM=   60 NAOKFM=F Big=F
 Integral buffers will be    131072 words long.
 Raffenetti 2 integral format.
 Two-electron integral symmetry is turned on.
 Nuclear repulsion after empirical dispersion term =      686.6413551468 Hartrees.
 One-electron integrals computed using PRISM.
   1 Symmetry operations used in ECPInt.
 ECPInt:  NShTT=    4950 NPrTT=   18138 LenC2=    4718 LenP2D=   12802.
 LDataN:  DoStor=T MaxTD1= 4 Len=   56
 NBasis=   213 RedAO= T EigKep=  5.76D-04  NBF=   213
 NBsUse=   213 1.00D-06 EigRej= -1.00D+00 NBFU=   213
 ExpMin= 1.22D-01 ExpMax= 2.27D+03 ExpMxC= 3.41D+02 IAcc=3 IRadAn=         5 AccDes= 0.00D+00
 Harris functional with IExCor= 4639 and IRadAn=       5 diagonalized for initial guess.
 HarFok:  IExCor= 4639 AccDes= 0.00D+00 IRadAn=         5 IDoV= 1 UseB2=F ITyADJ=14
 ICtDFT=  3500011 ScaDFX=  1.000000  1.000000  1.000000  1.000000
 FoFCou: FMM=F IPFlag=           0 FMFlag=      100000 FMFlg1=           0
         NFxFlg=           0 DoJE=T BraDBF=F KetDBF=T FulRan=T
         wScrn=  0.000000 ICntrl=       500 IOpCl=  0 I1Cent=   200000004 NGrid=           0
         NMat0=    1 NMatS0=      1 NMatT0=    0 NMatD0=    1 NMtDS0=    0 NMtDT0=    0
 Petite list used in FoFCou.
 Requested convergence on RMS density matrix=1.00D-08 within 128 cycles.
 Requested convergence on MAX density matrix=1.00D-06.
 Requested convergence on             energy=1.00D-06.
 No special actions if energy rises.
 Integral accuracy reduced to 1.0D-05 until final iterations.
 Initial convergence to 1.0D-05 achieved.  Increase integral accuracy.
 SCF Done:  E(RwB97XD) =  -590.090772327     A.U. after   16 cycles
            NFock= 16  Conv=0.64D-08     -V/T= 2.0093

 **********************************************************************

            Population analysis using the SCF Density.

 **********************************************************************

 Orbital symmetries:
       Occupied  (A) (A) (A) (A) (A) (A) (A) (A) (A) (A) (A) (A)
                 (A) (A) (A) (A) (A) (A) (A) (A) (A) (A) (A) (A)
                 (A) (A) (A) (A) (A) (A) (A) (A) (A) (A) (A) (A)
                 (A) (A) (A) (A) (A) (A) (A) (A)
       Virtual   (A) (A) (A) (A) (A) (A) (A) (A) (A) (A) (A) (A)
                 (A) (A) (A) (A) (A) (A) (A) (A) (A) (A) (A) (A)
                 (A) (A) (A) (A) (A) (A) (A) (A) (A) (A) (A) (A)
                 (A) (A) (A) (A) (A) (A) (A) (A) (A) (A) (A) (A)
                 (A) (A) (A) (A) (A) (A) (A) (A) (A) (A) (A) (A)
                 (A) (A) (A) (A) (A) (A) (A) (A) (A) (A) (A) (A)
                 (A) (A) (A) (A) (A) (A) (A) (A) (A) (A) (A) (A)
                 (A) (A) (A) (A) (A) (A) (A) (A) (A) (A) (A) (A)
                 (A) (A) (A) (A) (A) (A) (A) (A) (A) (A) (A) (A)
                 (A) (A) (A) (A) (A) (A) (A) (A) (A) (A) (A) (A)
                 (A) (A) (A) (A) (A) (A) (A) (A) (A) (A) (A) (A)
                 (A) (A) (A) (A) (A) (A) (A) (A) (A) (A) (A) (A)
                 (A) (A) (A) (A) (A) (A) (A) (A) (A) (A) (A) (A)
                 (A) (A) (A) (A) (A) (A) (A) (A) (A) (A) (A) (A)
                 (A)
 The electronic state is 1-A.
 Alpha  occ. eigenvalues --  -19.32624 -19.29006 -19.27332 -14.45025 -10.45626
 Alpha  occ. eigenvalues --  -10.38414 -10.37463 -10.33546 -10.33237 -10.33229
 Alpha  occ. eigenvalues --  -10.32461 -10.31336  -1.23229  -1.17174  -1.13240
 Alpha  occ. eigenvalues --   -1.04491  -0.92556  -0.88390  -0.85610  -0.78809
 Alpha  occ. eigenvalues --   -0.74468  -0.72574  -0.68801  -0.65279  -0.62547
 Alpha  occ. eigenvalues --   -0.61091  -0.60213  -0.58371  -0.55270  -0.54745
 Alpha  occ. eigenvalues --   -0.53629  -0.51698  -0.50471  -0.50105  -0.49401
 Alpha  occ. eigenvalues --   -0.46511  -0.46163  -0.45786  -0.45184  -0.41133
 Alpha  occ. eigenvalues --   -0.39483  -0.37510  -0.34122  -0.31625
 Alpha virt. eigenvalues --   -0.00268   0.05947   0.11308   0.13144   0.16429
 Alpha virt. eigenvalues --    0.17361   0.18173   0.19084   0.19982   0.20487
 Alpha virt. eigenvalues --    0.20761   0.22804   0.23328   0.24603   0.28019
 Alpha virt. eigenvalues --    0.28399   0.30045   0.32814   0.33675   0.36124
 Alpha virt. eigenvalues --    0.38525   0.41551   0.43340   0.43410   0.47908
 Alpha virt. eigenvalues --    0.48404   0.48611   0.48922   0.51295   0.51987
 Alpha virt. eigenvalues --    0.53928   0.55747   0.56381   0.57926   0.58269
 Alpha virt. eigenvalues --    0.61039   0.63298   0.63508   0.65476   0.67683
 Alpha virt. eigenvalues --    0.67926   0.69935   0.70746   0.70934   0.72367
 Alpha virt. eigenvalues --    0.72578   0.73114   0.73853   0.74564   0.76113
 Alpha virt. eigenvalues --    0.76128   0.77261   0.77776   0.78435   0.80246
 Alpha virt. eigenvalues --    0.82565   0.84311   0.86103   0.88840   0.91661
 Alpha virt. eigenvalues --    0.93596   0.98414   0.98652   1.02866   1.03330
 Alpha virt. eigenvalues --    1.06364   1.09543   1.09796   1.14794   1.15598
 Alpha virt. eigenvalues --    1.19022   1.20908   1.23366   1.24708   1.28073
 Alpha virt. eigenvalues --    1.30400   1.32601   1.32686   1.34254   1.37218
 Alpha virt. eigenvalues --    1.38639   1.39561   1.42451   1.42596   1.44358
 Alpha virt. eigenvalues --    1.46207   1.51277   1.58106   1.59845   1.59998
 Alpha virt. eigenvalues --    1.62353   1.65697   1.66982   1.69703   1.74835
 Alpha virt. eigenvalues --    1.76281   1.79072   1.79624   1.81909   1.82345
 Alpha virt. eigenvalues --    1.83022   1.84200   1.84677   1.85357   1.87479
 Alpha virt. eigenvalues --    1.87514   1.88826   1.91338   1.91788   1.92813
 Alpha virt. eigenvalues --    1.96760   1.98047   1.98366   2.02125   2.04652
 Alpha virt. eigenvalues --    2.05112   2.07736   2.11041   2.13439   2.17861
 Alpha virt. eigenvalues --    2.20177   2.22857   2.23603   2.27539   2.27945
 Alpha virt. eigenvalues --    2.33678   2.36885   2.36992   2.39690   2.44549
 Alpha virt. eigenvalues --    2.44906   2.47524   2.48047   2.51202   2.53954
 Alpha virt. eigenvalues --    2.55394   2.61370   2.63848   2.67874   2.68193
 Alpha virt. eigenvalues --    2.69206   2.72672   2.75582   2.80510   2.84728
 Alpha virt. eigenvalues --    2.89189   2.90490   2.90747   2.96044   2.96731
 Alpha virt. eigenvalues --    2.98598   3.01539   3.01671   3.02930   3.04794
 Alpha virt. eigenvalues --    3.07475   3.09542   3.12728   3.20046   3.26755
 Alpha virt. eigenvalues --    3.27776   3.28477   3.42412   3.50020   3.54822
 Alpha virt. eigenvalues --    3.62878   3.74289   3.80000   3.92699
          Condensed to atoms (all electrons):
               1          2          3          4          5          6
     1  C    4.582449   0.417948  -0.042933   0.004634   0.001157   0.000798
     2  C    0.417948   4.489290   0.246064  -0.031550  -0.003378   0.009127
     3  O   -0.042933   0.246064   7.907342   0.445665  -0.074853  -0.143413
     4  C    0.004634  -0.031550   0.445665   4.521678   0.649138   0.223282
     5  O    0.001157  -0.003378  -0.074853   0.649138   7.793629  -0.107343
     6  C    0.000798   0.009127  -0.143413   0.223282  -0.107343   5.799650
     7  C   -0.000374  -0.000388   0.016022  -0.041935   0.003591   0.360027
     8  C   -0.000001  -0.000006   0.000571   0.010127  -0.000047  -0.016880
     9  N    0.000000   0.000000  -0.000001   0.000423  -0.000001  -0.050251
    10  C   -0.000000   0.000004  -0.000002   0.008639   0.000628  -0.074080
    11  C    0.000017  -0.000017  -0.000067  -0.072225  -0.000333   0.270050
    12  O    0.000000   0.000007  -0.000040  -0.005189  -0.025598  -0.088435
    13  H    0.392108  -0.018950   0.001409  -0.000081  -0.000029  -0.000153
    14  H    0.383128  -0.013230   0.003127   0.000006   0.000020   0.000007
    15  H    0.392096  -0.018941   0.001408  -0.000081  -0.000029  -0.000153
    16  H   -0.025943   0.399356  -0.027513  -0.003865   0.007846   0.000523
    17  H   -0.025950   0.399355  -0.027513  -0.003870   0.007860   0.000525
    18  H   -0.000194  -0.000417   0.010856  -0.018124   0.000195  -0.048165
    19  H   -0.000000   0.000000  -0.000018  -0.000238   0.000001   0.007301
    20  H   -0.000000  -0.000000   0.000001  -0.000194   0.000015   0.013660
    21  H   -0.000001   0.000039   0.000928   0.002687   0.054827  -0.032851
               7          8          9         10         11         12
     1  C   -0.000374  -0.000001   0.000000  -0.000000   0.000017   0.000000
     2  C   -0.000388  -0.000006   0.000000   0.000004  -0.000017   0.000007
     3  O    0.016022   0.000571  -0.000001  -0.000002  -0.000067  -0.000040
     4  C   -0.041935   0.010127   0.000423   0.008639  -0.072225  -0.005189
     5  O    0.003591  -0.000047  -0.000001   0.000628  -0.000333  -0.025598
     6  C    0.360027  -0.016880  -0.050251  -0.074080   0.270050  -0.088435
     7  C    4.931061   0.465293  -0.038513  -0.037572  -0.006700   0.002942
     8  C    0.465293   4.754695   0.505568  -0.074978  -0.057477   0.000299
     9  N   -0.038513   0.505568   6.242158   0.544524  -0.023102   0.001800
    10  C   -0.037572  -0.074978   0.544524   4.824397   0.453988  -0.062155
    11  C   -0.006700  -0.057477  -0.023102   0.453988   4.926866   0.469502
    12  O    0.002942   0.000299   0.001800  -0.062155   0.469502   7.557518
    13  H    0.000024   0.000001   0.000000   0.000000  -0.000001  -0.000000
    14  H    0.000004   0.000000  -0.000000   0.000000  -0.000000   0.000000
    15  H    0.000024   0.000001   0.000000   0.000000  -0.000001  -0.000000
    16  H    0.000045   0.000003  -0.000000  -0.000001  -0.000001   0.000000
    17  H    0.000045   0.000003  -0.000000  -0.000001  -0.000001   0.000000
    18  H    0.421586  -0.039312   0.005606  -0.000084   0.010657  -0.000034
    19  H   -0.066231   0.426350  -0.038270   0.003408   0.001437   0.000010
    20  H    0.000193   0.004243  -0.036190   0.413265  -0.066962   0.004427
    21  H   -0.000274  -0.000043  -0.000146   0.005490  -0.005112   0.337605
              13         14         15         16         17         18
     1  C    0.392108   0.383128   0.392096  -0.025943  -0.025950  -0.000194
     2  C   -0.018950  -0.013230  -0.018941   0.399356   0.399355  -0.000417
     3  O    0.001409   0.003127   0.001408  -0.027513  -0.027513   0.010856
     4  C   -0.000081   0.000006  -0.000081  -0.003865  -0.003870  -0.018124
     5  O   -0.000029   0.000020  -0.000029   0.007846   0.007860   0.000195
     6  C   -0.000153   0.000007  -0.000153   0.000523   0.000525  -0.048165
     7  C    0.000024   0.000004   0.000024   0.000045   0.000045   0.421586
     8  C    0.000001   0.000000   0.000001   0.000003   0.000003  -0.039312
     9  N    0.000000  -0.000000   0.000000  -0.000000  -0.000000   0.005606
    10  C    0.000000   0.000000   0.000000  -0.000001  -0.000001  -0.000084
    11  C   -0.000001  -0.000000  -0.000001  -0.000001  -0.000001   0.010657
    12  O   -0.000000   0.000000  -0.000000   0.000000   0.000000  -0.000034
    13  H    0.612641  -0.016732  -0.023863   0.007074  -0.009862   0.000149
    14  H   -0.016732   0.613464  -0.016732  -0.002431  -0.002431   0.000004
    15  H   -0.023863  -0.016732   0.612648  -0.009862   0.007074   0.000149
    16  H    0.007074  -0.002431  -0.009862   0.635654  -0.034986   0.000069
    17  H   -0.009862  -0.002431   0.007074  -0.034986   0.635644   0.000070
    18  H    0.000149   0.000004   0.000149   0.000069   0.000070   0.627738
    19  H   -0.000000  -0.000000  -0.000000  -0.000000  -0.000000  -0.005587
    20  H    0.000000  -0.000000   0.000000  -0.000000  -0.000000   0.000058
    21  H    0.000000  -0.000000   0.000000  -0.000003  -0.000003  -0.000035
              19         20         21
     1  C   -0.000000  -0.000000  -0.000001
     2  C    0.000000  -0.000000   0.000039
     3  O   -0.000018   0.000001   0.000928
     4  C   -0.000238  -0.000194   0.002687
     5  O    0.000001   0.000015   0.054827
     6  C    0.007301   0.013660  -0.032851
     7  C   -0.066231   0.000193  -0.000274
     8  C    0.426350   0.004243  -0.000043
     9  N   -0.038270  -0.036190  -0.000146
    10  C    0.003408   0.413265   0.005490
    11  C    0.001437  -0.066962  -0.005112
    12  O    0.000010   0.004427   0.337605
    13  H   -0.000000   0.000000   0.000000
    14  H   -0.000000  -0.000000  -0.000000
    15  H   -0.000000   0.000000   0.000000
    16  H   -0.000000  -0.000000  -0.000003
    17  H   -0.000000  -0.000000  -0.000003
    18  H   -0.005587   0.000058  -0.000035
    19  H    0.635875  -0.000198  -0.000001
    20  H   -0.000198   0.628877  -0.000271
    21  H   -0.000001  -0.000271   0.430325
 Mulliken charges:
               1
     1  C   -0.078941
     2  C    0.125687
     3  O   -0.317040
     4  C    0.311071
     5  O   -0.307296
     6  C   -0.123228
     7  C   -0.008871
     8  C    0.021589
     9  N   -0.113605
    10  C   -0.005471
    11  C    0.099482
    12  O   -0.192661
    13  H    0.056263
    14  H    0.051796
    15  H    0.056261
    16  H    0.054033
    17  H    0.054040
    18  H    0.034815
    19  H    0.036161
    20  H    0.039076
    21  H    0.206840
 Sum of Mulliken charges =  -0.00000
 Mulliken charges with hydrogens summed into heavy atoms:
               1
     1  C    0.085379
     2  C    0.233760
     3  O   -0.317040
     4  C    0.311071
     5  O   -0.307296
     6  C   -0.123228
     7  C    0.025944
     8  C    0.057750
     9  N   -0.113605
    10  C    0.033605
    11  C    0.099482
    12  O    0.014179
 Electronic spatial extent (au):  <R**2>=           2401.3695
 Charge=             -0.0000 electrons
 Dipole moment (field-independent basis, Debye):
    X=             -4.2617    Y=             -1.0626    Z=             -0.0001  Tot=              4.3922
 Quadrupole moment (field-independent basis, Debye-Ang):
   XX=            -68.0003   YY=            -71.1560   ZZ=            -69.3661
   XY=              3.1391   XZ=              0.0001   YZ=             -0.0002
 Traceless Quadrupole moment (field-independent basis, Debye-Ang):
   XX=              1.5071   YY=             -1.6485   ZZ=              0.1414
   XY=              3.1391   XZ=              0.0001   YZ=             -0.0002
 Octapole moment (field-independent basis, Debye-Ang**2):
  XXX=            -82.8836  YYY=             -5.5533  ZZZ=             -0.0005  XYY=             -6.3932
  XXY=             17.6159  XXZ=             -0.0012  XZZ=             -8.2394  YZZ=              6.6699
  YYZ=             -0.0015  XYZ=              0.0004
 Hexadecapole moment (field-independent basis, Debye-Ang**3):
 XXXX=          -2302.0973 YYYY=           -676.4834 ZZZZ=            -79.0853 XXXY=             85.2227
 XXXZ=              0.0070 YYYX=            -10.2807 YYYZ=              0.0027 ZZZX=              0.0021
 ZZZY=             -0.0013 XXYY=           -541.5867 XXZZ=           -407.1114 YYZZ=           -132.2618
 XXYZ=              0.0017 YYXZ=             -0.0006 ZZXY=              5.1162
 N-N= 6.866413551468D+02 E-N=-2.749205211143D+03  KE= 5.846379625964D+02
   1 Symmetry operations used in ECPInt.
 ECPInt:  NShTT=    4950 NPrTT=   18138 LenC2=    4718 LenP2D=   12802.
 LDataN:  DoStor=T MaxTD1= 5 Len=  102
 Calling FoFJK, ICntrl=      2127 FMM=F ISym2X=0 I1Cent= 0 IOpClX= 0 NMat=1 NMatS=1 NMatT=0.
 ***** Axes restored to original set *****
 -------------------------------------------------------------------
 Center     Atomic                   Forces (Hartrees/Bohr)
 Number     Number              X              Y              Z
 -------------------------------------------------------------------
      1        6          -0.000006709   -0.000016261   -0.000001724
      2        6          -0.000007911    0.000035251    0.000003100
      3        8           0.000020427   -0.000006645    0.000003846
      4        6           0.000011955   -0.000055863   -0.000009213
      5        8          -0.000004142    0.000034482    0.000001586
      6        6          -0.000001260    0.000060656    0.000003991
      7        6           0.000030513   -0.000012212   -0.000000917
      8        6          -0.000066025   -0.000008842   -0.000000435
      9        7           0.000044139    0.000070617    0.000001207
     10        6           0.000023218   -0.000083156   -0.000001548
     11        6          -0.000057529   -0.000001222   -0.000001508
     12        8           0.000013768   -0.000007574   -0.000000419
     13        1           0.000008328   -0.000005944    0.000014821
     14        1          -0.000016369    0.000016121    0.000000512
     15        1           0.000008223   -0.000007430   -0.000015266
     16        1           0.000004388   -0.000003618   -0.000006133
     17        1           0.000003596   -0.000004587    0.000004866
     18        1          -0.000028551   -0.000006870    0.000000560
     19        1           0.000018335   -0.000012923    0.000000020
     20        1           0.000018517    0.000009231    0.000000513
     21        1          -0.000016912    0.000006790    0.000002140
 -------------------------------------------------------------------
 Cartesian Forces:  Max     0.000083156 RMS     0.000024331

 GradGradGradGradGradGradGradGradGradGradGradGradGradGradGradGradGradGrad
 Berny optimization.
 FormGI is forming the generalized inverse of G from B-inverse, IUseBI=4.
 Internal  Forces:  Max     0.000049315 RMS     0.000012886
 Search for a local minimum.
 Step number   1 out of a maximum of  104
 All quantities printed in internal units (Hartrees-Bohrs-Radians)
 Mixed Optimization -- En-DIIS/RFO-DIIS
 Second derivative matrix not updated -- first step.
 ITU=  0
     Eigenvalues ---    0.00636   0.01044   0.01267   0.01600   0.01718
     Eigenvalues ---    0.01983   0.02092   0.02173   0.02195   0.02209
     Eigenvalues ---    0.02354   0.02519   0.02657   0.02720   0.05364
     Eigenvalues ---    0.05712   0.05716   0.05859   0.11363   0.13656
     Eigenvalues ---    0.16000   0.16000   0.16000   0.16000   0.16000
     Eigenvalues ---    0.16000   0.16000   0.21915   0.22338   0.23256
     Eigenvalues ---    0.24575   0.25000   0.25000   0.25000   0.25000
     Eigenvalues ---    0.25000   0.31367   0.33597   0.33597   0.33765
     Eigenvalues ---    0.33765   0.33783   0.34212   0.34375   0.34686
     Eigenvalues ---    0.34768   0.40692   0.41202   0.42745   0.44529
     Eigenvalues ---    0.47218   0.51188   0.55684   0.60206   0.60638
     Eigenvalues ---    0.61363   0.95612
 RFO step:  Lambda=-4.32049473D-08 EMin= 6.35826722D-03
 Linear search not attempted -- first point.
 Iteration  1 RMS(Cart)=  0.00009954 RMS(Int)=  0.00000000
 Iteration  2 RMS(Cart)=  0.00000001 RMS(Int)=  0.00000000
 Variable       Old X    -DE/DX   Delta X   Delta X   Delta X     New X
                                 (Linear)    (Quad)   (Total)
    R1        2.85318   0.00002   0.00000   0.00005   0.00005   2.85323
    R2        2.07728   0.00002   0.00000   0.00005   0.00005   2.07733
    R3        2.07698   0.00002   0.00000   0.00006   0.00006   2.07704
    R4        2.07728   0.00002   0.00000   0.00005   0.00005   2.07734
    R5        2.70623   0.00001   0.00000   0.00002   0.00002   2.70626
    R6        2.08015   0.00000   0.00000   0.00001   0.00001   2.08016
    R7        2.08015   0.00000   0.00000   0.00000   0.00000   2.08016
    R8        2.49878  -0.00001   0.00000  -0.00002  -0.00002   2.49876
    R9        2.30449   0.00003   0.00000   0.00004   0.00004   2.30453
   R10        2.79488  -0.00003   0.00000  -0.00008  -0.00008   2.79480
   R11        2.65046   0.00002   0.00000   0.00004   0.00004   2.65050
   R12        2.66136  -0.00003   0.00000  -0.00007  -0.00007   2.66129
   R13        2.61697  -0.00000   0.00000  -0.00000  -0.00000   2.61697
   R14        2.06054   0.00003   0.00000   0.00008   0.00008   2.06062
   R15        2.53126   0.00005   0.00000   0.00009   0.00009   2.53134
   R16        2.06701   0.00002   0.00000   0.00005   0.00005   2.06706
   R17        2.49108  -0.00005   0.00000  -0.00008  -0.00008   2.49100
   R18        2.66810   0.00005   0.00000   0.00011   0.00011   2.66820
   R19        2.06975   0.00002   0.00000   0.00006   0.00006   2.06981
   R20        2.50778   0.00000   0.00000   0.00000   0.00000   2.50778
   R21        1.85385   0.00002   0.00000   0.00004   0.00004   1.85389
    A1        1.93620  -0.00001   0.00000  -0.00005  -0.00005   1.93615
    A2        1.91507  -0.00001   0.00000  -0.00006  -0.00006   1.91502
    A3        1.93619  -0.00001   0.00000  -0.00003  -0.00003   1.93616
    A4        1.89075   0.00001   0.00000   0.00005   0.00005   1.89081
    A5        1.89367   0.00001   0.00000   0.00003   0.00003   1.89370
    A6        1.89074   0.00001   0.00000   0.00006   0.00006   1.89080
    A7        1.88340  -0.00001   0.00000  -0.00005  -0.00005   1.88336
    A8        1.95621   0.00000   0.00000   0.00000   0.00000   1.95621
    A9        1.95621   0.00000   0.00000   0.00001   0.00001   1.95623
   A10        1.89782  -0.00000   0.00000  -0.00004  -0.00004   1.89779
   A11        1.89783   0.00000   0.00000  -0.00002  -0.00002   1.89781
   A12        1.87108   0.00000   0.00000   0.00008   0.00008   1.87116
   A13        2.04895  -0.00001   0.00000  -0.00004  -0.00004   2.04891
   A14        2.14307   0.00000   0.00000   0.00001   0.00001   2.14309
   A15        1.99181  -0.00000   0.00000  -0.00002  -0.00002   1.99179
   A16        2.14830   0.00000   0.00000   0.00001   0.00001   2.14831
   A17        2.14321  -0.00002   0.00000  -0.00006  -0.00006   2.14315
   A18        2.07358   0.00001   0.00000   0.00006   0.00006   2.07363
   A19        2.06639   0.00000   0.00000   0.00000   0.00000   2.06640
   A20        2.07975  -0.00000   0.00000  -0.00000  -0.00000   2.07975
   A21        2.08837  -0.00001   0.00000  -0.00008  -0.00008   2.08829
   A22        2.11506   0.00001   0.00000   0.00008   0.00008   2.11514
   A23        2.13904  -0.00000   0.00000   0.00001   0.00001   2.13905
   A24        2.10650   0.00002   0.00000   0.00010   0.00010   2.10660
   A25        2.03765  -0.00002   0.00000  -0.00011  -0.00011   2.03754
   A26        2.07745  -0.00001   0.00000  -0.00002  -0.00002   2.07742
   A27        2.15528   0.00001   0.00000   0.00002   0.00002   2.15529
   A28        2.06687  -0.00001   0.00000  -0.00003  -0.00003   2.06684
   A29        2.06104  -0.00000   0.00000   0.00001   0.00001   2.06105
   A30        2.04846   0.00000   0.00000  -0.00000  -0.00000   2.04845
   A31        2.16377  -0.00000   0.00000  -0.00001  -0.00001   2.16376
   A32        2.07096   0.00000   0.00000   0.00001   0.00001   2.07097
   A33        1.87809   0.00000   0.00000   0.00003   0.00003   1.87811
    D1        1.05307   0.00000   0.00000   0.00000   0.00000   1.05307
    D2       -3.14098  -0.00000   0.00000  -0.00007  -0.00007  -3.14105
    D3       -1.03608   0.00000   0.00000   0.00005   0.00005  -1.03603
    D4       -3.14156   0.00000   0.00000   0.00000   0.00000  -3.14156
    D5       -1.05242  -0.00000   0.00000  -0.00007  -0.00007  -1.05249
    D6        1.05247   0.00000   0.00000   0.00005   0.00005   1.05252
    D7       -1.05303   0.00000   0.00000   0.00002   0.00002  -1.05301
    D8        1.03611  -0.00000   0.00000  -0.00005  -0.00005   1.03606
    D9        3.14101   0.00000   0.00000   0.00007   0.00007   3.14107
   D10       -3.14121  -0.00000   0.00000  -0.00009  -0.00009  -3.14129
   D11        1.01631   0.00000   0.00000  -0.00005  -0.00005   1.01627
   D12       -1.01553  -0.00000   0.00000  -0.00011  -0.00011  -1.01564
   D13       -0.00007   0.00000   0.00000   0.00009   0.00009   0.00003
   D14        3.14158  -0.00000   0.00000  -0.00009  -0.00009   3.14149
   D15       -0.00007   0.00000   0.00000   0.00018   0.00018   0.00011
   D16        3.14155   0.00000   0.00000   0.00014   0.00014  -3.14149
   D17        3.14158  -0.00000   0.00000  -0.00001  -0.00001   3.14157
   D18        0.00001  -0.00000   0.00000  -0.00004  -0.00004  -0.00003
   D19       -3.14158  -0.00000   0.00000  -0.00004  -0.00004   3.14157
   D20        0.00003  -0.00000   0.00000  -0.00004  -0.00004  -0.00001
   D21       -0.00001  -0.00000   0.00000  -0.00000  -0.00000  -0.00001
   D22       -3.14159  -0.00000   0.00000  -0.00001  -0.00001  -3.14159
   D23        3.14157   0.00000   0.00000   0.00005   0.00005  -3.14156
   D24       -0.00003   0.00000   0.00000   0.00009   0.00009   0.00005
   D25        0.00000   0.00000   0.00000   0.00001   0.00001   0.00002
   D26        3.14158   0.00000   0.00000   0.00005   0.00005  -3.14155
   D27        0.00000  -0.00000   0.00000  -0.00000  -0.00000   0.00000
   D28       -3.14158  -0.00000   0.00000  -0.00001  -0.00001  -3.14159
   D29        3.14158   0.00000   0.00000   0.00000   0.00000   3.14158
   D30       -0.00001  -0.00000   0.00000  -0.00000  -0.00000  -0.00001
   D31        0.00001  -0.00000   0.00000  -0.00001  -0.00001  -0.00000
   D32       -3.14159  -0.00000   0.00000  -0.00000  -0.00000   3.14159
   D33       -0.00001   0.00000   0.00000   0.00002   0.00002   0.00001
   D34       -3.14158  -0.00000   0.00000  -0.00003  -0.00003   3.14158
   D35        0.00001  -0.00000   0.00000  -0.00002  -0.00002  -0.00002
   D36       -3.14157  -0.00000   0.00000  -0.00006  -0.00006   3.14155
   D37        3.14158   0.00000   0.00000   0.00002   0.00002  -3.14158
   D38        0.00000  -0.00000   0.00000  -0.00001  -0.00001  -0.00001
   D39       -0.00002   0.00000   0.00000   0.00005   0.00005   0.00003
   D40        3.14156   0.00000   0.00000   0.00009   0.00009  -3.14154
         Item               Value     Threshold  Converged?
 Maximum Force            0.000049     0.000450     YES
 RMS     Force            0.000013     0.000300     YES
 Maximum Displacement     0.000369     0.001800     YES
 RMS     Displacement     0.000100     0.001200     YES
 Predicted change in Energy=-2.160248D-08
 Optimization completed.
    -- Stationary point found.
                           ----------------------------
                           !   Optimized Parameters   !
                           ! (Angstroms and Degrees)  !
 --------------------------                            --------------------------
 ! Name  Definition              Value          Derivative Info.                !
 --------------------------------------------------------------------------------
 ! R1    R(1,2)                  1.5098         -DE/DX =    0.0                 !
 ! R2    R(1,13)                 1.0993         -DE/DX =    0.0                 !
 ! R3    R(1,14)                 1.0991         -DE/DX =    0.0                 !
 ! R4    R(1,15)                 1.0993         -DE/DX =    0.0                 !
 ! R5    R(2,3)                  1.4321         -DE/DX =    0.0                 !
 ! R6    R(2,16)                 1.1008         -DE/DX =    0.0                 !
 ! R7    R(2,17)                 1.1008         -DE/DX =    0.0                 !
 ! R8    R(3,4)                  1.3223         -DE/DX =    0.0                 !
 ! R9    R(4,5)                  1.2195         -DE/DX =    0.0                 !
 ! R10   R(4,6)                  1.479          -DE/DX =    0.0                 !
 ! R11   R(6,7)                  1.4026         -DE/DX =    0.0                 !
 ! R12   R(6,11)                 1.4083         -DE/DX =    0.0                 !
 ! R13   R(7,8)                  1.3848         -DE/DX =    0.0                 !
 ! R14   R(7,18)                 1.0904         -DE/DX =    0.0                 !
 ! R15   R(8,9)                  1.3395         -DE/DX =    0.0                 !
 ! R16   R(8,19)                 1.0938         -DE/DX =    0.0                 !
 ! R17   R(9,10)                 1.3182         -DE/DX =    0.0                 !
 ! R18   R(10,11)                1.4119         -DE/DX =    0.0                 !
 ! R19   R(10,20)                1.0953         -DE/DX =    0.0                 !
 ! R20   R(11,12)                1.3271         -DE/DX =    0.0                 !
 ! R21   R(12,21)                0.981          -DE/DX =    0.0                 !
 ! A1    A(2,1,13)             110.9362         -DE/DX =    0.0                 !
 ! A2    A(2,1,14)             109.7257         -DE/DX =    0.0                 !
 ! A3    A(2,1,15)             110.9357         -DE/DX =    0.0                 !
 ! A4    A(13,1,14)            108.3322         -DE/DX =    0.0                 !
 ! A5    A(13,1,15)            108.4994         -DE/DX =    0.0                 !
 ! A6    A(14,1,15)            108.3315         -DE/DX =    0.0                 !
 ! A7    A(1,2,3)              107.911          -DE/DX =    0.0                 !
 ! A8    A(1,2,16)             112.0825         -DE/DX =    0.0                 !
 ! A9    A(1,2,17)             112.0828         -DE/DX =    0.0                 !
 ! A10   A(3,2,16)             108.7373         -DE/DX =    0.0                 !
 ! A11   A(3,2,17)             108.7376         -DE/DX =    0.0                 !
 ! A12   A(16,2,17)            107.2047         -DE/DX =    0.0                 !
 ! A13   A(2,3,4)              117.3962         -DE/DX =    0.0                 !
 ! A14   A(3,4,5)              122.789          -DE/DX =    0.0                 !
 ! A15   A(3,4,6)              114.1225         -DE/DX =    0.0                 !
 ! A16   A(5,4,6)              123.0885         -DE/DX =    0.0                 !
 ! A17   A(4,6,7)              122.7972         -DE/DX =    0.0                 !
 ! A18   A(4,6,11)             118.8072         -DE/DX =    0.0                 !
 ! A19   A(7,6,11)             118.3956         -DE/DX =    0.0                 !
 ! A20   A(6,7,8)              119.1612         -DE/DX =    0.0                 !
 ! A21   A(6,7,18)             119.6547         -DE/DX =    0.0                 !
 ! A22   A(8,7,18)             121.1842         -DE/DX =    0.0                 !
 ! A23   A(7,8,9)              122.5581         -DE/DX =    0.0                 !
 ! A24   A(7,8,19)             120.6934         -DE/DX =    0.0                 !
 ! A25   A(9,8,19)             116.7485         -DE/DX =    0.0                 !
 ! A26   A(8,9,10)             119.029          -DE/DX =    0.0                 !
 ! A27   A(9,10,11)            123.4882         -DE/DX =    0.0                 !
 ! A28   A(9,10,20)            118.4228         -DE/DX =    0.0                 !
 ! A29   A(11,10,20)           118.089          -DE/DX =    0.0                 !
 ! A30   A(6,11,10)            117.3678         -DE/DX =    0.0                 !
 ! A31   A(6,11,12)            123.9748         -DE/DX =    0.0                 !
 ! A32   A(10,11,12)           118.6573         -DE/DX =    0.0                 !
 ! A33   A(11,12,21)           107.6064         -DE/DX =    0.0                 !
 ! D1    D(13,1,2,3)            60.3365         -DE/DX =    0.0                 !
 ! D2    D(13,1,2,16)         -179.9647         -DE/DX =    0.0                 !
 ! D3    D(13,1,2,17)          -59.3629         -DE/DX =    0.0                 !
 ! D4    D(14,1,2,3)          -179.9983         -DE/DX =    0.0                 !
 ! D5    D(14,1,2,16)          -60.2995         -DE/DX =    0.0                 !
 ! D6    D(14,1,2,17)           60.3023         -DE/DX =    0.0                 !
 ! D7    D(15,1,2,3)           -60.3343         -DE/DX =    0.0                 !
 ! D8    D(15,1,2,16)           59.3645         -DE/DX =    0.0                 !
 ! D9    D(15,1,2,17)          179.9664         -DE/DX =    0.0                 !
 ! D10   D(1,2,3,4)           -179.9778         -DE/DX =    0.0                 !
 ! D11   D(16,2,3,4)            58.2304         -DE/DX =    0.0                 !
 ! D12   D(17,2,3,4)           -58.1855         -DE/DX =    0.0                 !
 ! D13   D(2,3,4,5)             -0.0038         -DE/DX =    0.0                 !
 ! D14   D(2,3,4,6)            179.9992         -DE/DX =    0.0                 !
 ! D15   D(3,4,6,7)             -0.0038         -DE/DX =    0.0                 !
 ! D16   D(3,4,6,11)          -180.0025         -DE/DX =    0.0                 !
 ! D17   D(5,4,6,7)            179.9992         -DE/DX =    0.0                 !
 ! D18   D(5,4,6,11)             0.0005         -DE/DX =    0.0                 !
 ! D19   D(4,6,7,8)            180.0009         -DE/DX =    0.0                 !
 ! D20   D(4,6,7,18)             0.0017         -DE/DX =    0.0                 !
 ! D21   D(11,6,7,8)            -0.0005         -DE/DX =    0.0                 !
 ! D22   D(11,6,7,18)         -179.9996         -DE/DX =    0.0                 !
 ! D23   D(4,6,11,10)         -180.001          -DE/DX =    0.0                 !
 ! D24   D(4,6,11,12)           -0.002          -DE/DX =    0.0                 !
 ! D25   D(7,6,11,10)            0.0002         -DE/DX =    0.0                 !
 ! D26   D(7,6,11,12)         -180.0007         -DE/DX =    0.0                 !
 ! D27   D(6,7,8,9)              0.0002         -DE/DX =    0.0                 !
 ! D28   D(6,7,8,19)          -179.9995         -DE/DX =    0.0                 !
 ! D29   D(18,7,8,9)           179.9993         -DE/DX =    0.0                 !
 ! D30   D(18,7,8,19)           -0.0004         -DE/DX =    0.0                 !
 ! D31   D(7,8,9,10)             0.0004         -DE/DX =    0.0                 !
 ! D32   D(19,8,9,10)          180.0001         -DE/DX =    0.0                 !
 ! D33   D(8,9,10,11)           -0.0006         -DE/DX =    0.0                 !
 ! D34   D(8,9,10,20)          180.0005         -DE/DX =    0.0                 !
 ! D35   D(9,10,11,6)            0.0003         -DE/DX =    0.0                 !
 ! D36   D(9,10,11,12)         180.0012         -DE/DX =    0.0                 !
 ! D37   D(20,10,11,6)        -180.0009         -DE/DX =    0.0                 !
 ! D38   D(20,10,11,12)          0.0001         -DE/DX =    0.0                 !
 ! D39   D(6,11,12,21)          -0.0011         -DE/DX =    0.0                 !
 ! D40   D(10,11,12,21)       -180.0021         -DE/DX =    0.0                 !
 --------------------------------------------------------------------------------
 GradGradGradGradGradGradGradGradGradGradGradGradGradGradGradGradGradGrad

                          Input orientation:                          
 ---------------------------------------------------------------------
 Center     Atomic      Atomic             Coordinates (Angstroms)
 Number     Number       Type             X           Y           Z
 ---------------------------------------------------------------------
      1          6           0       -4.070050   -0.982670    0.000250
      2          6           0       -3.120060    0.190840   -0.000160
      3          8           0       -1.783820   -0.324240   -0.000160
      4          6           0       -0.793840    0.552350   -0.000040
      5          8           0       -0.979030    1.757690    0.000000
      6          6           0        0.553540   -0.057540   -0.000030
      7          6           0        0.759480   -1.444900   -0.000060
      8          6           0        2.054770   -1.934810   -0.000030
      9          7           0        3.128400   -1.133850    0.000030
     10          6           0        2.951890    0.172500    0.000070
     11          6           0        1.680660    0.786850    0.000040
     12          8           0        1.614350    2.112250    0.000060
     13          1           0       -3.922180   -1.607430    0.892530
     14          1           0       -5.107590   -0.620030    0.000230
     15          1           0       -3.922330   -1.607920   -0.891710
     16          1           0       -3.252560    0.830220   -0.886350
     17          1           0       -3.252380    0.830700    0.885710
     18          1           0       -0.098610   -2.117680   -0.000120
     19          1           0        2.244250   -3.012090   -0.000060
     20          1           0        3.836650    0.818100    0.000110
     21          1           0        0.665630    2.361890    0.000000
 ---------------------------------------------------------------------
                    Distance matrix (angstroms):
                    1          2          3          4          5
     1  C    0.000000
     2  C    1.509837   0.000000
     3  O    2.379155   1.432077   0.000000
     4  C    3.617988   2.354143   1.322297   0.000000
     5  O    4.130857   2.653117   2.232066   1.219483   0.000000
     6  C    4.715236   3.681987   2.352526   1.478986   2.375675
     7  C    4.851599   4.210282   2.779254   2.530180   3.644036
     8  C    6.198386   5.594395   4.162777   3.781606   4.778964
     9  N    7.200037   6.387336   4.978491   4.269337   5.023145
    10  C    7.116323   6.071978   4.761691   3.764941   4.238509
    11  C    6.016799   4.837576   3.638288   2.485587   2.831339
    12  O    6.472321   5.109448   4.181392   2.869262   2.617505
    13  H    1.099252   2.161959   2.648784   3.904849   4.558813
    14  H    1.099089   2.146575   3.336906   4.470225   4.764301
    15  H    1.099250   2.161952   2.648758   3.905034   4.559111
    16  H    2.177365   1.100771   2.067682   2.628319   2.610509
    17  H    2.177369   1.100770   2.067685   2.628013   2.609964
    18  H    4.130446   3.802424   2.460967   2.759059   3.974120
    19  H    6.632415   6.247766   4.842508   4.683505   5.756764
    20  H    8.109172   6.984932   5.735383   4.638110   4.906486
    21  H    5.797650   4.364047   3.635258   2.324755   1.752131
                    6          7          8          9         10
     6  C    0.000000
     7  C    1.402562   0.000000
     8  C    2.403713   1.384842   0.000000
     9  N    2.790761   2.389254   1.339484   0.000000
    10  C    2.409357   2.724453   2.290323   1.318221   0.000000
    11  C    1.408330   2.414390   2.747252   2.405211   1.411896
    12  O    2.415224   3.658431   4.070954   3.581831   2.356193
    13  H    4.819844   4.768760   6.052088   7.122606   7.156638
    14  H    5.689006   5.924772   7.282036   8.252002   8.098353
    15  H    4.819978   4.768748   6.052080   7.122692   7.156820
    16  H    4.007503   4.696610   6.049686   6.734975   6.301868
    17  H    4.007310   4.696591   6.049663   6.734853   6.301631
    18  H    2.160897   1.090390   2.161131   3.373650   3.814508
    19  H    3.404095   2.158848   1.093817   2.075935   3.262264
    20  H    3.397875   3.819705   3.279270   2.076470   1.095262
    21  H    2.422025   3.807947   4.515677   4.276147   3.165504
                   11         12         13         14         15
    11  C    0.000000
    12  O    1.327058   0.000000
    13  H    6.157997   6.729464   0.000000
    14  H    6.932507   7.256020   1.782233   0.000000
    15  H    6.158217   6.729766   1.784240   1.782225   0.000000
    16  H    5.012407   5.110395   3.091107   2.516026   2.528467
    17  H    5.012107   5.109971   2.528469   2.516048   3.091104
    18  H    3.406185   4.563610   3.959402   5.228082   3.959245
    19  H    3.840518   5.162909   6.387069   7.731203   6.386974
    20  H    2.156216   2.571661   8.177961   9.059120   8.178184
    21  H    1.873776   0.981015   6.131893   6.497839   6.132203
                   16         17         18         19         20
    16  H    0.000000
    17  H    1.772060   0.000000
    18  H    4.407144   4.407256   0.000000
    19  H    6.764893   6.764951   2.507780   0.000000
    20  H    7.144428   7.144144   4.909692   4.148023   0.000000
    21  H    4.299284   4.298817   4.544294   5.601045   3.526848
                   21
    21  H    0.000000
 Stoichiometry    C8H9NO3
 Framework group  C1[X(C8H9NO3)]
 Deg. of freedom    57
 Full point group                 C1      NOp   1
 Largest Abelian subgroup         C1      NOp   1
 Largest concise Abelian subgroup C1      NOp   1
                         Standard orientation:                         
 ---------------------------------------------------------------------
 Center     Atomic      Atomic             Coordinates (Angstroms)
 Number     Number       Type             X           Y           Z
 ---------------------------------------------------------------------
      1          6           0       -4.070051   -0.982667    0.000250
      2          6           0       -3.120060    0.190842   -0.000160
      3          8           0       -1.783821   -0.324240   -0.000160
      4          6           0       -0.793840    0.552349   -0.000040
      5          8           0       -0.979028    1.757689    0.000000
      6          6           0        0.553540   -0.057542   -0.000030
      7          6           0        0.759478   -1.444902   -0.000060
      8          6           0        2.054768   -1.934814   -0.000030
      9          7           0        3.128399   -1.133855    0.000030
     10          6           0        2.951890    0.172496    0.000070
     11          6           0        1.680661    0.786847    0.000040
     12          8           0        1.614352    2.112247    0.000060
     13          1           0       -3.922182   -1.607428    0.892530
     14          1           0       -5.107591   -0.620026    0.000230
     15          1           0       -3.922332   -1.607918   -0.891710
     16          1           0       -3.252559    0.830222   -0.886350
     17          1           0       -3.252379    0.830702    0.885710
     18          1           0       -0.098612   -2.117681   -0.000120
     19          1           0        2.244247   -3.012094   -0.000060
     20          1           0        3.836651    0.818095    0.000110
     21          1           0        0.665632    2.361888    0.000000
 ---------------------------------------------------------------------
 Rotational constants (GHZ):           1.9153551           0.5814431           0.4485624
 Unable to Open any file for archive entry.
 1\1\GINC-NOTCH316\FOpt\RwB97XD\def2SVP\C8H9N1O3\U6053008\12-Jul-2024\0
 \\#N OPT FREQ=NORAMAN Integral(Ultrafine) wB97XD def2SVP\\12326192_2\\
 0,1\C,-4.07005,-0.98267,0.00025\C,-3.12006,0.19084,-0.00016\O,-1.78382
 ,-0.32424,-0.00016\C,-0.79384,0.55235,-0.00004\O,-0.97903,1.75769,0.\C
 ,0.55354,-0.05754,-0.00003\C,0.75948,-1.4449,-0.00006\C,2.05477,-1.934
 81,-0.00003\N,3.1284,-1.13385,0.00003\C,2.95189,0.1725,0.00007\C,1.680
 66,0.78685,0.00004\O,1.61435,2.11225,0.00006\H,-3.92218,-1.60743,0.892
 53\H,-5.10759,-0.62003,0.00023\H,-3.92233,-1.60792,-0.89171\H,-3.25256
 ,0.83022,-0.88635\H,-3.25238,0.8307,0.88571\H,-0.09861,-2.11768,-0.000
 12\H,2.24425,-3.01209,-0.00006\H,3.83665,0.8181,0.00011\H,0.66563,2.36
 189,0.\\Version=ES64L-G16RevC.01\State=1-A\HF=-590.0907723\RMSD=6.423e
 -09\RMSF=2.433e-05\Dipole=-1.676675,-0.4180678,-0.0000553\Quadrupole=1
 .1205046,-1.225632,0.1051274,2.3338731,0.0000492,-0.0001186\PG=C01 [X(
 C8H9N1O3)]\\@
 The archive entry for this job was punched.


 The earth never tires,
 The earth is rude, silent, incomprehensible at first,
 Nature is rude and incomprehensible at first,
 Be not discouraged, keep on,
 There are divine things well envelop'd,
 I swear to you there are divine things more beautiful than words can tell.
                                 -- Walt Whitman
 Job cpu time:       0 days  0 hours  6 minutes 40.6 seconds.
 Elapsed time:       0 days  0 hours  0 minutes 25.7 seconds.
 File lengths (MBytes):  RWF=     44 Int=      0 D2E=      0 Chk=      5 Scr=      2
 Normal termination of Gaussian 16 at Fri Jul 12 13:08:31 2024.
 Link1:  Proceeding to internal job step number  2.
 --------------------------------------------------------------------
 #N Geom=AllCheck Guess=TCheck SCRF=Check GenChk RwB97XD/def2SVP Freq
 --------------------------------------------------------------------
 1/10=4,29=7,30=1,38=1,40=1/1,3;
 2/12=2,40=1/2;
 3/5=43,7=101,11=2,14=-4,25=1,30=1,70=2,71=2,74=-58,75=-5,116=1,140=1/1,2,3;
 4/5=101/1;
 5/5=2,38=6,98=1/2;
 8/6=4,10=90,11=11/1;
 11/6=1,8=1,9=11,15=111,16=1/1,2,10;
 10/6=1/2;
 6/7=2,8=2,9=2,10=2,28=1/1;
 7/8=1,10=1,25=1/1,2,3,16;
 1/10=4,30=1/3;
 99//99;
 Structure from the checkpoint file:  "12326192_2.chk"
 ----------
 12326192_2
 ----------
 Charge =  0 Multiplicity = 1
 Redundant internal coordinates found in file.  (old form).
 C,0,-4.07005,-0.98267,0.00025
 C,0,-3.12006,0.19084,-0.00016
 O,0,-1.78382,-0.32424,-0.00016
 C,0,-0.79384,0.55235,-0.00004
 O,0,-0.97903,1.75769,0.
 C,0,0.55354,-0.05754,-0.00003
 C,0,0.75948,-1.4449,-0.00006
 C,0,2.05477,-1.93481,-0.00003
 N,0,3.1284,-1.13385,0.00003
 C,0,2.95189,0.1725,0.00007
 C,0,1.68066,0.78685,0.00004
 O,0,1.61435,2.11225,0.00006
 H,0,-3.92218,-1.60743,0.89253
 H,0,-5.10759,-0.62003,0.00023
 H,0,-3.92233,-1.60792,-0.89171
 H,0,-3.25256,0.83022,-0.88635
 H,0,-3.25238,0.8307,0.88571
 H,0,-0.09861,-2.11768,-0.00012
 H,0,2.24425,-3.01209,-0.00006
 H,0,3.83665,0.8181,0.00011
 H,0,0.66563,2.36189,0.
 Recover connectivity data from disk.

 GradGradGradGradGradGradGradGradGradGradGradGradGradGradGradGradGradGrad
 Berny optimization.
 Initialization pass.
                           ----------------------------
                           !    Initial Parameters    !
                           ! (Angstroms and Degrees)  !
 --------------------------                            --------------------------
 ! Name  Definition              Value          Derivative Info.                !
 --------------------------------------------------------------------------------
 ! R1    R(1,2)                  1.5098         calculate D2E/DX2 analytically  !
 ! R2    R(1,13)                 1.0993         calculate D2E/DX2 analytically  !
 ! R3    R(1,14)                 1.0991         calculate D2E/DX2 analytically  !
 ! R4    R(1,15)                 1.0993         calculate D2E/DX2 analytically  !
 ! R5    R(2,3)                  1.4321         calculate D2E/DX2 analytically  !
 ! R6    R(2,16)                 1.1008         calculate D2E/DX2 analytically  !
 ! R7    R(2,17)                 1.1008         calculate D2E/DX2 analytically  !
 ! R8    R(3,4)                  1.3223         calculate D2E/DX2 analytically  !
 ! R9    R(4,5)                  1.2195         calculate D2E/DX2 analytically  !
 ! R10   R(4,6)                  1.479          calculate D2E/DX2 analytically  !
 ! R11   R(6,7)                  1.4026         calculate D2E/DX2 analytically  !
 ! R12   R(6,11)                 1.4083         calculate D2E/DX2 analytically  !
 ! R13   R(7,8)                  1.3848         calculate D2E/DX2 analytically  !
 ! R14   R(7,18)                 1.0904         calculate D2E/DX2 analytically  !
 ! R15   R(8,9)                  1.3395         calculate D2E/DX2 analytically  !
 ! R16   R(8,19)                 1.0938         calculate D2E/DX2 analytically  !
 ! R17   R(9,10)                 1.3182         calculate D2E/DX2 analytically  !
 ! R18   R(10,11)                1.4119         calculate D2E/DX2 analytically  !
 ! R19   R(10,20)                1.0953         calculate D2E/DX2 analytically  !
 ! R20   R(11,12)                1.3271         calculate D2E/DX2 analytically  !
 ! R21   R(12,21)                0.981          calculate D2E/DX2 analytically  !
 ! A1    A(2,1,13)             110.9362         calculate D2E/DX2 analytically  !
 ! A2    A(2,1,14)             109.7257         calculate D2E/DX2 analytically  !
 ! A3    A(2,1,15)             110.9357         calculate D2E/DX2 analytically  !
 ! A4    A(13,1,14)            108.3322         calculate D2E/DX2 analytically  !
 ! A5    A(13,1,15)            108.4994         calculate D2E/DX2 analytically  !
 ! A6    A(14,1,15)            108.3315         calculate D2E/DX2 analytically  !
 ! A7    A(1,2,3)              107.911          calculate D2E/DX2 analytically  !
 ! A8    A(1,2,16)             112.0825         calculate D2E/DX2 analytically  !
 ! A9    A(1,2,17)             112.0828         calculate D2E/DX2 analytically  !
 ! A10   A(3,2,16)             108.7373         calculate D2E/DX2 analytically  !
 ! A11   A(3,2,17)             108.7376         calculate D2E/DX2 analytically  !
 ! A12   A(16,2,17)            107.2047         calculate D2E/DX2 analytically  !
 ! A13   A(2,3,4)              117.3962         calculate D2E/DX2 analytically  !
 ! A14   A(3,4,5)              122.789          calculate D2E/DX2 analytically  !
 ! A15   A(3,4,6)              114.1225         calculate D2E/DX2 analytically  !
 ! A16   A(5,4,6)              123.0885         calculate D2E/DX2 analytically  !
 ! A17   A(4,6,7)              122.7972         calculate D2E/DX2 analytically  !
 ! A18   A(4,6,11)             118.8072         calculate D2E/DX2 analytically  !
 ! A19   A(7,6,11)             118.3956         calculate D2E/DX2 analytically  !
 ! A20   A(6,7,8)              119.1612         calculate D2E/DX2 analytically  !
 ! A21   A(6,7,18)             119.6547         calculate D2E/DX2 analytically  !
 ! A22   A(8,7,18)             121.1842         calculate D2E/DX2 analytically  !
 ! A23   A(7,8,9)              122.5581         calculate D2E/DX2 analytically  !
 ! A24   A(7,8,19)             120.6934         calculate D2E/DX2 analytically  !
 ! A25   A(9,8,19)             116.7485         calculate D2E/DX2 analytically  !
 ! A26   A(8,9,10)             119.029          calculate D2E/DX2 analytically  !
 ! A27   A(9,10,11)            123.4882         calculate D2E/DX2 analytically  !
 ! A28   A(9,10,20)            118.4228         calculate D2E/DX2 analytically  !
 ! A29   A(11,10,20)           118.089          calculate D2E/DX2 analytically  !
 ! A30   A(6,11,10)            117.3678         calculate D2E/DX2 analytically  !
 ! A31   A(6,11,12)            123.9748         calculate D2E/DX2 analytically  !
 ! A32   A(10,11,12)           118.6573         calculate D2E/DX2 analytically  !
 ! A33   A(11,12,21)           107.6064         calculate D2E/DX2 analytically  !
 ! D1    D(13,1,2,3)            60.3365         calculate D2E/DX2 analytically  !
 ! D2    D(13,1,2,16)         -179.9647         calculate D2E/DX2 analytically  !
 ! D3    D(13,1,2,17)          -59.3629         calculate D2E/DX2 analytically  !
 ! D4    D(14,1,2,3)          -179.9983         calculate D2E/DX2 analytically  !
 ! D5    D(14,1,2,16)          -60.2995         calculate D2E/DX2 analytically  !
 ! D6    D(14,1,2,17)           60.3023         calculate D2E/DX2 analytically  !
 ! D7    D(15,1,2,3)           -60.3343         calculate D2E/DX2 analytically  !
 ! D8    D(15,1,2,16)           59.3645         calculate D2E/DX2 analytically  !
 ! D9    D(15,1,2,17)          179.9664         calculate D2E/DX2 analytically  !
 ! D10   D(1,2,3,4)           -179.9778         calculate D2E/DX2 analytically  !
 ! D11   D(16,2,3,4)            58.2304         calculate D2E/DX2 analytically  !
 ! D12   D(17,2,3,4)           -58.1855         calculate D2E/DX2 analytically  !
 ! D13   D(2,3,4,5)             -0.0038         calculate D2E/DX2 analytically  !
 ! D14   D(2,3,4,6)            179.9992         calculate D2E/DX2 analytically  !
 ! D15   D(3,4,6,7)             -0.0038         calculate D2E/DX2 analytically  !
 ! D16   D(3,4,6,11)           179.9975         calculate D2E/DX2 analytically  !
 ! D17   D(5,4,6,7)            179.9992         calculate D2E/DX2 analytically  !
 ! D18   D(5,4,6,11)             0.0005         calculate D2E/DX2 analytically  !
 ! D19   D(4,6,7,8)           -179.9991         calculate D2E/DX2 analytically  !
 ! D20   D(4,6,7,18)             0.0017         calculate D2E/DX2 analytically  !
 ! D21   D(11,6,7,8)            -0.0005         calculate D2E/DX2 analytically  !
 ! D22   D(11,6,7,18)         -179.9996         calculate D2E/DX2 analytically  !
 ! D23   D(4,6,11,10)          179.999          calculate D2E/DX2 analytically  !
 ! D24   D(4,6,11,12)           -0.002          calculate D2E/DX2 analytically  !
 ! D25   D(7,6,11,10)            0.0002         calculate D2E/DX2 analytically  !
 ! D26   D(7,6,11,12)          179.9993         calculate D2E/DX2 analytically  !
 ! D27   D(6,7,8,9)              0.0002         calculate D2E/DX2 analytically  !
 ! D28   D(6,7,8,19)          -179.9995         calculate D2E/DX2 analytically  !
 ! D29   D(18,7,8,9)           179.9993         calculate D2E/DX2 analytically  !
 ! D30   D(18,7,8,19)           -0.0004         calculate D2E/DX2 analytically  !
 ! D31   D(7,8,9,10)             0.0004         calculate D2E/DX2 analytically  !
 ! D32   D(19,8,9,10)         -179.9999         calculate D2E/DX2 analytically  !
 ! D33   D(8,9,10,11)           -0.0006         calculate D2E/DX2 analytically  !
 ! D34   D(8,9,10,20)         -179.9995         calculate D2E/DX2 analytically  !
 ! D35   D(9,10,11,6)            0.0003         calculate D2E/DX2 analytically  !
 ! D36   D(9,10,11,12)        -179.9988         calculate D2E/DX2 analytically  !
 ! D37   D(20,10,11,6)         179.9991         calculate D2E/DX2 analytically  !
 ! D38   D(20,10,11,12)          0.0001         calculate D2E/DX2 analytically  !
 ! D39   D(6,11,12,21)          -0.0011         calculate D2E/DX2 analytically  !
 ! D40   D(10,11,12,21)        179.9979         calculate D2E/DX2 analytically  !
 --------------------------------------------------------------------------------
 Trust Radius=3.00D-01 FncErr=1.00D-07 GrdErr=1.00D-07 EigMax=2.50D+02 EigMin=1.00D-04
 Number of steps in this run=      2 maximum allowed number of steps=      2.
 GradGradGradGradGradGradGradGradGradGradGradGradGradGradGradGradGradGrad

                          Input orientation:                          
 ---------------------------------------------------------------------
 Center     Atomic      Atomic             Coordinates (Angstroms)
 Number     Number       Type             X           Y           Z
 ---------------------------------------------------------------------
      1          6           0       -4.070050   -0.982670    0.000250
      2          6           0       -3.120060    0.190840   -0.000160
      3          8           0       -1.783820   -0.324240   -0.000160
      4          6           0       -0.793840    0.552350   -0.000040
      5          8           0       -0.979030    1.757690    0.000000
      6          6           0        0.553540   -0.057540   -0.000030
      7          6           0        0.759480   -1.444900   -0.000060
      8          6           0        2.054770   -1.934810   -0.000030
      9          7           0        3.128400   -1.133850    0.000030
     10          6           0        2.951890    0.172500    0.000070
     11          6           0        1.680660    0.786850    0.000040
     12          8           0        1.614350    2.112250    0.000060
     13          1           0       -3.922180   -1.607430    0.892530
     14          1           0       -5.107590   -0.620030    0.000230
     15          1           0       -3.922330   -1.607920   -0.891710
     16          1           0       -3.252560    0.830220   -0.886350
     17          1           0       -3.252380    0.830700    0.885710
     18          1           0       -0.098610   -2.117680   -0.000120
     19          1           0        2.244250   -3.012090   -0.000060
     20          1           0        3.836650    0.818100    0.000110
     21          1           0        0.665630    2.361890    0.000000
 ---------------------------------------------------------------------
                    Distance matrix (angstroms):
                    1          2          3          4          5
     1  C    0.000000
     2  C    1.509837   0.000000
     3  O    2.379155   1.432077   0.000000
     4  C    3.617988   2.354143   1.322297   0.000000
     5  O    4.130857   2.653117   2.232066   1.219483   0.000000
     6  C    4.715236   3.681987   2.352526   1.478986   2.375675
     7  C    4.851599   4.210282   2.779254   2.530180   3.644036
     8  C    6.198386   5.594395   4.162777   3.781606   4.778964
     9  N    7.200037   6.387336   4.978491   4.269337   5.023145
    10  C    7.116323   6.071978   4.761691   3.764941   4.238509
    11  C    6.016799   4.837576   3.638288   2.485587   2.831339
    12  O    6.472321   5.109448   4.181392   2.869262   2.617505
    13  H    1.099252   2.161959   2.648784   3.904849   4.558813
    14  H    1.099089   2.146575   3.336906   4.470225   4.764301
    15  H    1.099250   2.161952   2.648758   3.905034   4.559111
    16  H    2.177365   1.100771   2.067682   2.628319   2.610509
    17  H    2.177369   1.100770   2.067685   2.628013   2.609964
    18  H    4.130446   3.802424   2.460967   2.759059   3.974120
    19  H    6.632415   6.247766   4.842508   4.683505   5.756764
    20  H    8.109172   6.984932   5.735383   4.638110   4.906486
    21  H    5.797650   4.364047   3.635258   2.324755   1.752131
                    6          7          8          9         10
     6  C    0.000000
     7  C    1.402562   0.000000
     8  C    2.403713   1.384842   0.000000
     9  N    2.790761   2.389254   1.339484   0.000000
    10  C    2.409357   2.724453   2.290323   1.318221   0.000000
    11  C    1.408330   2.414390   2.747252   2.405211   1.411896
    12  O    2.415224   3.658431   4.070954   3.581831   2.356193
    13  H    4.819844   4.768760   6.052088   7.122606   7.156638
    14  H    5.689006   5.924772   7.282036   8.252002   8.098353
    15  H    4.819978   4.768748   6.052080   7.122692   7.156820
    16  H    4.007503   4.696610   6.049686   6.734975   6.301868
    17  H    4.007310   4.696591   6.049663   6.734853   6.301631
    18  H    2.160897   1.090390   2.161131   3.373650   3.814508
    19  H    3.404095   2.158848   1.093817   2.075935   3.262264
[...]
 Alpha virt. eigenvalues --    0.31574   0.32704   0.32861   0.35802   0.36022
 Alpha virt. eigenvalues --    0.36636   0.37168   0.39235   0.39327   0.39845
 Alpha virt. eigenvalues --    0.41323   0.41553   0.42601   0.43228   0.44895
 Alpha virt. eigenvalues --    0.45194   0.45718   0.46004   0.47292   0.47688
 Alpha virt. eigenvalues --    0.48794   0.49496   0.50769   0.50910   0.51278
 Alpha virt. eigenvalues --    0.53222   0.54227   0.54402   0.55058   0.56180
 Alpha virt. eigenvalues --    0.57033   0.58239   0.58388   0.58878   0.60376
 Alpha virt. eigenvalues --    0.62214   0.62629   0.63858   0.64282   0.66471
 Alpha virt. eigenvalues --    0.67230   0.68849   0.69015   0.70301   0.72509
 Alpha virt. eigenvalues --    0.72950   0.73955   0.75200   0.75598   0.76774
 Alpha virt. eigenvalues --    0.77655   0.79630   0.82239   0.82432   0.83521
 Alpha virt. eigenvalues --    0.84133   0.86215   0.86227   0.89332   0.89668
 Alpha virt. eigenvalues --    0.90748   0.92159   0.93608   0.94078   0.94176
 Alpha virt. eigenvalues --    0.95577   0.96989   0.97367   1.00930   1.01021
 Alpha virt. eigenvalues --    1.01511   1.05952   1.08061   1.10365   1.11591
 Alpha virt. eigenvalues --    1.12219   1.14752   1.16144   1.17120   1.18762
 Alpha virt. eigenvalues --    1.18959   1.23632   1.24156   1.26157   1.28734
 Alpha virt. eigenvalues --    1.30448   1.32555   1.33320   1.37735   1.38043
 Alpha virt. eigenvalues --    1.40478   1.42828   1.45081   1.45609   1.47247
 Alpha virt. eigenvalues --    1.47773   1.47901   1.51271   1.53283   1.53571
 Alpha virt. eigenvalues --    1.57106   1.57267   1.57981   1.59200   1.59773
 Alpha virt. eigenvalues --    1.60070   1.62478   1.63323   1.63515   1.64315
 Alpha virt. eigenvalues --    1.66110   1.67593   1.68535   1.69364   1.72737
 Alpha virt. eigenvalues --    1.73114   1.76637   1.78336   1.79047   1.79436
 Alpha virt. eigenvalues --    1.83354   1.84905   1.85545   1.86905   1.87464
 Alpha virt. eigenvalues --    1.87673   1.89564   1.90430   1.92318   1.95544
 Alpha virt. eigenvalues --    1.98171   1.99279   2.01056   2.02084   2.05791
 Alpha virt. eigenvalues --    2.05915   2.07328   2.07467   2.10359   2.12605
 Alpha virt. eigenvalues --    2.13059   2.15149   2.16481   2.18107   2.18700
 Alpha virt. eigenvalues --    2.22262   2.24083   2.26472   2.28037   2.28864
 Alpha virt. eigenvalues --    2.32723   2.34414   2.37360   2.37889   2.39308
 Alpha virt. eigenvalues --    2.39419   2.41271   2.41726   2.43659   2.45798
 Alpha virt. eigenvalues --    2.46601   2.48230   2.48603   2.49944   2.52084
 Alpha virt. eigenvalues --    2.53958   2.56123   2.57569   2.59895   2.61111
 Alpha virt. eigenvalues --    2.61313   2.62270   2.66089   2.66533   2.66953
 Alpha virt. eigenvalues --    2.68754   2.70963   2.72337   2.72473   2.73758
 Alpha virt. eigenvalues --    2.75257   2.77470   2.80124   2.83026   2.84084
 Alpha virt. eigenvalues --    2.85271   2.87635   2.87721   2.88494   2.89712
 Alpha virt. eigenvalues --    2.92018   2.92796   2.95852   2.96005   2.97397
 Alpha virt. eigenvalues --    2.99097   2.99508   3.00307   3.02743   3.04713
 Alpha virt. eigenvalues --    3.06176   3.06542   3.07871   3.08723   3.10238
 Alpha virt. eigenvalues --    3.11236   3.12583   3.14978   3.15363   3.17103
 Alpha virt. eigenvalues --    3.17161   3.18798   3.19668   3.22193   3.23596
 Alpha virt. eigenvalues --    3.24375   3.25070   3.27137   3.28620   3.29482
 Alpha virt. eigenvalues --    3.30858   3.33718   3.34024   3.34244   3.36299
 Alpha virt. eigenvalues --    3.36858   3.37751   3.39625   3.41736   3.42292
 Alpha virt. eigenvalues --    3.43794   3.45636   3.46709   3.46967   3.47119
 Alpha virt. eigenvalues --    3.50097   3.50899   3.51952   3.52234   3.54078
 Alpha virt. eigenvalues --    3.55461   3.55465   3.57703   3.60359   3.60714
 Alpha virt. eigenvalues --    3.63384   3.65711   3.67880   3.70452   3.70878
 Alpha virt. eigenvalues --    3.75251   3.77059   3.81671   3.83674   3.87625
 Alpha virt. eigenvalues --    3.90888   3.91680   3.94922   3.95108   3.99234
 Alpha virt. eigenvalues --    4.00566   4.04148   4.06970   4.10251   4.14104
 Alpha virt. eigenvalues --    4.14301   4.15601   4.18013   4.21204   4.24223
 Alpha virt. eigenvalues --    4.28085   4.28802   4.32579   4.35442   4.37409
 Alpha virt. eigenvalues --    4.38999   4.41308   4.44226   4.46251   4.48088
 Alpha virt. eigenvalues --    4.49026   4.52653   4.55962   4.58989   4.59293
 Alpha virt. eigenvalues --    4.60182   4.68828   4.69663   4.77875   4.80072
 Alpha virt. eigenvalues --    4.85049   4.86452   4.89849   4.93055   4.94050
 Alpha virt. eigenvalues --    4.98768   5.11966   5.15530   5.16320   5.21213
 Alpha virt. eigenvalues --    5.21733   5.25356   5.32197   5.32424   5.35284
 Alpha virt. eigenvalues --    5.36095   5.40473   5.44607   5.48655   5.56758
 Alpha virt. eigenvalues --    5.57853   5.58237   5.60528   5.69525   5.72028
 Alpha virt. eigenvalues --    5.74642   5.76002   5.85416   5.94860   5.95018
 Alpha virt. eigenvalues --    6.03251   6.08263   6.16243   6.21823   6.24090
 Alpha virt. eigenvalues --    6.30607   6.40895   6.44095   6.49163   6.53187
 Alpha virt. eigenvalues --    6.62280   6.73115   6.75633   6.81939   6.82321
 Alpha virt. eigenvalues --    6.84176   6.91377   6.97633   7.07710   7.10519
 Alpha virt. eigenvalues --    7.17502   7.24918   7.37763   7.54145   7.55602
 Alpha virt. eigenvalues --   22.37575  22.53708  22.57578  22.82621  22.93271
 Alpha virt. eigenvalues --   22.98411  23.35161  23.64206  32.51717  43.99506
 Alpha virt. eigenvalues --   44.10209  44.39601
          Condensed to atoms (all electrons):
               1          2          3          4          5          6
     1  C    4.881164   0.320714  -0.041268  -0.000425   0.002787   0.003116
     2  C    0.320714   4.824988   0.209978  -0.033849  -0.002203   0.007323
     3  O   -0.041268   0.209978   7.914730   0.402941  -0.069987  -0.128277
     4  C   -0.000425  -0.033849   0.402941   4.472507   0.508349   0.335828
     5  O    0.002787  -0.002203  -0.069987   0.508349   8.044318  -0.087023
     6  C    0.003116   0.007323  -0.128277   0.335828  -0.087023   5.525481
     7  C   -0.000882  -0.002107   0.032972  -0.065037   0.007205   0.378565
     8  C    0.000006  -0.000086   0.000487   0.004520  -0.000373  -0.025803
     9  N   -0.000001  -0.000004   0.000036  -0.001841   0.000029  -0.054572
    10  C   -0.000011  -0.000021   0.000118  -0.001663   0.003853  -0.024082
    11  C    0.000036   0.000172  -0.001421  -0.064277   0.022390   0.324212
    12  O    0.000005   0.000211  -0.000467   0.000370  -0.044613  -0.099730
    13  H    0.407268  -0.032331   0.001324  -0.000106  -0.000061  -0.000410
    14  H    0.408877  -0.035681   0.004069   0.000251   0.000120  -0.000043
    15  H    0.407263  -0.032327   0.001322  -0.000107  -0.000062  -0.000409
    16  H   -0.029532   0.415098  -0.035371  -0.006289   0.006009  -0.001869
    17  H   -0.029542   0.415113  -0.035375  -0.006297   0.006017  -0.001864
    18  H   -0.000368  -0.000665   0.011695  -0.010228   0.000336  -0.048383
    19  H   -0.000000   0.000002  -0.000075  -0.000270   0.000003   0.005058
    20  H   -0.000000  -0.000002   0.000007  -0.000488   0.000056   0.008175
    21  H    0.000004   0.000235   0.000460  -0.007288   0.048990  -0.020034
               7          8          9         10         11         12
     1  C   -0.000882   0.000006  -0.000001  -0.000011   0.000036   0.000005
     2  C   -0.002107  -0.000086  -0.000004  -0.000021   0.000172   0.000211
     3  O    0.032972   0.000487   0.000036   0.000118  -0.001421  -0.000467
     4  C   -0.065037   0.004520  -0.001841  -0.001663  -0.064277   0.000370
     5  O    0.007205  -0.000373   0.000029   0.003853   0.022390  -0.044613
     6  C    0.378565  -0.025803  -0.054572  -0.024082   0.324212  -0.099730
     7  C    5.043764   0.504415  -0.044795  -0.023111  -0.040493   0.007022
     8  C    0.504415   4.786018   0.488357  -0.111056  -0.014286  -0.000892
     9  N   -0.044795   0.488357   6.410607   0.537431  -0.044556   0.003497
    10  C   -0.023111  -0.111056   0.537431   4.850785   0.470309  -0.054720
    11  C   -0.040493  -0.014286  -0.044556   0.470309   4.799145   0.392356
    12  O    0.007022  -0.000892   0.003497  -0.054720   0.392356   7.893192
    13  H    0.000134   0.000006   0.000000   0.000000  -0.000005  -0.000000
    14  H    0.000023   0.000000  -0.000000   0.000000  -0.000003   0.000000
    15  H    0.000134   0.000006   0.000000   0.000000  -0.000005  -0.000000
    16  H    0.000401   0.000011  -0.000000  -0.000002  -0.000143  -0.000005
    17  H    0.000401   0.000011  -0.000000  -0.000002  -0.000143  -0.000005
    18  H    0.414780  -0.033729   0.007067  -0.001051   0.005892  -0.000033
    19  H   -0.071254   0.440444  -0.030727   0.004237   0.000058   0.000015
    20  H    0.000532   0.002311  -0.025680   0.433273  -0.081055   0.007073
    21  H   -0.000993   0.000213  -0.000573   0.004602  -0.010941   0.301713
              13         14         15         16         17         18
     1  C    0.407268   0.408877   0.407263  -0.029532  -0.029542  -0.000368
     2  C   -0.032331  -0.035681  -0.032327   0.415098   0.415113  -0.000665
     3  O    0.001324   0.004069   0.001322  -0.035371  -0.035375   0.011695
     4  C   -0.000106   0.000251  -0.000107  -0.006289  -0.006297  -0.010228
     5  O   -0.000061   0.000120  -0.000062   0.006009   0.006017   0.000336
     6  C   -0.000410  -0.000043  -0.000409  -0.001869  -0.001864  -0.048383
     7  C    0.000134   0.000023   0.000134   0.000401   0.000401   0.414780
     8  C    0.000006   0.000000   0.000006   0.000011   0.000011  -0.033729
     9  N    0.000000  -0.000000   0.000000  -0.000000  -0.000000   0.007067
    10  C    0.000000   0.000000   0.000000  -0.000002  -0.000002  -0.001051
    11  C   -0.000005  -0.000003  -0.000005  -0.000143  -0.000143   0.005892
    12  O   -0.000000   0.000000  -0.000000  -0.000005  -0.000005  -0.000033
    13  H    0.547671  -0.020389  -0.026624   0.006956  -0.007701   0.000058
    14  H   -0.020389   0.541538  -0.020392  -0.001967  -0.001968   0.000024
    15  H   -0.026624  -0.020392   0.547678  -0.007702   0.006956   0.000059
    16  H    0.006956  -0.001967  -0.007702   0.573074  -0.041080   0.000051
    17  H   -0.007701  -0.001968   0.006956  -0.041080   0.573053   0.000051
    18  H    0.000058   0.000024   0.000059   0.000051   0.000051   0.505943
    19  H   -0.000000  -0.000000  -0.000000  -0.000000  -0.000000  -0.001362
    20  H    0.000000  -0.000000   0.000000  -0.000000  -0.000000   0.000118
    21  H    0.000000  -0.000000   0.000000   0.000004   0.000004  -0.000066
              19         20         21
     1  C   -0.000000  -0.000000   0.000004
     2  C    0.000002  -0.000002   0.000235
     3  O   -0.000075   0.000007   0.000460
     4  C   -0.000270  -0.000488  -0.007288
     5  O    0.000003   0.000056   0.048990
     6  C    0.005058   0.008175  -0.020034
     7  C   -0.071254   0.000532  -0.000993
     8  C    0.440444   0.002311   0.000213
     9  N   -0.030727  -0.025680  -0.000573
    10  C    0.004237   0.433273   0.004602
    11  C    0.000058  -0.081055  -0.010941
    12  O    0.000015   0.007073   0.301713
    13  H   -0.000000   0.000000   0.000000
    14  H   -0.000000  -0.000000  -0.000000
    15  H   -0.000000   0.000000   0.000000
    16  H   -0.000000  -0.000000   0.000004
    17  H   -0.000000  -0.000000   0.000004
    18  H   -0.001362   0.000118  -0.000066
    19  H    0.524094  -0.000100  -0.000002
    20  H   -0.000100   0.515065  -0.000540
    21  H   -0.000002  -0.000540   0.326535
 Mulliken charges:
               1
     1  C   -0.329211
     2  C   -0.054558
     3  O   -0.267896
     4  C    0.473400
     5  O   -0.446139
     6  C   -0.095257
     7  C   -0.141674
     8  C   -0.040581
     9  N   -0.244275
    10  C   -0.088891
    11  C    0.242761
    12  O   -0.404988
    13  H    0.124210
    14  H    0.125541
    15  H    0.124209
    16  H    0.122355
    17  H    0.122371
    18  H    0.149811
    19  H    0.129879
    20  H    0.141255
    21  H    0.357679
 Sum of Mulliken charges =  -0.00000
 Mulliken charges with hydrogens summed into heavy atoms:
               1
     1  C    0.044748
     2  C    0.190168
     3  O   -0.267896
     4  C    0.473400
     5  O   -0.446139
     6  C   -0.095257
     7  C    0.008137
     8  C    0.089298
     9  N   -0.244275
    10  C    0.052365
    11  C    0.242761
    12  O   -0.047309
 Electronic spatial extent (au):  <R**2>=           2401.9996
 Charge=             -0.0000 electrons
 Dipole moment (field-independent basis, Debye):
    X=             -4.2202    Y=             -1.1922    Z=             -0.0001  Tot=              4.3853
 Quadrupole moment (field-independent basis, Debye-Ang):
   XX=            -68.0210   YY=            -71.4677   ZZ=            -69.8812
   XY=              3.3570   XZ=              0.0000   YZ=             -0.0001
 Traceless Quadrupole moment (field-independent basis, Debye-Ang):
   XX=              1.7690   YY=             -1.6777   ZZ=             -0.0913
   XY=              3.3570   XZ=              0.0000   YZ=             -0.0001
 Octapole moment (field-independent basis, Debye-Ang**2):
  XXX=            -81.8206  YYY=             -7.2474  ZZZ=             -0.0006  XYY=             -6.1704
  XXY=             17.9291  XXZ=             -0.0010  XZZ=             -8.6826  YZZ=              6.5338
  YYZ=             -0.0015  XYZ=              0.0004
 Hexadecapole moment (field-independent basis, Debye-Ang**3):
 XXXX=          -2317.2737 YYYY=           -685.4896 ZZZZ=            -83.1541 XXXY=             90.1019
 XXXZ=              0.0065 YYYX=            -12.8960 YYYZ=              0.0033 ZZZX=              0.0022
 ZZZY=             -0.0015 XXYY=           -547.3053 XXZZ=           -412.6045 YYZZ=           -136.1129
 XXYZ=              0.0019 YYXZ=             -0.0007 ZZXY=              5.5979
 N-N= 6.866413551468D+02 E-N=-2.753704085041D+03  KE= 5.879349394262D+02
 Breneman (CHELPG) radii used.
 Read replacement radii for each type of atom:
 Atom Element Radius
    1     6    1.50
    2     6    1.50
    3     8    1.70
    4     6    1.50
    5     8    1.70
    6     6    1.50
    7     6    1.50
    8     6    1.50
    9     7    1.70
   10     6    1.50
   11     6    1.50
   12     8    1.70
   13     1    1.45
   14     1    1.45
   15     1    1.45
   16     1    1.45
   17     1    1.45
   18     1    1.45
   19     1    1.45
   20     1    1.45
   21     1    1.45
 Generate Potential Derived Charges using the Breneman model, NDens= 1.
 Grid spacing= 0.300 Box extension= 2.800
 NStep X,Y,Z=   50     38     26   Total possible points=       49400
 Number of Points to Fit=   13719

 **********************************************************************

            Electrostatic Properties Using The SCF Density.

 **********************************************************************

       Atomic Center    1 is at  -4.070051 -0.982667  0.000250
       Atomic Center    2 is at  -3.120060  0.190842 -0.000160
       Atomic Center    3 is at  -1.783821 -0.324240 -0.000160
       Atomic Center    4 is at  -0.793840  0.552349 -0.000040
       Atomic Center    5 is at  -0.979028  1.757689  0.000000
       Atomic Center    6 is at   0.553540 -0.057542 -0.000030
       Atomic Center    7 is at   0.759478 -1.444902 -0.000060
       Atomic Center    8 is at   2.054768 -1.934814 -0.000030
       Atomic Center    9 is at   3.128399 -1.133855  0.000030
       Atomic Center   10 is at   2.951890  0.172496  0.000070
       Atomic Center   11 is at   1.680661  0.786847  0.000040
       Atomic Center   12 is at   1.614352  2.112247  0.000060
       Atomic Center   13 is at  -3.922182 -1.607428  0.892530
       Atomic Center   14 is at  -5.107591 -0.620026  0.000230
       Atomic Center   15 is at  -3.922332 -1.607918 -0.891710
       Atomic Center   16 is at  -3.252559  0.830222 -0.886350
       Atomic Center   17 is at  -3.252379  0.830702  0.885710
       Atomic Center   18 is at  -0.098612 -2.117681 -0.000120
       Atomic Center   19 is at   2.244247 -3.012094 -0.000060
       Atomic Center   20 is at   3.836651  0.818095  0.000110
       Atomic Center   21 is at   0.665632  2.361888  0.000000
   13719 points will be used for fitting atomic charges
 Fitting point charges to electrostatic potential
 Charges from ESP fit, RMS=   0.00307 RRMS=   0.21302:
 ESP charges:
               1
     1  C   -0.307987
     2  C    0.287139
     3  O   -0.329672
     4  C    0.625277
     5  O   -0.559313
     6  C   -0.042606
     7  C   -0.300001
     8  C    0.322082
     9  N   -0.577838
    10  C    0.283969
    11  C    0.185304
    12  O   -0.574490
    13  H    0.094199
    14  H    0.080223
    15  H    0.094192
    16  H    0.022596
    17  H    0.022559
    18  H    0.116577
    19  H    0.034785
    20  H    0.063663
    21  H    0.459343
 Sum of ESP charges =   0.00000
 ESP charges with hydrogens summed into heavy atoms:
               1
     1  C   -0.039373
     2  C    0.332294
     3  O   -0.329672
     4  C    0.625277
     5  O   -0.559313
     6  C   -0.042606
     7  C   -0.183425
     8  C    0.356867
     9  N   -0.577838
    10  C    0.347632
    11  C    0.185304
    12  O   -0.115147
 Charge=   0.00000 Dipole=    -4.1169    -1.2195    -0.0003 Tot=     4.2937
 -----------------------------------------------------------------

              Electrostatic Properties (Atomic Units)

 -----------------------------------------------------------------
    Center     Electric         -------- Electric Field --------
               Potential          X             Y             Z
 -----------------------------------------------------------------
    1 Atom    -14.754637
    2 Atom    -14.691304
    3 Atom    -22.290406
    4 Atom    -14.615451
    5 Atom    -22.352018
    6 Atom    -14.733613
    7 Atom    -14.747132
    8 Atom    -14.737548
    9 Atom    -18.389144
   10 Atom    -14.734258
   11 Atom    -14.684084
   12 Atom    -22.324999
   13 Atom     -1.100602
   14 Atom     -1.094123
   15 Atom     -1.100603
   16 Atom     -1.095389
   17 Atom     -1.095390
   18 Atom     -1.084358
   19 Atom     -1.104191
   20 Atom     -1.100063
   21 Atom     -0.975653
 -----------------------------------------------------------------
 Unable to Open any file for archive entry.
 1\1\GINC-NOTCH316\SP\RwB97XD\def2TZVP\C8H9N1O3\U6053008\12-Jul-2024\0\
 \#N Guess=Read Geom=Check Integral(Ultrafine) Density Pop=(ChelpG,Read
 Radii) NMR wB97XD def2TZVP\\12326192_2\\0,1\C,0,-4.07005,-0.98267,0.00
 025\C,0,-3.12006,0.19084,-0.00016\O,0,-1.78382,-0.32424,-0.00016\C,0,-
 0.79384,0.55235,-0.00004\O,0,-0.97903,1.75769,0.\C,0,0.55354,-0.05754,
 -0.00003\C,0,0.75948,-1.4449,-0.00006\C,0,2.05477,-1.93481,-0.00003\N,
 0,3.1284,-1.13385,0.00003\C,0,2.95189,0.1725,0.00007\C,0,1.68066,0.786
 85,0.00004\O,0,1.61435,2.11225,0.00006\H,0,-3.92218,-1.60743,0.89253\H
 ,0,-5.10759,-0.62003,0.00023\H,0,-3.92233,-1.60792,-0.89171\H,0,-3.252
 56,0.83022,-0.88635\H,0,-3.25238,0.8307,0.88571\H,0,-0.09861,-2.11768,
 -0.00012\H,0,2.24425,-3.01209,-0.00006\H,0,3.83665,0.8181,0.00011\H,0,
 0.66563,2.36189,0.\\Version=ES64L-G16RevC.01\State=1-A\HF=-590.7437024
 \RMSD=2.940e-09\Dipole=-1.6603412,-0.4690636,-0.0000547\Quadrupole=1.3
 151762,-1.2473324,-0.0678438,2.4958288,0.0000327,-0.0000747\PG=C01 [X(
 C8H9N1O3)]\\@
 The archive entry for this job was punched.


 It takes a long time to grow an old friend.
                            -- John Leonard
 Job cpu time:       0 days  0 hours 35 minutes 43.6 seconds.
 Elapsed time:       0 days  0 hours  2 minutes 21.0 seconds.
 File lengths (MBytes):  RWF=    119 Int=      0 D2E=      0 Chk=     18 Scr=      2
 Normal termination of Gaussian 16 at Fri Jul 12 13:18:32 2024.
