 Entering Gaussian System, Link 0=g16
 Input=12326824_3.com
 Output=12326824_3.log
 Initial command:
 /uufs/chpc.utah.edu/sys/installdir/gaussian16/C01/AVX/g16/l1.exe "/scratch/general/vast/u6053008/1287125-notchpeak.peaks/Gau-1294354.inp" -scrdir="/scratch/general/vast/u6053008/1287125-notchpeak.peaks/"
 Entering Link 1 = /uufs/chpc.utah.edu/sys/installdir/gaussian16/C01/AVX/g16/l1.exe PID=   1294355.
  
 Copyright (c) 1988-2019, Gaussian, Inc.  All Rights Reserved.
  
 This is part of the Gaussian(R) 16 program.  It is based on
 the Gaussian(R) 09 system (copyright 2009, Gaussian, Inc.),
 the Gaussian(R) 03 system (copyright 2003, Gaussian, Inc.),
 the Gaussian(R) 98 system (copyright 1998, Gaussian, Inc.),
 the Gaussian(R) 94 system (copyright 1995, Gaussian, Inc.),
 the Gaussian 92(TM) system (copyright 1992, Gaussian, Inc.),
 the Gaussian 90(TM) system (copyright 1990, Gaussian, Inc.),
 the Gaussian 88(TM) system (copyright 1988, Gaussian, Inc.),
 the Gaussian 86(TM) system (copyright 1986, Carnegie Mellon
 University), and the Gaussian 82(TM) system (copyright 1983,
 Carnegie Mellon University). Gaussian is a federally registered
 trademark of Gaussian, Inc.
  
 This software contains proprietary and confidential information,
 including trade secrets, belonging to Gaussian, Inc.
  
 This software is provided under written license and may be
 used, copied, transmitted, or stored only in accord with that
 written license.
  
 The following legend is applicable only to US Government
 contracts under FAR:
  
                    RESTRICTED RIGHTS LEGEND
  
 Use, reproduction and disclosure by the US Government is
 subject to restrictions as set forth in subparagraphs (a)
 and (c) of the Commercial Computer Software - Restricted
 Rights clause in FAR 52.227-19.
  
 Gaussian, Inc.
 340 Quinnipiac St., Bldg. 40, Wallingford CT 06492
  
  
 ---------------------------------------------------------------
 Warning -- This program may not be used in any manner that
 competes with the business of Gaussian, Inc. or will provide
 assistance to any competitor of Gaussian, Inc.  The licensee
 of this program is prohibited from giving any competitor of
 Gaussian, Inc. access to this program.  By using this program,
 the user acknowledges that Gaussian, Inc. is engaged in the
 business of creating and licensing software in the field of
 computational chemistry and represents and warrants to the
 licensee that it is not a competitor of Gaussian, Inc. and that
 it will not use this program in any manner prohibited above.
 ---------------------------------------------------------------
  

 Cite this work as:
 Gaussian 16, Revision C.01,
 M. J. Frisch, G. W. Trucks, H. B. Schlegel, G. E. Scuseria, 
 M. A. Robb, J. R. Cheeseman, G. Scalmani, V. Barone, 
 G. A. Petersson, H. Nakatsuji, X. Li, M. Caricato, A. V. Marenich, 
 J. Bloino, B. G. Janesko, R. Gomperts, B. Mennucci, H. P. Hratchian, 
 J. V. Ortiz, A. F. Izmaylov, J. L. Sonnenberg, D. Williams-Young, 
 F. Ding, F. Lipparini, F. Egidi, J. Goings, B. Peng, A. Petrone, 
 T. Henderson, D. Ranasinghe, V. G. Zakrzewski, J. Gao, N. Rega, 
 G. Zheng, W. Liang, M. Hada, M. Ehara, K. Toyota, R. Fukuda, 
 J. Hasegawa, M. Ishida, T. Nakajima, Y. Honda, O. Kitao, H. Nakai, 
 T. Vreven, K. Throssell, J. A. Montgomery, Jr., J. E. Peralta, 
 F. Ogliaro, M. J. Bearpark, J. J. Heyd, E. N. Brothers, K. N. Kudin, 
 V. N. Staroverov, T. A. Keith, R. Kobayashi, J. Normand, 
 K. Raghavachari, A. P. Rendell, J. C. Burant, S. S. Iyengar, 
 J. Tomasi, M. Cossi, J. M. Millam, M. Klene, C. Adamo, R. Cammi, 
 J. W. Ochterski, R. L. Martin, K. Morokuma, O. Farkas, 
 J. B. Foresman, and D. J. Fox, Gaussian, Inc., Wallingford CT, 2019.
 
 ******************************************
 Gaussian 16:  ES64L-G16RevC.01  3-Jul-2019
                12-Jul-2024 
 ******************************************
 %NProcShared=16
 Will use up to   16 processors via shared memory.
 %Mem=32GB
 %chk=12326824_3.chk
 ------------------------------------------------------
 #N OPT FREQ=NORAMAN Integral(Ultrafine) wB97XD def2SVP
 ------------------------------------------------------
 1/18=20,19=15,26=4,38=1/1,3;
 2/9=110,12=2,17=6,18=5,40=1/2;
 3/5=43,7=101,11=2,25=1,30=1,71=1,74=-58,75=-5/1,2,3;
 4//1;
 5/5=2,38=5/2;
 6/7=2,8=2,9=2,10=2,28=1/1;
 7//1,2,3,16;
 1/18=20,19=15,26=4/3(2);
 2/9=110/2;
 99//99;
 2/9=110/2;
 3/5=43,7=101,11=2,25=1,30=1,71=1,74=-58,75=-5/1,2,3;
 4/5=5,16=3,69=1/1;
 5/5=2,38=5/2;
 7//1,2,3,16;
 1/18=20,19=15,26=4/3(-5);
 2/9=110/2;
 6/7=2,8=2,9=2,10=2,19=2,28=1/1;
 99/9=1/99;
 ----------
 12326824_3
 ----------
 Symbolic Z-matrix:
 Charge =  0 Multiplicity = 1
 C                    -3.73442   0.91973   0.68218 
 C                    -3.22214   0.33843  -0.6211 
 O                    -1.80313   0.18458  -0.60701 
 C                    -1.31291  -0.90115  -0.01267 
 O                    -2.0041   -1.76868   0.46359 
 C                     0.17963  -0.9794   -0.0329 
 C                     0.73032  -2.25117   0.16282 
 N                     2.02898  -2.52923   0.167 
 C                     2.85427  -1.50232  -0.0183 
 C                     2.44249  -0.18731  -0.2038 
 C                     1.06951   0.1045   -0.21174 
 O                     0.56878   1.32933  -0.36575 
 C                     1.41083   2.46231  -0.4841 
 C                     1.9295    2.94274   0.8594 
 H                    -4.81615   1.10596   0.60993 
 H                    -3.23205   1.87196   0.90657 
 H                    -3.56119   0.22077   1.51206 
 H                    -3.69038  -0.63509  -0.82706 
 H                    -3.41921   1.01521  -1.46322 
 H                     0.03762  -3.08357   0.3207 
 H                     3.92641  -1.72906  -0.01347 
 H                     3.19362   0.59082  -0.33048 
 H                     0.7734    3.23021  -0.94299 
 H                     2.23201   2.25947  -1.19213 
 H                     1.08986   3.15769   1.5355 
 H                     2.51384   3.86517   0.72764 
 H                     2.57466   2.19505   1.3427 
 

 GradGradGradGradGradGradGradGradGradGradGradGradGradGradGradGradGradGrad
 Berny optimization.
 Initialization pass.
                           ----------------------------
                           !    Initial Parameters    !
                           ! (Angstroms and Degrees)  !
 --------------------------                            --------------------------
 ! Name  Definition              Value          Derivative Info.                !
 --------------------------------------------------------------------------------
 ! R1    R(1,2)                  1.5162         estimate D2E/DX2                !
 ! R2    R(1,15)                 1.1            estimate D2E/DX2                !
 ! R3    R(1,16)                 1.0998         estimate D2E/DX2                !
 ! R4    R(1,17)                 1.0988         estimate D2E/DX2                !
 ! R5    R(2,3)                  1.4274         estimate D2E/DX2                !
 ! R6    R(2,18)                 1.0997         estimate D2E/DX2                !
 ! R7    R(2,19)                 1.0982         estimate D2E/DX2                !
 ! R8    R(3,4)                  1.3313         estimate D2E/DX2                !
 ! R9    R(4,5)                  1.2071         estimate D2E/DX2                !
 ! R10   R(4,6)                  1.4947         estimate D2E/DX2                !
 ! R11   R(6,7)                  1.3996         estimate D2E/DX2                !
 ! R12   R(6,11)                 1.4138         estimate D2E/DX2                !
 ! R13   R(7,8)                  1.3281         estimate D2E/DX2                !
 ! R14   R(7,20)                 1.0944         estimate D2E/DX2                !
 ! R15   R(8,9)                  1.3304         estimate D2E/DX2                !
 ! R16   R(9,10)                 1.3904         estimate D2E/DX2                !
 ! R17   R(9,21)                 1.0959         estimate D2E/DX2                !
 ! R18   R(10,11)                1.4037         estimate D2E/DX2                !
 ! R19   R(10,22)                1.0889         estimate D2E/DX2                !
 ! R20   R(11,12)                1.3322         estimate D2E/DX2                !
 ! R21   R(12,13)                1.4166         estimate D2E/DX2                !
 ! R22   R(13,14)                1.5182         estimate D2E/DX2                !
 ! R23   R(13,23)                1.0984         estimate D2E/DX2                !
 ! R24   R(13,24)                1.1031         estimate D2E/DX2                !
 ! R25   R(14,25)                1.0992         estimate D2E/DX2                !
 ! R26   R(14,26)                1.0999         estimate D2E/DX2                !
 ! R27   R(14,27)                1.0995         estimate D2E/DX2                !
 ! A1    A(2,1,15)             109.9197         estimate D2E/DX2                !
 ! A2    A(2,1,16)             110.6712         estimate D2E/DX2                !
 ! A3    A(2,1,17)             110.6137         estimate D2E/DX2                !
 ! A4    A(15,1,16)            108.4224         estimate D2E/DX2                !
 ! A5    A(15,1,17)            108.2006         estimate D2E/DX2                !
 ! A6    A(16,1,17)            108.9461         estimate D2E/DX2                !
 ! A7    A(1,2,3)              111.6369         estimate D2E/DX2                !
 ! A8    A(1,2,18)             110.8864         estimate D2E/DX2                !
 ! A9    A(1,2,19)             111.2374         estimate D2E/DX2                !
 ! A10   A(3,2,18)             109.2512         estimate D2E/DX2                !
 ! A11   A(3,2,19)             104.6188         estimate D2E/DX2                !
 ! A12   A(18,2,19)            108.9972         estimate D2E/DX2                !
 ! A13   A(2,3,4)              117.2821         estimate D2E/DX2                !
 ! A14   A(3,4,5)              123.4629         estimate D2E/DX2                !
 ! A15   A(3,4,6)              113.8497         estimate D2E/DX2                !
 ! A16   A(5,4,6)              122.6473         estimate D2E/DX2                !
 ! A17   A(4,6,7)              116.0117         estimate D2E/DX2                !
 ! A18   A(4,6,11)             126.164          estimate D2E/DX2                !
 ! A19   A(7,6,11)             117.8186         estimate D2E/DX2                !
 ! A20   A(6,7,8)              125.1285         estimate D2E/DX2                !
 ! A21   A(6,7,20)             117.5334         estimate D2E/DX2                !
 ! A22   A(8,7,20)             117.3376         estimate D2E/DX2                !
 ! A23   A(7,8,9)              116.3935         estimate D2E/DX2                !
 ! A24   A(8,9,10)             124.3945         estimate D2E/DX2                !
 ! A25   A(8,9,21)             116.5245         estimate D2E/DX2                !
 ! A26   A(10,9,21)            119.0794         estimate D2E/DX2                !
 ! A27   A(9,10,11)            119.1472         estimate D2E/DX2                !
 ! A28   A(9,10,22)            119.1486         estimate D2E/DX2                !
 ! A29   A(11,10,22)           121.702          estimate D2E/DX2                !
 ! A30   A(6,11,10)            117.1022         estimate D2E/DX2                !
 ! A31   A(6,11,12)            118.8776         estimate D2E/DX2                !
 ! A32   A(10,11,12)           124.018          estimate D2E/DX2                !
 ! A33   A(11,12,13)           121.4388         estimate D2E/DX2                !
 ! A34   A(12,13,14)           112.4729         estimate D2E/DX2                !
 ! A35   A(12,13,23)           104.4232         estimate D2E/DX2                !
 ! A36   A(12,13,24)           110.4304         estimate D2E/DX2                !
 ! A37   A(14,13,23)           110.2875         estimate D2E/DX2                !
 ! A38   A(14,13,24)           111.8314         estimate D2E/DX2                !
 ! A39   A(23,13,24)           107.002          estimate D2E/DX2                !
 ! A40   A(13,14,25)           110.1954         estimate D2E/DX2                !
 ! A41   A(13,14,26)           109.9317         estimate D2E/DX2                !
 ! A42   A(13,14,27)           111.9792         estimate D2E/DX2                !
 ! A43   A(25,14,26)           108.3911         estimate D2E/DX2                !
 ! A44   A(25,14,27)           108.1091         estimate D2E/DX2                !
 ! A45   A(26,14,27)           108.1342         estimate D2E/DX2                !
 ! D1    D(15,1,2,3)           175.2055         estimate D2E/DX2                !
 ! D2    D(15,1,2,18)          -62.7204         estimate D2E/DX2                !
 ! D3    D(15,1,2,19)           58.7527         estimate D2E/DX2                !
 ! D4    D(16,1,2,3)            55.4708         estimate D2E/DX2                !
 ! D5    D(16,1,2,18)          177.545          estimate D2E/DX2                !
 ! D6    D(16,1,2,19)          -60.9819         estimate D2E/DX2                !
 ! D7    D(17,1,2,3)           -65.3713         estimate D2E/DX2                !
 ! D8    D(17,1,2,18)           56.7028         estimate D2E/DX2                !
 ! D9    D(17,1,2,19)          178.1759         estimate D2E/DX2                !
 ! D10   D(1,2,3,4)             81.9514         estimate D2E/DX2                !
 ! D11   D(18,2,3,4)           -41.0589         estimate D2E/DX2                !
 ! D12   D(19,2,3,4)          -157.6379         estimate D2E/DX2                !
 ! D13   D(2,3,4,5)              2.7113         estimate D2E/DX2                !
 ! D14   D(2,3,4,6)           -179.5397         estimate D2E/DX2                !
 ! D15   D(3,4,6,7)           -159.7223         estimate D2E/DX2                !
 ! D16   D(3,4,6,11)            21.1713         estimate D2E/DX2                !
 ! D17   D(5,4,6,7)             18.0475         estimate D2E/DX2                !
 ! D18   D(5,4,6,11)          -161.0589         estimate D2E/DX2                !
 ! D19   D(4,6,7,8)            179.3471         estimate D2E/DX2                !
 ! D20   D(4,6,7,20)            -0.3773         estimate D2E/DX2                !
 ! D21   D(11,6,7,8)            -1.4685         estimate D2E/DX2                !
 ! D22   D(11,6,7,20)          178.807          estimate D2E/DX2                !
 ! D23   D(4,6,11,10)         -179.7334         estimate D2E/DX2                !
 ! D24   D(4,6,11,12)            0.7781         estimate D2E/DX2                !
 ! D25   D(7,6,11,10)            1.1746         estimate D2E/DX2                !
 ! D26   D(7,6,11,12)         -178.3139         estimate D2E/DX2                !
 ! D27   D(6,7,8,9)              0.6802         estimate D2E/DX2                !
 ! D28   D(20,7,8,9)          -179.5948         estimate D2E/DX2                !
 ! D29   D(7,8,9,10)             0.3654         estimate D2E/DX2                !
 ! D30   D(7,8,9,21)           179.895          estimate D2E/DX2                !
 ! D31   D(8,9,10,11)           -0.5527         estimate D2E/DX2                !
 ! D32   D(8,9,10,22)          178.9187         estimate D2E/DX2                !
 ! D33   D(21,9,10,11)         179.9289         estimate D2E/DX2                !
 ! D34   D(21,9,10,22)          -0.5997         estimate D2E/DX2                !
 ! D35   D(9,10,11,6)           -0.2668         estimate D2E/DX2                !
 ! D36   D(9,10,11,12)         179.1929         estimate D2E/DX2                !
 ! D37   D(22,10,11,6)        -179.7241         estimate D2E/DX2                !
 ! D38   D(22,10,11,12)         -0.2644         estimate D2E/DX2                !
 ! D39   D(6,11,12,13)         176.9115         estimate D2E/DX2                !
 ! D40   D(10,11,12,13)         -2.5392         estimate D2E/DX2                !
 ! D41   D(11,12,13,14)        -79.8349         estimate D2E/DX2                !
 ! D42   D(11,12,13,23)        160.5728         estimate D2E/DX2                !
 ! D43   D(11,12,13,24)         45.865          estimate D2E/DX2                !
 ! D44   D(12,13,14,25)        -56.3153         estimate D2E/DX2                !
 ! D45   D(12,13,14,26)       -175.7199         estimate D2E/DX2                !
 ! D46   D(12,13,14,27)         64.0563         estimate D2E/DX2                !
 ! D47   D(23,13,14,25)         59.8073         estimate D2E/DX2                !
 ! D48   D(23,13,14,26)        -59.5973         estimate D2E/DX2                !
 ! D49   D(23,13,14,27)       -179.8211         estimate D2E/DX2                !
 ! D50   D(24,13,14,25)        178.749          estimate D2E/DX2                !
 ! D51   D(24,13,14,26)         59.3444         estimate D2E/DX2                !
 ! D52   D(24,13,14,27)        -60.8794         estimate D2E/DX2                !
 --------------------------------------------------------------------------------
 Trust Radius=3.00D-01 FncErr=1.00D-07 GrdErr=1.00D-06 EigMax=2.50D+02 EigMin=1.00D-04
 Number of steps in this run=    134 maximum allowed number of steps=    162.
 GradGradGradGradGradGradGradGradGradGradGradGradGradGradGradGradGradGrad

                          Input orientation:                          
 ---------------------------------------------------------------------
 Center     Atomic      Atomic             Coordinates (Angstroms)
 Number     Number       Type             X           Y           Z
 ---------------------------------------------------------------------
      1          6           0       -3.734420    0.919730    0.682180
      2          6           0       -3.222140    0.338430   -0.621100
      3          8           0       -1.803130    0.184580   -0.607010
      4          6           0       -1.312910   -0.901150   -0.012670
      5          8           0       -2.004100   -1.768680    0.463590
      6          6           0        0.179630   -0.979400   -0.032900
      7          6           0        0.730320   -2.251170    0.162820
      8          7           0        2.028980   -2.529230    0.167000
      9          6           0        2.854270   -1.502320   -0.018300
     10          6           0        2.442490   -0.187310   -0.203800
     11          6           0        1.069510    0.104500   -0.211740
     12          8           0        0.568780    1.329330   -0.365750
     13          6           0        1.410830    2.462310   -0.484100
     14          6           0        1.929500    2.942740    0.859400
     15          1           0       -4.816150    1.105960    0.609930
     16          1           0       -3.232050    1.871960    0.906570
     17          1           0       -3.561190    0.220770    1.512060
     18          1           0       -3.690380   -0.635090   -0.827060
     19          1           0       -3.419210    1.015210   -1.463220
     20          1           0        0.037620   -3.083570    0.320700
     21          1           0        3.926410   -1.729060   -0.013470
     22          1           0        3.193620    0.590820   -0.330480
     23          1           0        0.773400    3.230210   -0.942990
     24          1           0        2.232010    2.259470   -1.192130
     25          1           0        1.089860    3.157690    1.535500
     26          1           0        2.513840    3.865170    0.727640
     27          1           0        2.574660    2.195050    1.342700
 ---------------------------------------------------------------------
                    Distance matrix (angstroms):
                    1          2          3          4          5
     1  C    0.000000
     2  C    1.516206   0.000000
     3  O    2.435639   1.427395   0.000000
     4  C    3.108397   2.356248   1.331302   0.000000
     5  O    3.204581   2.664599   2.236470   1.207135   0.000000
     6  C    4.408834   3.695226   2.369766   1.494727   2.374477
     7  C    5.500749   4.789833   3.597761   2.455227   2.792904
     8  N    6.736283   6.034802   4.759088   3.721714   4.114868
     9  C    7.054632   6.377655   4.988345   4.210324   4.889471
    10  C    6.337564   5.704259   4.280908   3.827418   4.766372
    11  C    4.953931   4.317471   2.900812   2.593624   3.662233
    12  O    4.447860   3.926597   2.644734   2.939467   4.111591
    13  C    5.496668   5.098436   3.941155   4.353604   5.519161
    14  C    6.016973   5.959338   4.867271   5.103844   6.150395
    15  H    1.100019   2.155320   3.377599   4.085194   4.024002
    16  H    1.099758   2.164622   2.679550   3.495460   3.867603
    17  H    1.098751   2.163139   2.753642   2.939093   2.735275
    18  H    2.167305   1.099732   2.069298   2.527129   2.407144
    19  H    2.170533   1.098196   2.008670   3.195783   3.669493
    20  H    5.512292   4.819036   3.863911   2.588054   2.432689
    21  H    8.135621   7.466291   6.069756   5.304329   5.949799
    22  H    7.009379   6.427296   5.020858   4.757709   5.763166
    23  H    5.319768   4.942706   4.003405   4.720839   5.889132
    24  H    6.395798   5.810699   4.574920   4.893578   6.075527
    25  H    5.386121   5.585024   4.668953   4.964304   5.915294
    26  H    6.907853   6.867202   5.827887   6.157100   7.226463
    27  H    6.470488   6.395814   5.196961   5.151377   6.119562
                    6          7          8          9         10
     6  C    0.000000
     7  C    1.399630   0.000000
     8  N    2.421163   1.328101   0.000000
     9  C    2.725318   2.259368   1.330407   0.000000
    10  C    2.403570   2.706558   2.406880   1.390404   0.000000
    11  C    1.413757   2.409258   2.828526   2.409286   1.403670
    12  O    2.364838   3.622908   4.159867   3.655465   2.416033
    13  C    3.683043   4.806089   5.071638   4.244853   2.857162
    14  C    4.386505   5.375868   5.516500   4.624296   3.345260
    15  H    5.451585   6.498735   7.763156   8.126078   7.417719
    16  H    4.544493   5.766606   6.898976   7.020288   6.137908
    17  H    4.221498   5.133030   6.373514   6.816830   6.257386
    18  H    3.965629   4.809799   6.106308   6.651212   6.180700
    19  H    4.356137   5.525563   6.701003   6.912474   6.114877
    20  H    2.138395   1.094372   2.072783   3.247890   3.800898
    21  H    3.821090   3.243250   2.067143   1.095864   2.148310
    22  H    3.411492   3.793165   3.367281   2.143327   1.088912
    23  H    4.347602   5.591976   5.998309   5.251848   3.874494
    24  H    4.005790   4.943363   4.981978   3.989505   2.647231
    25  H    4.517069   5.591895   5.924171   5.219495   4.005471
    26  H    5.431097   6.396060   6.437217   5.429758   4.158758
    27  H    4.207800   4.956065   4.898863   3.949816   2.843373
                   11         12         13         14         15
    11  C    0.000000
    12  O    1.332163   0.000000
    13  C    2.397905   1.416580   0.000000
    14  C    3.153178   2.440419   1.518165   0.000000
    15  H    6.026529   5.477163   6.466210   6.995698   0.000000
    16  H    4.783090   4.044695   4.882500   5.271659   1.784411
    17  H    4.942508   4.670303   5.807765   6.163016   1.781102
    18  H    4.856147   4.712982   5.977780   6.872268   2.522608
    19  H    4.748074   4.148153   5.136347   6.141550   2.501525
    20  H    3.392946   4.497447   5.769765   6.339229   6.418325
    21  H    3.400460   4.555385   4.910928   5.155120   9.211858
    22  H    2.182304   2.726981   2.589288   2.923242   8.081222
    23  H    3.223736   1.997103   1.098439   2.160513   6.177950
    24  H    2.637511   2.077113   1.103081   2.183379   7.365770
    25  H    3.517845   2.688713   2.159944   1.099232   6.320382
    26  H    4.136564   3.377757   2.157072   1.099860   7.832997
    27  H    3.008681   2.773414   2.182459   1.099477   7.506473
                   16         17         18         19         20
    16  H    0.000000
    17  H    1.789240   0.000000
    18  H    3.082343   2.494127   0.000000
    19  H    2.526847   3.082788   1.789336   0.000000
    20  H    5.965841   5.028860   4.605474   5.650844   0.000000
    21  H    8.065815   7.886269   7.737841   7.974392   4.131471
    22  H    6.667897   7.011373   7.009915   6.722554   4.887281
    23  H    4.616205   5.820023   5.905871   4.770204   6.480903
    24  H    5.866060   6.710448   6.602004   5.792923   5.970936
    25  H    4.552753   5.500756   6.543513   5.823595   6.444864
    26  H    6.084419   7.127619   7.820600   6.937090   7.387980
    27  H    5.832022   6.447877   7.208903   6.722476   5.945156
                   21         22         23         24         25
    21  H    0.000000
    22  H    2.453430   0.000000
    23  H    5.949776   3.633045   0.000000
    24  H    4.490947   2.109864   1.769732   0.000000
    25  H    5.858810   3.807428   2.499664   3.090513   0.000000
    26  H    5.817216   3.507576   2.494656   2.518574   1.783504
    27  H    4.366356   2.399208   3.088766   2.558695   1.780022
                   26         27
    26  H    0.000000
    27  H    1.780814   0.000000
 Stoichiometry    C10H13NO3
 Framework group  C1[X(C10H13NO3)]
 Deg. of freedom    75
 Full point group                 C1      NOp   1
 Largest Abelian subgroup         C1      NOp   1
 Largest concise Abelian subgroup C1      NOp   1
                         Standard orientation:                         
 ---------------------------------------------------------------------
 Center     Atomic      Atomic             Coordinates (Angstroms)
 Number     Number       Type             X           Y           Z
 ---------------------------------------------------------------------
      1          6           0       -3.734422    0.919728    0.682179
      2          6           0       -3.222142    0.338428   -0.621101
      3          8           0       -1.803132    0.184579   -0.607011
      4          6           0       -1.312911   -0.901151   -0.012671
      5          8           0       -2.004101   -1.768681    0.463589
      6          6           0        0.179629   -0.979400   -0.032901
      7          6           0        0.730320   -2.251169    0.162819
      8          7           0        2.028980   -2.529229    0.166999
      9          6           0        2.854269   -1.502318   -0.018301
     10          6           0        2.442488   -0.187308   -0.203801
     11          6           0        1.069508    0.104501   -0.211741
     12          8           0        0.568777    1.329331   -0.365751
     13          6           0        1.410827    2.462311   -0.484101
     14          6           0        1.929496    2.942741    0.859399
     15          1           0       -4.816152    1.105957    0.609929
     16          1           0       -3.232053    1.871958    0.906569
     17          1           0       -3.561192    0.220768    1.512059
     18          1           0       -3.690381   -0.635092   -0.827061
     19          1           0       -3.419212    1.015208   -1.463221
     20          1           0        0.037620   -3.083570    0.320699
     21          1           0        3.926409   -1.729057   -0.013471
     22          1           0        3.193618    0.590822   -0.330481
     23          1           0        0.773396    3.230211   -0.942991
     24          1           0        2.232007    2.259472   -1.192131
     25          1           0        1.089856    3.157691    1.535499
     26          1           0        2.513836    3.865172    0.727639
     27          1           0        2.574657    2.195052    1.342699
 ---------------------------------------------------------------------
 Rotational constants (GHZ):           0.8733079           0.5512362           0.3614527
 Standard basis: def2SVP (5D, 7F)
 There are   275 symmetry adapted cartesian basis functions of A   symmetry.
 There are   261 symmetry adapted basis functions of A   symmetry.
   261 basis functions,   441 primitive gaussians,   275 cartesian basis functions
    52 alpha electrons       52 beta electrons
       nuclear repulsion energy       905.0304561746 Hartrees.
 NAtoms=   27 NActive=   27 NUniq=   27 SFac= 1.00D+00 NAtFMM=   60 NAOKFM=F Big=F
 Integral buffers will be    131072 words long.
 Raffenetti 2 integral format.
 Two-electron integral symmetry is turned on.
 Nuclear repulsion after empirical dispersion term =      905.0150400431 Hartrees.
 One-electron integrals computed using PRISM.
   1 Symmetry operations used in ECPInt.
 ECPInt:  NShTT=    7626 NPrTT=   27482 LenC2=    7263 LenP2D=   18914.
 LDataN:  DoStor=T MaxTD1= 4 Len=   56
 NBasis=   261 RedAO= T EigKep=  5.24D-04  NBF=   261
 NBsUse=   261 1.00D-06 EigRej= -1.00D+00 NBFU=   261
 ExpMin= 1.22D-01 ExpMax= 2.27D+03 ExpMxC= 3.41D+02 IAcc=3 IRadAn=         5 AccDes= 0.00D+00
 Harris functional with IExCor= 4639 and IRadAn=       5 diagonalized for initial guess.
 HarFok:  IExCor= 4639 AccDes= 0.00D+00 IRadAn=         5 IDoV= 1 UseB2=F ITyADJ=14
 ICtDFT=  3500011 ScaDFX=  1.000000  1.000000  1.000000  1.000000
 FoFCou: FMM=F IPFlag=           0 FMFlag=      100000 FMFlg1=           0
         NFxFlg=           0 DoJE=T BraDBF=F KetDBF=T FulRan=T
         wScrn=  0.000000 ICntrl=       500 IOpCl=  0 I1Cent=   200000004 NGrid=           0
         NMat0=    1 NMatS0=      1 NMatT0=    0 NMatD0=    1 NMtDS0=    0 NMtDT0=    0
 Petite list used in FoFCou.
 Requested convergence on RMS density matrix=1.00D-08 within 128 cycles.
 Requested convergence on MAX density matrix=1.00D-06.
 Requested convergence on             energy=1.00D-06.
 No special actions if energy rises.
 Integral accuracy reduced to 1.0D-05 until final iterations.
 Initial convergence to 1.0D-05 achieved.  Increase integral accuracy.
 SCF Done:  E(RwB97XD) =  -668.617705801     A.U. after   15 cycles
            NFock= 15  Conv=0.84D-08     -V/T= 2.0098

 **********************************************************************

            Population analysis using the SCF Density.

 **********************************************************************

 Orbital symmetries:
       Occupied  (A) (A) (A) (A) (A) (A) (A) (A) (A) (A) (A) (A)
                 (A) (A) (A) (A) (A) (A) (A) (A) (A) (A) (A) (A)
                 (A) (A) (A) (A) (A) (A) (A) (A) (A) (A) (A) (A)
                 (A) (A) (A) (A) (A) (A) (A) (A) (A) (A) (A) (A)
                 (A) (A) (A) (A)
       Virtual   (A) (A) (A) (A) (A) (A) (A) (A) (A) (A) (A) (A)
                 (A) (A) (A) (A) (A) (A) (A) (A) (A) (A) (A) (A)
                 (A) (A) (A) (A) (A) (A) (A) (A) (A) (A) (A) (A)
                 (A) (A) (A) (A) (A) (A) (A) (A) (A) (A) (A) (A)
                 (A) (A) (A) (A) (A) (A) (A) (A) (A) (A) (A) (A)
                 (A) (A) (A) (A) (A) (A) (A) (A) (A) (A) (A) (A)
                 (A) (A) (A) (A) (A) (A) (A) (A) (A) (A) (A) (A)
                 (A) (A) (A) (A) (A) (A) (A) (A) (A) (A) (A) (A)
                 (A) (A) (A) (A) (A) (A) (A) (A) (A) (A) (A) (A)
                 (A) (A) (A) (A) (A) (A) (A) (A) (A) (A) (A) (A)
                 (A) (A) (A) (A) (A) (A) (A) (A) (A) (A) (A) (A)
                 (A) (A) (A) (A) (A) (A) (A) (A) (A) (A) (A) (A)
                 (A) (A) (A) (A) (A) (A) (A) (A) (A) (A) (A) (A)
                 (A) (A) (A) (A) (A) (A) (A) (A) (A) (A) (A) (A)
                 (A) (A) (A) (A) (A) (A) (A) (A) (A) (A) (A) (A)
                 (A) (A) (A) (A) (A) (A) (A) (A) (A) (A) (A) (A)
                 (A) (A) (A) (A) (A) (A) (A) (A) (A) (A) (A) (A)
                 (A) (A) (A) (A) (A)
 The electronic state is 1-A.
 Alpha  occ. eigenvalues --  -19.30653 -19.29672 -19.23782 -14.43499 -10.42863
 Alpha  occ. eigenvalues --  -10.39502 -10.37251 -10.35363 -10.34458 -10.33972
 Alpha  occ. eigenvalues --  -10.31704 -10.31409 -10.31129 -10.29492  -1.20273
 Alpha  occ. eigenvalues --   -1.18753  -1.10530  -1.04254  -0.91926  -0.87752
 Alpha  occ. eigenvalues --   -0.86731  -0.85495  -0.76995  -0.76749  -0.72776
 Alpha  occ. eigenvalues --   -0.69866  -0.65697  -0.63938  -0.62053  -0.60315
 Alpha  occ. eigenvalues --   -0.57537  -0.56282  -0.55957  -0.54985  -0.54340
 Alpha  occ. eigenvalues --   -0.53453  -0.52336  -0.50703  -0.49342  -0.48624
 Alpha  occ. eigenvalues --   -0.48565  -0.46806  -0.46239  -0.45206  -0.44182
 Alpha  occ. eigenvalues --   -0.42818  -0.40739  -0.38288  -0.36634  -0.34742
 Alpha  occ. eigenvalues --   -0.33852  -0.33180
 Alpha virt. eigenvalues --    0.01970   0.05316   0.12171   0.12811   0.14933
 Alpha virt. eigenvalues --    0.15834   0.17348   0.18138   0.19026   0.19426
 Alpha virt. eigenvalues --    0.19776   0.21134   0.21331   0.22054   0.22279
 Alpha virt. eigenvalues --    0.24049   0.24104   0.24310   0.25060   0.27901
 Alpha virt. eigenvalues --    0.29022   0.29500   0.32179   0.33768   0.36083
 Alpha virt. eigenvalues --    0.37249   0.39038   0.40844   0.42560   0.47246
 Alpha virt. eigenvalues --    0.47722   0.48809   0.49788   0.50367   0.50511
 Alpha virt. eigenvalues --    0.51110   0.52012   0.52308   0.54649   0.55480
 Alpha virt. eigenvalues --    0.55896   0.58244   0.59241   0.60200   0.61543
 Alpha virt. eigenvalues --    0.63108   0.65884   0.66798   0.67403   0.68336
 Alpha virt. eigenvalues --    0.68867   0.69661   0.70680   0.71410   0.71754
 Alpha virt. eigenvalues --    0.72776   0.73234   0.73631   0.74253   0.74862
 Alpha virt. eigenvalues --    0.75042   0.75979   0.76605   0.77471   0.78007
 Alpha virt. eigenvalues --    0.78513   0.78838   0.79153   0.80359   0.81319
 Alpha virt. eigenvalues --    0.83086   0.84499   0.85704   0.86896   0.91654
 Alpha virt. eigenvalues --    0.93748   0.95353   0.98737   0.99862   1.00976
 Alpha virt. eigenvalues --    1.01873   1.04132   1.08480   1.10705   1.12830
 Alpha virt. eigenvalues --    1.13628   1.14578   1.17904   1.19822   1.20643
 Alpha virt. eigenvalues --    1.24146   1.25519   1.26901   1.29563   1.30677
 Alpha virt. eigenvalues --    1.33693   1.34495   1.37229   1.40097   1.40761
 Alpha virt. eigenvalues --    1.42808   1.43774   1.44617   1.46887   1.48984
 Alpha virt. eigenvalues --    1.50961   1.53692   1.57897   1.58937   1.60273
 Alpha virt. eigenvalues --    1.61451   1.63155   1.64347   1.69705   1.73678
 Alpha virt. eigenvalues --    1.74248   1.76094   1.76979   1.79469   1.80546
 Alpha virt. eigenvalues --    1.82183   1.82503   1.83350   1.84784   1.84816
 Alpha virt. eigenvalues --    1.85412   1.86253   1.86903   1.87479   1.88125
 Alpha virt. eigenvalues --    1.88243   1.89893   1.90299   1.91941   1.93817
 Alpha virt. eigenvalues --    1.93991   1.94940   1.96741   1.98004   1.99180
 Alpha virt. eigenvalues --    2.00552   2.00928   2.02175   2.02900   2.06606
 Alpha virt. eigenvalues --    2.09680   2.11492   2.12734   2.15056   2.18381
 Alpha virt. eigenvalues --    2.19322   2.19917   2.23602   2.26808   2.28489
 Alpha virt. eigenvalues --    2.30073   2.31117   2.35612   2.37035   2.41655
 Alpha virt. eigenvalues --    2.42570   2.43804   2.43940   2.44535   2.47993
 Alpha virt. eigenvalues --    2.48363   2.49494   2.56747   2.57790   2.59120
 Alpha virt. eigenvalues --    2.61146   2.62522   2.64080   2.70044   2.70926
 Alpha virt. eigenvalues --    2.73099   2.74339   2.77075   2.78494   2.80679
 Alpha virt. eigenvalues --    2.83226   2.83717   2.86090   2.90116   2.91041
 Alpha virt. eigenvalues --    2.92300   2.96886   2.98681   3.00267   3.01545
 Alpha virt. eigenvalues --    3.03475   3.04854   3.05792   3.07958   3.09868
 Alpha virt. eigenvalues --    3.10792   3.12560   3.15916   3.18424   3.20369
 Alpha virt. eigenvalues --    3.29538   3.31775   3.40413   3.50305   3.55670
 Alpha virt. eigenvalues --    3.60656   3.69663   3.78216   3.82761
          Condensed to atoms (all electrons):
               1          2          3          4          5          6
     1  C    4.609688   0.445160  -0.036753  -0.008842  -0.008877  -0.001394
     2  C    0.445160   4.455438   0.252683  -0.031992   0.002412   0.010736
     3  O   -0.036753   0.252683   7.949126   0.412867  -0.083713  -0.131417
     4  C   -0.008842  -0.031992   0.412867   4.571077   0.723530   0.108533
     5  O   -0.008877   0.002412  -0.083713   0.723530   7.697671  -0.136036
     6  C   -0.001394   0.010736  -0.131417   0.108533  -0.136036   5.861481
     7  C    0.000004  -0.000373   0.001839  -0.025599   0.014291   0.449824
     8  N    0.000000   0.000001  -0.000005   0.008343   0.000370  -0.039510
     9  C   -0.000000   0.000001  -0.000021   0.000860  -0.000008  -0.049558
    10  C   -0.000004   0.000031   0.000048   0.011039  -0.000055  -0.064098
    11  C   -0.000057  -0.000402   0.004907  -0.046337   0.001256   0.317724
    12  O   -0.000213   0.000485  -0.008321   0.008180   0.000004  -0.101674
    13  C   -0.000002  -0.000004   0.000131  -0.000265   0.000001   0.007038
    14  C    0.000000   0.000000  -0.000047  -0.000085  -0.000000  -0.000953
    15  H    0.382576  -0.016367   0.003620   0.000293  -0.000055   0.000016
    16  H    0.386319  -0.020645   0.001149   0.000131   0.000239  -0.000342
    17  H    0.394465  -0.015973  -0.005804   0.004248   0.008786   0.000587
    18  H   -0.030347   0.391505  -0.026677  -0.008384   0.018112   0.000709
    19  H   -0.025984   0.388743  -0.024706   0.005456   0.000465   0.000031
    20  H    0.000006  -0.000052   0.000528  -0.010430   0.014492  -0.065183
    21  H   -0.000000   0.000000  -0.000000   0.000067   0.000000   0.001136
    22  H    0.000000  -0.000000  -0.000001  -0.000087   0.000001   0.012466
    23  H    0.000006  -0.000018   0.000291  -0.000136   0.000000   0.000251
    24  H   -0.000001   0.000003  -0.000040   0.000189   0.000000  -0.000737
    25  H   -0.000005   0.000002   0.000001   0.000086   0.000000  -0.000373
    26  H    0.000000  -0.000000   0.000000   0.000002   0.000000   0.000034
    27  H    0.000000  -0.000000   0.000002  -0.000048  -0.000000  -0.000163
               7          8          9         10         11         12
     1  C    0.000004   0.000000  -0.000000  -0.000004  -0.000057  -0.000213
     2  C   -0.000373   0.000001   0.000001   0.000031  -0.000402   0.000485
     3  O    0.001839  -0.000005  -0.000021   0.000048   0.004907  -0.008321
     4  C   -0.025599   0.008343   0.000860   0.011039  -0.046337   0.008180
     5  O    0.014291   0.000370  -0.000008  -0.000055   0.001256   0.000004
     6  C    0.449824  -0.039510  -0.049558  -0.064098   0.317724  -0.101674
     7  C    4.685355   0.524455  -0.067629  -0.049245  -0.030219   0.001381
     8  N    0.524455   6.292823   0.528419  -0.043497  -0.057398  -0.000069
     9  C   -0.067629   0.528419   4.698667   0.440207  -0.002444   0.003430
    10  C   -0.049245  -0.043497   0.440207   5.159744   0.411629  -0.076704
    11  C   -0.030219  -0.057398  -0.002444   0.411629   4.792233   0.450224
    12  O    0.001381  -0.000069   0.003430  -0.076704   0.450224   7.842804
    13  C   -0.000156   0.000005   0.000252   0.002608  -0.049523   0.279946
    14  C    0.000030  -0.000007  -0.000031  -0.004794  -0.007841  -0.045293
    15  H    0.000001   0.000000   0.000000   0.000000   0.000002   0.000000
    16  H   -0.000004  -0.000000  -0.000000   0.000003   0.000109   0.000251
    17  H   -0.000017  -0.000000   0.000000   0.000001  -0.000075   0.000011
    18  H    0.000075   0.000000   0.000000   0.000003   0.000054  -0.000022
    19  H    0.000020  -0.000000   0.000000  -0.000000  -0.000082   0.000078
    20  H    0.428691  -0.033161   0.004337   0.000835   0.007067  -0.000046
    21  H    0.004593  -0.038194   0.421359  -0.065165   0.005942  -0.000079
    22  H    0.000159   0.005854  -0.033336   0.418519  -0.065143  -0.006579
    23  H    0.000016   0.000000   0.000003  -0.000099   0.004657  -0.025004
    24  H   -0.000088  -0.000013   0.000568   0.009706  -0.012832  -0.025363
    25  H   -0.000009   0.000000  -0.000002   0.000383   0.000135   0.001563
    26  H   -0.000001   0.000000   0.000005  -0.000407   0.000350   0.003700
    27  H    0.000020  -0.000001  -0.000213   0.003673   0.002505  -0.002667
              13         14         15         16         17         18
     1  C   -0.000002   0.000000   0.382576   0.386319   0.394465  -0.030347
     2  C   -0.000004   0.000000  -0.016367  -0.020645  -0.015973   0.391505
     3  O    0.000131  -0.000047   0.003620   0.001149  -0.005804  -0.026677
     4  C   -0.000265  -0.000085   0.000293   0.000131   0.004248  -0.008384
     5  O    0.000001  -0.000000  -0.000055   0.000239   0.008786   0.018112
     6  C    0.007038  -0.000953   0.000016  -0.000342   0.000587   0.000709
     7  C   -0.000156   0.000030   0.000001  -0.000004  -0.000017   0.000075
     8  N    0.000005  -0.000007   0.000000  -0.000000  -0.000000   0.000000
     9  C    0.000252  -0.000031   0.000000  -0.000000   0.000000   0.000000
    10  C    0.002608  -0.004794   0.000000   0.000003   0.000001   0.000003
    11  C   -0.049523  -0.007841   0.000002   0.000109  -0.000075   0.000054
    12  O    0.279946  -0.045293   0.000000   0.000251   0.000011  -0.000022
    13  C    4.464201   0.437636   0.000000   0.000008  -0.000001   0.000002
    14  C    0.437636   4.621837  -0.000000  -0.000014   0.000000  -0.000000
    15  H    0.000000  -0.000000   0.623472  -0.017459  -0.017585  -0.001232
    16  H    0.000008  -0.000014  -0.017459   0.628029  -0.023885   0.007579
    17  H   -0.000001   0.000000  -0.017585  -0.023885   0.595923  -0.010227
    18  H    0.000002  -0.000000  -0.001232   0.007579  -0.010227   0.636588
    19  H    0.000000   0.000001  -0.003241  -0.009394   0.006537  -0.028712
    20  H    0.000006   0.000000   0.000000  -0.000001  -0.000007  -0.000011
    21  H   -0.000042   0.000004  -0.000000   0.000000  -0.000000  -0.000000
    22  H    0.005303  -0.004478  -0.000000  -0.000000  -0.000000  -0.000000
    23  H    0.388427  -0.022011  -0.000000   0.000008  -0.000001   0.000002
    24  H    0.394924  -0.040153   0.000000   0.000002   0.000000  -0.000000
    25  H   -0.015797   0.385419  -0.000000   0.000046   0.000001   0.000000
    26  H   -0.015074   0.379414   0.000000   0.000000   0.000000   0.000000
    27  H   -0.021462   0.399955   0.000000  -0.000001  -0.000000   0.000000
              19         20         21         22         23         24
     1  C   -0.025984   0.000006  -0.000000   0.000000   0.000006  -0.000001
     2  C    0.388743  -0.000052   0.000000  -0.000000  -0.000018   0.000003
     3  O   -0.024706   0.000528  -0.000000  -0.000001   0.000291  -0.000040
     4  C    0.005456  -0.010430   0.000067  -0.000087  -0.000136   0.000189
     5  O    0.000465   0.014492   0.000000   0.000001   0.000000   0.000000
     6  C    0.000031  -0.065183   0.001136   0.012466   0.000251  -0.000737
     7  C    0.000020   0.428691   0.004593   0.000159   0.000016  -0.000088
     8  N   -0.000000  -0.033161  -0.038194   0.005854   0.000000  -0.000013
     9  C    0.000000   0.004337   0.421359  -0.033336   0.000003   0.000568
    10  C   -0.000000   0.000835  -0.065165   0.418519  -0.000099   0.009706
    11  C   -0.000082   0.007067   0.005942  -0.065143   0.004657  -0.012832
    12  O    0.000078  -0.000046  -0.000079  -0.006579  -0.025004  -0.025363
    13  C    0.000000   0.000006  -0.000042   0.005303   0.388427   0.394924
    14  C    0.000001   0.000000   0.000004  -0.004478  -0.022011  -0.040153
    15  H   -0.003241   0.000000  -0.000000  -0.000000  -0.000000   0.000000
    16  H   -0.009394  -0.000001   0.000000  -0.000000   0.000008   0.000002
    17  H    0.006537  -0.000007  -0.000000  -0.000000  -0.000001   0.000000
    18  H   -0.028712  -0.000011  -0.000000  -0.000000   0.000002  -0.000000
    19  H    0.648555   0.000001  -0.000000  -0.000000  -0.000010   0.000000
    20  H    0.000001   0.601558  -0.000297   0.000047  -0.000000  -0.000000
    21  H   -0.000000  -0.000297   0.639467  -0.007228  -0.000001   0.000048
    22  H   -0.000000   0.000047  -0.007228   0.651838  -0.000084   0.000121
    23  H   -0.000010  -0.000000  -0.000001  -0.000084   0.635248  -0.029421
    24  H    0.000000  -0.000000   0.000048   0.000121  -0.029421   0.665657
    25  H    0.000000  -0.000000   0.000001  -0.000036  -0.010156   0.007932
    26  H   -0.000000   0.000000  -0.000000   0.000329  -0.002962  -0.001355
    27  H   -0.000000  -0.000000  -0.000014   0.001993   0.006707  -0.010391
              25         26         27
     1  C   -0.000005   0.000000   0.000000
     2  C    0.000002  -0.000000  -0.000000
     3  O    0.000001   0.000000   0.000002
     4  C    0.000086   0.000002  -0.000048
     5  O    0.000000   0.000000  -0.000000
     6  C   -0.000373   0.000034  -0.000163
     7  C   -0.000009  -0.000001   0.000020
     8  N    0.000000   0.000000  -0.000001
     9  C   -0.000002   0.000005  -0.000213
    10  C    0.000383  -0.000407   0.003673
    11  C    0.000135   0.000350   0.002505
    12  O    0.001563   0.003700  -0.002667
    13  C   -0.015797  -0.015074  -0.021462
    14  C    0.385419   0.379414   0.399955
    15  H   -0.000000   0.000000   0.000000
    16  H    0.000046   0.000000  -0.000001
    17  H    0.000001   0.000000  -0.000000
    18  H    0.000000   0.000000   0.000000
    19  H    0.000000  -0.000000  -0.000000
    20  H   -0.000000   0.000000  -0.000000
    21  H    0.000001  -0.000000  -0.000014
    22  H   -0.000036   0.000329   0.001993
    23  H   -0.010156  -0.002962   0.006707
    24  H    0.007932  -0.001355  -0.010391
    25  H    0.609235  -0.015856  -0.022932
    26  H   -0.015856   0.617956  -0.018312
    27  H   -0.022932  -0.018312   0.610070
 Mulliken charges:
               1
     1  C   -0.105746
     2  C    0.138625
     3  O   -0.309687
     4  C    0.277304
     5  O   -0.252885
     6  C   -0.179127
     7  C    0.062587
     8  N   -0.148414
     9  C    0.055135
    10  C   -0.154361
    11  C    0.273559
    12  O   -0.300024
    13  C    0.121840
    14  C   -0.098590
    15  H    0.045958
    16  H    0.047870
    17  H    0.063015
    18  H    0.050982
    19  H    0.042242
    20  H    0.051620
    21  H    0.038404
    22  H    0.020342
    23  H    0.054286
    24  H    0.041245
    25  H    0.060361
    26  H    0.052179
    27  H    0.051280
 Sum of Mulliken charges =  -0.00000
 Mulliken charges with hydrogens summed into heavy atoms:
               1
     1  C    0.051097
     2  C    0.231849
     3  O   -0.309687
     4  C    0.277304
     5  O   -0.252885
     6  C   -0.179127
     7  C    0.114207
     8  N   -0.148414
     9  C    0.093538
    10  C   -0.134019
    11  C    0.273559
    12  O   -0.300024
    13  C    0.217371
    14  C    0.065230
 Electronic spatial extent (au):  <R**2>=           3109.5072
 Charge=             -0.0000 electrons
 Dipole moment (field-independent basis, Debye):
    X=              0.9381    Y=              5.1604    Z=             -0.9272  Tot=              5.3263
 Quadrupole moment (field-independent basis, Debye-Ang):
   XX=            -72.5350   YY=            -85.2746   ZZ=            -83.0265
   XY=              3.6418   XZ=              1.1606   YZ=              1.6085
 Traceless Quadrupole moment (field-independent basis, Debye-Ang):
   XX=              7.7437   YY=             -4.9959   ZZ=             -2.7478
   XY=              3.6418   XZ=              1.1606   YZ=              1.6085
 Octapole moment (field-independent basis, Debye-Ang**2):
  XXX=            -17.5501  YYY=             54.2343  ZZZ=             -2.4124  XYY=             -4.9604
  XXY=             31.8678  XXZ=            -11.9820  XZZ=             -8.4320  YZZ=              4.7994
  YYZ=             -7.9552  XYZ=             -3.0050
 Hexadecapole moment (field-independent basis, Debye-Ang**3):
 XXXX=          -2193.0841 YYYY=          -1499.8226 ZZZZ=           -223.6799 XXXY=            -10.6646
 XXXZ=             19.2313 YYYX=            100.3010 YYYZ=             -3.3695 ZZZX=              3.5742
 ZZZY=             -8.7170 XXYY=           -687.9562 XXZZ=           -443.3125 YYZZ=           -284.7109
 XXYZ=              3.6376 YYXZ=              0.8526 ZZXY=              7.4351
 N-N= 9.050150400431D+02 E-N=-3.367383215512D+03  KE= 6.621325077375D+02
   1 Symmetry operations used in ECPInt.
 ECPInt:  NShTT=    7626 NPrTT=   27482 LenC2=    7263 LenP2D=   18914.
 LDataN:  DoStor=T MaxTD1= 5 Len=  102
 Calling FoFJK, ICntrl=      2127 FMM=F ISym2X=0 I1Cent= 0 IOpClX= 0 NMat=1 NMatS=1 NMatT=0.
 ***** Axes restored to original set *****
 -------------------------------------------------------------------
 Center     Atomic                   Forces (Hartrees/Bohr)
 Number     Number              X              Y              Z
 -------------------------------------------------------------------
      1        6           0.000001185    0.000003937   -0.000004834
      2        6          -0.000006230    0.000007920   -0.000003046
      3        8           0.000006381    0.000005153    0.000008979
      4        6          -0.000005342   -0.000006463    0.000000378
      5        8           0.000006859    0.000000452   -0.000002382
      6        6           0.000001238    0.000000614    0.000005553
      7        6          -0.000004174   -0.000005339   -0.000010410
      8        7           0.000000559    0.000007653    0.000000914
      9        6          -0.000003452   -0.000006638    0.000007901
     10        6          -0.000009149    0.000009654   -0.000007024
     11        6           0.000007906   -0.000005866    0.000011061
     12        8           0.000002906    0.000000981   -0.000024337
     13        6          -0.000008853    0.000003648    0.000012087
     14        6           0.000003366    0.000001270    0.000003581
     15        1           0.000003886   -0.000001400    0.000002848
     16        1          -0.000002918   -0.000005626    0.000000390
     17        1          -0.000000280    0.000001246   -0.000000615
     18        1          -0.000001112   -0.000002606    0.000002231
     19        1           0.000001715   -0.000004725    0.000005351
     20        1           0.000003738    0.000003692    0.000002590
     21        1           0.000002208    0.000000951   -0.000004241
     22        1          -0.000000750    0.000001514   -0.000001749
     23        1           0.000002334    0.000000659    0.000001435
     24        1          -0.000001316   -0.000003857    0.000000832
     25        1           0.000005881   -0.000001727   -0.000005411
     26        1          -0.000004826   -0.000008679   -0.000000977
     27        1          -0.000001762    0.000003582   -0.000001107
 -------------------------------------------------------------------
 Cartesian Forces:  Max     0.000024337 RMS     0.000005562

 GradGradGradGradGradGradGradGradGradGradGradGradGradGradGradGradGradGrad
 Berny optimization.
 FormGI is forming the generalized inverse of G from B-inverse, IUseBI=4.
 Internal  Forces:  Max     0.000022635 RMS     0.000004114
 Search for a local minimum.
 Step number   1 out of a maximum of  134
 All quantities printed in internal units (Hartrees-Bohrs-Radians)
 Mixed Optimization -- En-DIIS/RFO-DIIS
 Second derivative matrix not updated -- first step.
 ITU=  0
     Eigenvalues ---    0.00526   0.00552   0.00836   0.01329   0.01438
     Eigenvalues ---    0.01472   0.01629   0.01983   0.02103   0.02130
     Eigenvalues ---    0.02183   0.02270   0.02345   0.02512   0.02589
     Eigenvalues ---    0.02601   0.04798   0.05015   0.05581   0.05699
     Eigenvalues ---    0.05707   0.05769   0.05784   0.05812   0.11728
     Eigenvalues ---    0.11847   0.13901   0.14020   0.15999   0.16000
     Eigenvalues ---    0.16000   0.16000   0.16000   0.16000   0.16000
     Eigenvalues ---    0.16000   0.16000   0.21998   0.22057   0.22335
     Eigenvalues ---    0.23243   0.24568   0.24990   0.24997   0.24999
     Eigenvalues ---    0.25000   0.25000   0.25000   0.30544   0.30735
     Eigenvalues ---    0.32937   0.33344   0.33680   0.33698   0.33709
     Eigenvalues ---    0.33712   0.33740   0.33767   0.33821   0.33855
     Eigenvalues ---    0.33882   0.34144   0.34312   0.34939   0.41366
     Eigenvalues ---    0.41551   0.42482   0.42980   0.44939   0.46666
     Eigenvalues ---    0.57264   0.58739   0.58998   0.59199   1.01318
 RFO step:  Lambda=-2.63836842D-08 EMin= 5.25664469D-03
 Linear search not attempted -- first point.
 Iteration  1 RMS(Cart)=  0.00023128 RMS(Int)=  0.00000002
 Iteration  2 RMS(Cart)=  0.00000006 RMS(Int)=  0.00000000
 Variable       Old X    -DE/DX   Delta X   Delta X   Delta X     New X
                                 (Linear)    (Quad)   (Total)
    R1        2.86521  -0.00001   0.00000  -0.00002  -0.00002   2.86520
    R2        2.07873  -0.00000   0.00000  -0.00001  -0.00001   2.07872
    R3        2.07824  -0.00001   0.00000  -0.00002  -0.00002   2.07822
    R4        2.07634  -0.00000   0.00000  -0.00001  -0.00001   2.07633
    R5        2.69739   0.00000   0.00000   0.00001   0.00001   2.69740
    R6        2.07819   0.00000   0.00000   0.00001   0.00001   2.07820
    R7        2.07529  -0.00001   0.00000  -0.00002  -0.00002   2.07527
    R8        2.51580   0.00000   0.00000   0.00000   0.00000   2.51580
    R9        2.28116  -0.00001   0.00000  -0.00001  -0.00001   2.28115
   R10        2.82462  -0.00000   0.00000  -0.00001  -0.00001   2.82461
   R11        2.64492  -0.00000   0.00000  -0.00001  -0.00001   2.64491
   R12        2.67161  -0.00000   0.00000  -0.00001  -0.00001   2.67160
   R13        2.50975  -0.00000   0.00000  -0.00000  -0.00000   2.50975
   R14        2.06806  -0.00000   0.00000  -0.00001  -0.00001   2.06805
   R15        2.51411  -0.00000   0.00000  -0.00001  -0.00001   2.51410
   R16        2.62748   0.00000   0.00000   0.00000   0.00000   2.62749
   R17        2.07088   0.00000   0.00000   0.00001   0.00001   2.07089
   R18        2.65255  -0.00001   0.00000  -0.00003  -0.00003   2.65252
   R19        2.05775   0.00000   0.00000   0.00000   0.00000   2.05775
   R20        2.51742  -0.00000   0.00000  -0.00001  -0.00001   2.51742
   R21        2.67695  -0.00001   0.00000  -0.00002  -0.00002   2.67693
   R22        2.86892  -0.00000   0.00000  -0.00001  -0.00001   2.86890
   R23        2.07575  -0.00000   0.00000  -0.00001  -0.00001   2.07574
   R24        2.08452  -0.00000   0.00000  -0.00000  -0.00000   2.08452
   R25        2.07725  -0.00001   0.00000  -0.00002  -0.00002   2.07722
   R26        2.07843  -0.00001   0.00000  -0.00003  -0.00003   2.07840
   R27        2.07771  -0.00000   0.00000  -0.00001  -0.00001   2.07770
    A1        1.91846   0.00000   0.00000   0.00001   0.00001   1.91847
    A2        1.93158   0.00000   0.00000   0.00001   0.00001   1.93158
    A3        1.93057  -0.00000   0.00000  -0.00000  -0.00000   1.93057
    A4        1.89233  -0.00000   0.00000  -0.00000  -0.00000   1.89233
    A5        1.88846  -0.00000   0.00000  -0.00001  -0.00001   1.88845
    A6        1.90147  -0.00000   0.00000  -0.00001  -0.00001   1.90146
    A7        1.94843   0.00000   0.00000   0.00000   0.00000   1.94843
    A8        1.93533  -0.00000   0.00000   0.00000   0.00000   1.93533
    A9        1.94146  -0.00000   0.00000  -0.00000  -0.00000   1.94145
   A10        1.90679  -0.00000   0.00000   0.00000   0.00000   1.90680
   A11        1.82594  -0.00000   0.00000  -0.00001  -0.00001   1.82593
   A12        1.90236   0.00000   0.00000   0.00001   0.00001   1.90237
   A13        2.04696   0.00001   0.00000   0.00003   0.00003   2.04699
   A14        2.15483   0.00001   0.00000   0.00004   0.00004   2.15487
   A15        1.98705  -0.00001   0.00000  -0.00003  -0.00003   1.98702
   A16        2.14060  -0.00000   0.00000  -0.00000  -0.00000   2.14059
   A17        2.02479   0.00000   0.00000   0.00001   0.00001   2.02480
   A18        2.20198  -0.00000   0.00000  -0.00001  -0.00001   2.20196
   A19        2.05632  -0.00000   0.00000  -0.00000  -0.00000   2.05632
   A20        2.18390  -0.00000   0.00000  -0.00001  -0.00001   2.18389
   A21        2.05134   0.00000   0.00000   0.00001   0.00001   2.05135
   A22        2.04793   0.00000   0.00000   0.00000   0.00000   2.04793
   A23        2.03145   0.00000   0.00000   0.00001   0.00001   2.03146
   A24        2.17109  -0.00000   0.00000  -0.00000  -0.00000   2.17109
   A25        2.03374   0.00000   0.00000   0.00001   0.00001   2.03375
   A26        2.07833  -0.00000   0.00000  -0.00001  -0.00001   2.07832
   A27        2.07951  -0.00000   0.00000  -0.00001  -0.00001   2.07950
   A28        2.07954   0.00000   0.00000   0.00001   0.00001   2.07955
   A29        2.12410  -0.00000   0.00000  -0.00000  -0.00000   2.12410
   A30        2.04382   0.00000   0.00000   0.00002   0.00002   2.04384
   A31        2.07481   0.00001   0.00000   0.00002   0.00002   2.07483
   A32        2.16452  -0.00001   0.00000  -0.00004  -0.00004   2.16448
   A33        2.11951  -0.00002   0.00000  -0.00009  -0.00009   2.11942
   A34        1.96302  -0.00000   0.00000  -0.00001  -0.00001   1.96302
   A35        1.82253   0.00000   0.00000   0.00006   0.00006   1.82259
   A36        1.92737  -0.00000   0.00000  -0.00006  -0.00006   1.92731
   A37        1.92488   0.00000   0.00000   0.00003   0.00003   1.92491
   A38        1.95183  -0.00000   0.00000  -0.00003  -0.00003   1.95179
   A39        1.86754   0.00000   0.00000   0.00002   0.00002   1.86756
   A40        1.92327  -0.00000   0.00000  -0.00000  -0.00000   1.92327
   A41        1.91867  -0.00000   0.00000  -0.00002  -0.00002   1.91865
   A42        1.95441   0.00000   0.00000   0.00002   0.00002   1.95442
   A43        1.89178   0.00000   0.00000   0.00001   0.00001   1.89179
   A44        1.88686  -0.00000   0.00000   0.00000   0.00000   1.88686
   A45        1.88730  -0.00000   0.00000  -0.00000  -0.00000   1.88729
    D1        3.05791   0.00000   0.00000   0.00001   0.00001   3.05793
    D2       -1.09468   0.00000   0.00000   0.00002   0.00002  -1.09466
    D3        1.02543   0.00000   0.00000   0.00003   0.00003   1.02546
    D4        0.96815  -0.00000   0.00000   0.00000   0.00000   0.96815
    D5        3.09874  -0.00000   0.00000   0.00001   0.00001   3.09875
    D6       -1.06434   0.00000   0.00000   0.00002   0.00002  -1.06432
    D7       -1.14094  -0.00000   0.00000   0.00001   0.00001  -1.14094
    D8        0.98965   0.00000   0.00000   0.00001   0.00001   0.98966
    D9        3.10976   0.00000   0.00000   0.00002   0.00002   3.10978
   D10        1.43032   0.00000   0.00000   0.00023   0.00023   1.43056
   D11       -0.71661   0.00000   0.00000   0.00023   0.00023  -0.71639
   D12       -2.75130   0.00000   0.00000   0.00022   0.00022  -2.75108
   D13        0.04732  -0.00000   0.00000  -0.00007  -0.00007   0.04725
   D14       -3.13356  -0.00000   0.00000  -0.00005  -0.00005  -3.13361
   D15       -2.78768  -0.00000   0.00000  -0.00035  -0.00035  -2.78803
   D16        0.36951  -0.00000   0.00000  -0.00036  -0.00036   0.36915
   D17        0.31499  -0.00000   0.00000  -0.00033  -0.00033   0.31466
   D18       -2.81101  -0.00000   0.00000  -0.00034  -0.00034  -2.81135
   D19        3.13020   0.00000   0.00000   0.00013   0.00013   3.13033
   D20       -0.00659  -0.00000   0.00000  -0.00008  -0.00008  -0.00667
   D21       -0.02563   0.00000   0.00000   0.00014   0.00014  -0.02549
   D22        3.12077  -0.00000   0.00000  -0.00007  -0.00007   3.12070
   D23       -3.13694  -0.00000   0.00000  -0.00005  -0.00005  -3.13699
   D24        0.01358  -0.00000   0.00000  -0.00010  -0.00010   0.01349
   D25        0.02050  -0.00000   0.00000  -0.00007  -0.00007   0.02043
   D26       -3.11216  -0.00000   0.00000  -0.00011  -0.00011  -3.11227
   D27        0.01187  -0.00000   0.00000  -0.00009  -0.00009   0.01178
   D28       -3.13452   0.00000   0.00000   0.00012   0.00012  -3.13440
   D29        0.00638  -0.00000   0.00000  -0.00002  -0.00002   0.00636
   D30        3.13976   0.00000   0.00000   0.00012   0.00012   3.13988
   D31       -0.00965   0.00000   0.00000   0.00008   0.00008  -0.00956
   D32        3.12272   0.00000   0.00000   0.00009   0.00009   3.12281
   D33        3.14035  -0.00000   0.00000  -0.00006  -0.00006   3.14029
   D34       -0.01047  -0.00000   0.00000  -0.00005  -0.00005  -0.01052
   D35       -0.00466  -0.00000   0.00000  -0.00003  -0.00003  -0.00469
   D36        3.12751   0.00000   0.00000   0.00001   0.00001   3.12751
   D37       -3.13678  -0.00000   0.00000  -0.00004  -0.00004  -3.13682
   D38       -0.00462   0.00000   0.00000   0.00000   0.00000  -0.00461
   D39        3.08769  -0.00001   0.00000  -0.00035  -0.00035   3.08734
   D40       -0.04432  -0.00001   0.00000  -0.00039  -0.00039  -0.04471
   D41       -1.39338   0.00001   0.00000   0.00029   0.00029  -1.39309
   D42        2.80252   0.00000   0.00000   0.00022   0.00022   2.80274
   D43        0.80050   0.00000   0.00000   0.00019   0.00019   0.80069
   D44       -0.98289  -0.00000   0.00000  -0.00011  -0.00011  -0.98300
   D45       -3.06689  -0.00000   0.00000  -0.00010  -0.00010  -3.06700
   D46        1.11799  -0.00000   0.00000  -0.00010  -0.00010   1.11790
   D47        1.04383   0.00000   0.00000  -0.00002  -0.00002   1.04382
   D48       -1.04017   0.00000   0.00000  -0.00001  -0.00001  -1.04018
   D49       -3.13847   0.00000   0.00000  -0.00001  -0.00001  -3.13848
   D50        3.11976   0.00000   0.00000   0.00000   0.00000   3.11976
   D51        1.03576   0.00000   0.00000   0.00001   0.00001   1.03576
   D52       -1.06255   0.00000   0.00000   0.00002   0.00002  -1.06253
         Item               Value     Threshold  Converged?
 Maximum Force            0.000023     0.000450     YES
 RMS     Force            0.000004     0.000300     YES
 Maximum Displacement     0.000823     0.001800     YES
 RMS     Displacement     0.000231     0.001200     YES
 Predicted change in Energy=-1.319181D-08
 Optimization completed.
    -- Stationary point found.
                           ----------------------------
                           !   Optimized Parameters   !
                           ! (Angstroms and Degrees)  !
 --------------------------                            --------------------------
 ! Name  Definition              Value          Derivative Info.                !
 --------------------------------------------------------------------------------
 ! R1    R(1,2)                  1.5162         -DE/DX =    0.0                 !
 ! R2    R(1,15)                 1.1            -DE/DX =    0.0                 !
 ! R3    R(1,16)                 1.0998         -DE/DX =    0.0                 !
 ! R4    R(1,17)                 1.0988         -DE/DX =    0.0                 !
 ! R5    R(2,3)                  1.4274         -DE/DX =    0.0                 !
 ! R6    R(2,18)                 1.0997         -DE/DX =    0.0                 !
 ! R7    R(2,19)                 1.0982         -DE/DX =    0.0                 !
 ! R8    R(3,4)                  1.3313         -DE/DX =    0.0                 !
 ! R9    R(4,5)                  1.2071         -DE/DX =    0.0                 !
 ! R10   R(4,6)                  1.4947         -DE/DX =    0.0                 !
 ! R11   R(6,7)                  1.3996         -DE/DX =    0.0                 !
 ! R12   R(6,11)                 1.4138         -DE/DX =    0.0                 !
 ! R13   R(7,8)                  1.3281         -DE/DX =    0.0                 !
 ! R14   R(7,20)                 1.0944         -DE/DX =    0.0                 !
 ! R15   R(8,9)                  1.3304         -DE/DX =    0.0                 !
 ! R16   R(9,10)                 1.3904         -DE/DX =    0.0                 !
 ! R17   R(9,21)                 1.0959         -DE/DX =    0.0                 !
 ! R18   R(10,11)                1.4037         -DE/DX =    0.0                 !
 ! R19   R(10,22)                1.0889         -DE/DX =    0.0                 !
 ! R20   R(11,12)                1.3322         -DE/DX =    0.0                 !
 ! R21   R(12,13)                1.4166         -DE/DX =    0.0                 !
 ! R22   R(13,14)                1.5182         -DE/DX =    0.0                 !
 ! R23   R(13,23)                1.0984         -DE/DX =    0.0                 !
 ! R24   R(13,24)                1.1031         -DE/DX =    0.0                 !
 ! R25   R(14,25)                1.0992         -DE/DX =    0.0                 !
 ! R26   R(14,26)                1.0999         -DE/DX =    0.0                 !
 ! R27   R(14,27)                1.0995         -DE/DX =    0.0                 !
 ! A1    A(2,1,15)             109.9197         -DE/DX =    0.0                 !
 ! A2    A(2,1,16)             110.6712         -DE/DX =    0.0                 !
 ! A3    A(2,1,17)             110.6137         -DE/DX =    0.0                 !
 ! A4    A(15,1,16)            108.4224         -DE/DX =    0.0                 !
 ! A5    A(15,1,17)            108.2006         -DE/DX =    0.0                 !
 ! A6    A(16,1,17)            108.9461         -DE/DX =    0.0                 !
 ! A7    A(1,2,3)              111.6369         -DE/DX =    0.0                 !
 ! A8    A(1,2,18)             110.8864         -DE/DX =    0.0                 !
 ! A9    A(1,2,19)             111.2374         -DE/DX =    0.0                 !
 ! A10   A(3,2,18)             109.2512         -DE/DX =    0.0                 !
 ! A11   A(3,2,19)             104.6188         -DE/DX =    0.0                 !
 ! A12   A(18,2,19)            108.9972         -DE/DX =    0.0                 !
 ! A13   A(2,3,4)              117.2821         -DE/DX =    0.0                 !
 ! A14   A(3,4,5)              123.4629         -DE/DX =    0.0                 !
 ! A15   A(3,4,6)              113.8497         -DE/DX =    0.0                 !
 ! A16   A(5,4,6)              122.6473         -DE/DX =    0.0                 !
 ! A17   A(4,6,7)              116.0117         -DE/DX =    0.0                 !
 ! A18   A(4,6,11)             126.164          -DE/DX =    0.0                 !
 ! A19   A(7,6,11)             117.8186         -DE/DX =    0.0                 !
 ! A20   A(6,7,8)              125.1285         -DE/DX =    0.0                 !
 ! A21   A(6,7,20)             117.5334         -DE/DX =    0.0                 !
 ! A22   A(8,7,20)             117.3376         -DE/DX =    0.0                 !
 ! A23   A(7,8,9)              116.3935         -DE/DX =    0.0                 !
 ! A24   A(8,9,10)             124.3945         -DE/DX =    0.0                 !
 ! A25   A(8,9,21)             116.5245         -DE/DX =    0.0                 !
 ! A26   A(10,9,21)            119.0794         -DE/DX =    0.0                 !
 ! A27   A(9,10,11)            119.1472         -DE/DX =    0.0                 !
 ! A28   A(9,10,22)            119.1486         -DE/DX =    0.0                 !
 ! A29   A(11,10,22)           121.702          -DE/DX =    0.0                 !
 ! A30   A(6,11,10)            117.1022         -DE/DX =    0.0                 !
 ! A31   A(6,11,12)            118.8776         -DE/DX =    0.0                 !
 ! A32   A(10,11,12)           124.018          -DE/DX =    0.0                 !
 ! A33   A(11,12,13)           121.4388         -DE/DX =    0.0                 !
 ! A34   A(12,13,14)           112.4729         -DE/DX =    0.0                 !
 ! A35   A(12,13,23)           104.4232         -DE/DX =    0.0                 !
 ! A36   A(12,13,24)           110.4304         -DE/DX =    0.0                 !
 ! A37   A(14,13,23)           110.2875         -DE/DX =    0.0                 !
 ! A38   A(14,13,24)           111.8314         -DE/DX =    0.0                 !
 ! A39   A(23,13,24)           107.002          -DE/DX =    0.0                 !
 ! A40   A(13,14,25)           110.1954         -DE/DX =    0.0                 !
 ! A41   A(13,14,26)           109.9317         -DE/DX =    0.0                 !
 ! A42   A(13,14,27)           111.9792         -DE/DX =    0.0                 !
 ! A43   A(25,14,26)           108.3911         -DE/DX =    0.0                 !
 ! A44   A(25,14,27)           108.1091         -DE/DX =    0.0                 !
 ! A45   A(26,14,27)           108.1342         -DE/DX =    0.0                 !
 ! D1    D(15,1,2,3)           175.2055         -DE/DX =    0.0                 !
 ! D2    D(15,1,2,18)          -62.7204         -DE/DX =    0.0                 !
 ! D3    D(15,1,2,19)           58.7527         -DE/DX =    0.0                 !
 ! D4    D(16,1,2,3)            55.4708         -DE/DX =    0.0                 !
 ! D5    D(16,1,2,18)          177.545          -DE/DX =    0.0                 !
 ! D6    D(16,1,2,19)          -60.9819         -DE/DX =    0.0                 !
 ! D7    D(17,1,2,3)           -65.3713         -DE/DX =    0.0                 !
 ! D8    D(17,1,2,18)           56.7028         -DE/DX =    0.0                 !
 ! D9    D(17,1,2,19)          178.1759         -DE/DX =    0.0                 !
 ! D10   D(1,2,3,4)             81.9514         -DE/DX =    0.0                 !
 ! D11   D(18,2,3,4)           -41.0589         -DE/DX =    0.0                 !
 ! D12   D(19,2,3,4)          -157.6379         -DE/DX =    0.0                 !
 ! D13   D(2,3,4,5)              2.7113         -DE/DX =    0.0                 !
 ! D14   D(2,3,4,6)           -179.5397         -DE/DX =    0.0                 !
 ! D15   D(3,4,6,7)           -159.7223         -DE/DX =    0.0                 !
 ! D16   D(3,4,6,11)            21.1713         -DE/DX =    0.0                 !
 ! D17   D(5,4,6,7)             18.0475         -DE/DX =    0.0                 !
 ! D18   D(5,4,6,11)          -161.0589         -DE/DX =    0.0                 !
 ! D19   D(4,6,7,8)            179.3471         -DE/DX =    0.0                 !
 ! D20   D(4,6,7,20)            -0.3773         -DE/DX =    0.0                 !
 ! D21   D(11,6,7,8)            -1.4685         -DE/DX =    0.0                 !
 ! D22   D(11,6,7,20)          178.807          -DE/DX =    0.0                 !
 ! D23   D(4,6,11,10)         -179.7334         -DE/DX =    0.0                 !
 ! D24   D(4,6,11,12)            0.7781         -DE/DX =    0.0                 !
 ! D25   D(7,6,11,10)            1.1746         -DE/DX =    0.0                 !
 ! D26   D(7,6,11,12)         -178.3139         -DE/DX =    0.0                 !
 ! D27   D(6,7,8,9)              0.6802         -DE/DX =    0.0                 !
 ! D28   D(20,7,8,9)          -179.5948         -DE/DX =    0.0                 !
 ! D29   D(7,8,9,10)             0.3654         -DE/DX =    0.0                 !
 ! D30   D(7,8,9,21)           179.895          -DE/DX =    0.0                 !
 ! D31   D(8,9,10,11)           -0.5527         -DE/DX =    0.0                 !
 ! D32   D(8,9,10,22)          178.9187         -DE/DX =    0.0                 !
 ! D33   D(21,9,10,11)         179.9289         -DE/DX =    0.0                 !
 ! D34   D(21,9,10,22)          -0.5997         -DE/DX =    0.0                 !
 ! D35   D(9,10,11,6)           -0.2668         -DE/DX =    0.0                 !
 ! D36   D(9,10,11,12)         179.1929         -DE/DX =    0.0                 !
 ! D37   D(22,10,11,6)        -179.7241         -DE/DX =    0.0                 !
 ! D38   D(22,10,11,12)         -0.2644         -DE/DX =    0.0                 !
 ! D39   D(6,11,12,13)         176.9115         -DE/DX =    0.0                 !
 ! D40   D(10,11,12,13)         -2.5392         -DE/DX =    0.0                 !
 ! D41   D(11,12,13,14)        -79.8349         -DE/DX =    0.0                 !
 ! D42   D(11,12,13,23)        160.5728         -DE/DX =    0.0                 !
 ! D43   D(11,12,13,24)         45.865          -DE/DX =    0.0                 !
 ! D44   D(12,13,14,25)        -56.3153         -DE/DX =    0.0                 !
 ! D45   D(12,13,14,26)       -175.7199         -DE/DX =    0.0                 !
 ! D46   D(12,13,14,27)         64.0563         -DE/DX =    0.0                 !
 ! D47   D(23,13,14,25)         59.8073         -DE/DX =    0.0                 !
 ! D48   D(23,13,14,26)        -59.5973         -DE/DX =    0.0                 !
 ! D49   D(23,13,14,27)       -179.8211         -DE/DX =    0.0                 !
 ! D50   D(24,13,14,25)        178.749          -DE/DX =    0.0                 !
 ! D51   D(24,13,14,26)         59.3444         -DE/DX =    0.0                 !
 ! D52   D(24,13,14,27)        -60.8794         -DE/DX =    0.0                 !
 --------------------------------------------------------------------------------
 GradGradGradGradGradGradGradGradGradGradGradGradGradGradGradGradGradGrad

                          Input orientation:                          
 ---------------------------------------------------------------------
 Center     Atomic      Atomic             Coordinates (Angstroms)
 Number     Number       Type             X           Y           Z
 ---------------------------------------------------------------------
      1          6           0       -3.734420    0.919730    0.682180
      2          6           0       -3.222140    0.338430   -0.621100
      3          8           0       -1.803130    0.184580   -0.607010
      4          6           0       -1.312910   -0.901150   -0.012670
      5          8           0       -2.004100   -1.768680    0.463590
      6          6           0        0.179630   -0.979400   -0.032900
      7          6           0        0.730320   -2.251170    0.162820
      8          7           0        2.028980   -2.529230    0.167000
      9          6           0        2.854270   -1.502320   -0.018300
     10          6           0        2.442490   -0.187310   -0.203800
     11          6           0        1.069510    0.104500   -0.211740
     12          8           0        0.568780    1.329330   -0.365750
     13          6           0        1.410830    2.462310   -0.484100
     14          6           0        1.929500    2.942740    0.859400
     15          1           0       -4.816150    1.105960    0.609930
     16          1           0       -3.232050    1.871960    0.906570
     17          1           0       -3.561190    0.220770    1.512060
     18          1           0       -3.690380   -0.635090   -0.827060
     19          1           0       -3.419210    1.015210   -1.463220
     20          1           0        0.037620   -3.083570    0.320700
     21          1           0        3.926410   -1.729060   -0.013470
     22          1           0        3.193620    0.590820   -0.330480
     23          1           0        0.773400    3.230210   -0.942990
     24          1           0        2.232010    2.259470   -1.192130
     25          1           0        1.089860    3.157690    1.535500
     26          1           0        2.513840    3.865170    0.727640
     27          1           0        2.574660    2.195050    1.342700
 ---------------------------------------------------------------------
                    Distance matrix (angstroms):
                    1          2          3          4          5
     1  C    0.000000
     2  C    1.516206   0.000000
     3  O    2.435639   1.427395   0.000000
     4  C    3.108397   2.356248   1.331302   0.000000
     5  O    3.204581   2.664599   2.236470   1.207135   0.000000
     6  C    4.408834   3.695226   2.369766   1.494727   2.374477
     7  C    5.500749   4.789833   3.597761   2.455227   2.792904
     8  N    6.736283   6.034802   4.759088   3.721714   4.114868
     9  C    7.054632   6.377655   4.988345   4.210324   4.889471
    10  C    6.337564   5.704259   4.280908   3.827418   4.766372
    11  C    4.953931   4.317471   2.900812   2.593624   3.662233
    12  O    4.447860   3.926597   2.644734   2.939467   4.111591
    13  C    5.496668   5.098436   3.941155   4.353604   5.519161
    14  C    6.016973   5.959338   4.867271   5.103844   6.150395
    15  H    1.100019   2.155320   3.377599   4.085194   4.024002
    16  H    1.099758   2.164622   2.679550   3.495460   3.867603
    17  H    1.098751   2.163139   2.753642   2.939093   2.735275
    18  H    2.167305   1.099732   2.069298   2.527129   2.407144
    19  H    2.170533   1.098196   2.008670   3.195783   3.669493
    20  H    5.512292   4.819036   3.863911   2.588054   2.432689
    21  H    8.135621   7.466291   6.069756   5.304329   5.949799
    22  H    7.009379   6.427296   5.020858   4.757709   5.763166
    23  H    5.319768   4.942706   4.003405   4.720839   5.889132
    24  H    6.395798   5.810699   4.574920   4.893578   6.075527
    25  H    5.386121   5.585024   4.668953   4.964304   5.915294
    26  H    6.907853   6.867202   5.827887   6.157100   7.226463
    27  H    6.470488   6.395814   5.196961   5.151377   6.119562
                    6          7          8          9         10
     6  C    0.000000
     7  C    1.399630   0.000000
     8  N    2.421163   1.328101   0.000000
     9  C    2.725318   2.259368   1.330407   0.000000
    10  C    2.403570   2.706558   2.406880   1.390404   0.000000
    11  C    1.413757   2.409258   2.828526   2.409286   1.403670
    12  O    2.364838   3.622908   4.159867   3.655465   2.416033
    13  C    3.683043   4.806089   5.071638   4.244853   2.857162
    14  C    4.386505   5.375868   5.516500   4.624296   3.345260
    15  H    5.451585   6.498735   7.763156   8.126078   7.417719
    16  H    4.544493   5.766606   6.898976   7.020288   6.137908
    17  H    4.221498   5.133030   6.373514   6.816830   6.257386
    18  H    3.965629   4.809799   6.106308   6.651212   6.180700
    19  H    4.356137   5.525563   6.701003   6.912474   6.114877
    20  H    2.138395   1.094372   2.072783   3.247890   3.800898
    21  H    3.821090   3.243250   2.067143   1.095864   2.148310
    22  H    3.411492   3.793165   3.367281   2.143327   1.088912
    23  H    4.347602   5.591976   5.998309   5.251848   3.874494
    24  H    4.005790   4.943363   4.981978   3.989505   2.647231
    25  H    4.517069   5.591895   5.924171   5.219495   4.005471
    26  H    5.431097   6.396060   6.437217   5.429758   4.158758
    27  H    4.207800   4.956065   4.898863   3.949816   2.843373
                   11         12         13         14         15
    11  C    0.000000
    12  O    1.332163   0.000000
    13  C    2.397905   1.416580   0.000000
    14  C    3.153178   2.440419   1.518165   0.000000
    15  H    6.026529   5.477163   6.466210   6.995698   0.000000
    16  H    4.783090   4.044695   4.882500   5.271659   1.784411
    17  H    4.942508   4.670303   5.807765   6.163016   1.781102
    18  H    4.856147   4.712982   5.977780   6.872268   2.522608
    19  H    4.748074   4.148153   5.136347   6.141550   2.501525
    20  H    3.392946   4.497447   5.769765   6.339229   6.418325
    21  H    3.400460   4.555385   4.910928   5.155120   9.211858
    22  H    2.182304   2.726981   2.589288   2.923242   8.081222
    23  H    3.223736   1.997103   1.098439   2.160513   6.177950
    24  H    2.637511   2.077113   1.103081   2.183379   7.365770
    25  H    3.517845   2.688713   2.159944   1.099232   6.320382
    26  H    4.136564   3.377757   2.157072   1.099860   7.832997
    27  H    3.008681   2.773414   2.182459   1.099477   7.506473
                   16         17         18         19         20
    16  H    0.000000
    17  H    1.789240   0.000000
    18  H    3.082343   2.494127   0.000000
    19  H    2.526847   3.082788   1.789336   0.000000
    20  H    5.965841   5.028860   4.605474   5.650844   0.000000
    21  H    8.065815   7.886269   7.737841   7.974392   4.131471
    22  H    6.667897   7.011373   7.009915   6.722554   4.887281
    23  H    4.616205   5.820023   5.905871   4.770204   6.480903
    24  H    5.866060   6.710448   6.602004   5.792923   5.970936
    25  H    4.552753   5.500756   6.543513   5.823595   6.444864
    26  H    6.084419   7.127619   7.820600   6.937090   7.387980
    27  H    5.832022   6.447877   7.208903   6.722476   5.945156
                   21         22         23         24         25
    21  H    0.000000
[...]
 Alpha virt. eigenvalues --    6.30483   6.37812   6.46738   6.48713   6.53374
 Alpha virt. eigenvalues --    6.64836   6.69418   6.73261   6.76648   6.85746
 Alpha virt. eigenvalues --    6.90041   6.94415   7.02843   7.03812   7.07652
 Alpha virt. eigenvalues --    7.16231   7.25459   7.30914   7.43988   7.53175
 Alpha virt. eigenvalues --    7.55873  22.40117  22.41509  22.55337  22.57154
 Alpha virt. eigenvalues --   22.61270  22.81936  22.93998  23.02683  23.32557
 Alpha virt. eigenvalues --   23.64930  32.53027  44.04931  44.33788  44.47533
          Condensed to atoms (all electrons):
               1          2          3          4          5          6
     1  C    4.959674   0.322315  -0.037916   0.002479  -0.013694   0.001251
     2  C    0.322315   4.797697   0.217940  -0.040266   0.008856   0.004620
     3  O   -0.037916   0.217940   7.945814   0.382274  -0.083632  -0.115702
     4  C    0.002479  -0.040266   0.382274   4.521188   0.612653   0.287158
     5  O   -0.013694   0.008856  -0.083632   0.612653   7.925536  -0.119477
     6  C    0.001251   0.004620  -0.115702   0.287158  -0.119477   5.439460
     7  C    0.000171  -0.001415   0.003272  -0.054406   0.018319   0.448682
     8  N    0.000000   0.000006  -0.000206   0.007158   0.000092  -0.038418
     9  C    0.000005  -0.000024   0.000209  -0.003869   0.000487  -0.016495
    10  C   -0.000074   0.000277  -0.001486   0.013347  -0.001216  -0.068488
    11  C   -0.000348  -0.001888   0.018342  -0.102976   0.002716   0.341614
    12  O   -0.000648   0.001921  -0.017218   0.011151  -0.000126  -0.101810
    13  C    0.000002  -0.000127   0.001703  -0.000315  -0.000000  -0.000998
    14  C    0.000005   0.000025  -0.000355  -0.000594   0.000002   0.003080
    15  H    0.396759  -0.033268   0.004221   0.000571   0.000192  -0.000129
    16  H    0.396247  -0.029624   0.002414  -0.002845   0.000540  -0.001638
    17  H    0.419090  -0.040808  -0.003190   0.004116   0.006218   0.003399
    18  H   -0.044282   0.425689  -0.030091  -0.015976   0.012289  -0.004839
    19  H   -0.030672   0.392572  -0.033439   0.005521   0.001434   0.003041
    20  H    0.000031  -0.000279   0.000499  -0.013531   0.015007  -0.059442
    21  H    0.000000   0.000000  -0.000001   0.000121   0.000001   0.002389
    22  H    0.000000  -0.000000  -0.000032   0.000288   0.000001   0.012340
    23  H    0.000035  -0.000086   0.000333  -0.000117   0.000002   0.002029
    24  H   -0.000004   0.000011  -0.000073   0.000370  -0.000000  -0.003022
    25  H   -0.000014   0.000001   0.000048   0.000077  -0.000001  -0.001496
    26  H    0.000000  -0.000000   0.000003   0.000016   0.000000   0.000003
    27  H    0.000001  -0.000002   0.000003   0.000043   0.000000   0.001809
               7          8          9         10         11         12
     1  C    0.000171   0.000000   0.000005  -0.000074  -0.000348  -0.000648
     2  C   -0.001415   0.000006  -0.000024   0.000277  -0.001888   0.001921
     3  O    0.003272  -0.000206   0.000209  -0.001486   0.018342  -0.017218
     4  C   -0.054406   0.007158  -0.003869   0.013347  -0.102976   0.011151
     5  O    0.018319   0.000092   0.000487  -0.001216   0.002716  -0.000126
     6  C    0.448682  -0.038418  -0.016495  -0.068488   0.341614  -0.101810
     7  C    4.806563   0.517098  -0.105638  -0.024643  -0.000503   0.000869
     8  N    0.517098   6.434615   0.531757  -0.055164  -0.080183  -0.000190
     9  C   -0.105638   0.531757   4.729942   0.456353  -0.000984   0.001301
    10  C   -0.024643  -0.055164   0.456353   5.231817   0.396202  -0.079224
    11  C   -0.000503  -0.080183  -0.000984   0.396202   4.931405   0.413735
    12  O    0.000869  -0.000190   0.001301  -0.079224   0.413735   7.893003
    13  C   -0.000174  -0.000052  -0.002976   0.013973  -0.063982   0.232458
    14  C    0.000068  -0.000035   0.001832  -0.006130   0.007049  -0.042960
    15  H    0.000001   0.000000  -0.000000   0.000001   0.000031   0.000010
    16  H   -0.000015  -0.000000  -0.000001   0.000025   0.000044   0.000458
    17  H   -0.000031   0.000000  -0.000000   0.000003  -0.000177   0.000040
    18  H    0.000063   0.000002  -0.000004   0.000030   0.000211  -0.000032
    19  H    0.000039  -0.000000  -0.000001   0.000001  -0.000233   0.000040
    20  H    0.430850  -0.023649   0.004287   0.000001   0.006526  -0.000058
    21  H    0.003378  -0.028518   0.435629  -0.070995  -0.000789  -0.000120
    22  H   -0.002987   0.007499  -0.008084   0.424293  -0.091060  -0.002918
    23  H    0.000026  -0.000002   0.000136  -0.001242   0.004524  -0.035396
    24  H   -0.000079  -0.000037   0.000128   0.010960  -0.023902  -0.033194
    25  H    0.000014   0.000003  -0.000081   0.001175  -0.002523   0.003507
    26  H   -0.000009   0.000002  -0.000044  -0.000597   0.000830   0.004375
    27  H    0.000042  -0.000030   0.001768  -0.000922   0.001952  -0.000395
              13         14         15         16         17         18
     1  C    0.000002   0.000005   0.396759   0.396247   0.419090  -0.044282
     2  C   -0.000127   0.000025  -0.033268  -0.029624  -0.040808   0.425689
     3  O    0.001703  -0.000355   0.004221   0.002414  -0.003190  -0.030091
     4  C   -0.000315  -0.000594   0.000571  -0.002845   0.004116  -0.015976
     5  O   -0.000000   0.000002   0.000192   0.000540   0.006218   0.012289
     6  C   -0.000998   0.003080  -0.000129  -0.001638   0.003399  -0.004839
     7  C   -0.000174   0.000068   0.000001  -0.000015  -0.000031   0.000063
     8  N   -0.000052  -0.000035   0.000000  -0.000000   0.000000   0.000002
     9  C   -0.002976   0.001832  -0.000000  -0.000001  -0.000000  -0.000004
    10  C    0.013973  -0.006130   0.000001   0.000025   0.000003   0.000030
    11  C   -0.063982   0.007049   0.000031   0.000044  -0.000177   0.000211
    12  O    0.232458  -0.042960   0.000010   0.000458   0.000040  -0.000032
    13  C    4.844547   0.303207   0.000002   0.000007  -0.000002   0.000015
    14  C    0.303207   4.982781  -0.000001  -0.000054   0.000002  -0.000003
    15  H    0.000002  -0.000001   0.554557  -0.019271  -0.020388   0.001018
    16  H    0.000007  -0.000054  -0.019271   0.561798  -0.023330   0.006653
    17  H   -0.000002   0.000002  -0.020388  -0.023330   0.507210  -0.005267
    18  H    0.000015  -0.000003   0.001018   0.006653  -0.005267   0.564609
    19  H    0.000055  -0.000002  -0.002650  -0.005330   0.004812  -0.029934
    20  H    0.000027  -0.000002   0.000000  -0.000003   0.000003   0.000005
    21  H   -0.000169   0.000056  -0.000000  -0.000000   0.000000  -0.000000
    22  H    0.006781  -0.006340  -0.000000   0.000000   0.000000  -0.000000
    23  H    0.402413  -0.022424  -0.000000  -0.000001  -0.000000   0.000001
    24  H    0.435003  -0.070732   0.000000   0.000007   0.000000  -0.000000
    25  H   -0.025940   0.393776   0.000001   0.000089  -0.000000   0.000001
    26  H   -0.032174   0.394140   0.000000   0.000001   0.000000   0.000000
    27  H   -0.042822   0.420901   0.000000  -0.000001   0.000000   0.000000
              19         20         21         22         23         24
     1  C   -0.030672   0.000031   0.000000   0.000000   0.000035  -0.000004
     2  C    0.392572  -0.000279   0.000000  -0.000000  -0.000086   0.000011
     3  O   -0.033439   0.000499  -0.000001  -0.000032   0.000333  -0.000073
     4  C    0.005521  -0.013531   0.000121   0.000288  -0.000117   0.000370
     5  O    0.001434   0.015007   0.000001   0.000001   0.000002  -0.000000
     6  C    0.003041  -0.059442   0.002389   0.012340   0.002029  -0.003022
     7  C    0.000039   0.430850   0.003378  -0.002987   0.000026  -0.000079
     8  N   -0.000000  -0.023649  -0.028518   0.007499  -0.000002  -0.000037
     9  C   -0.000001   0.004287   0.435629  -0.008084   0.000136   0.000128
    10  C    0.000001   0.000001  -0.070995   0.424293  -0.001242   0.010960
    11  C   -0.000233   0.006526  -0.000789  -0.091060   0.004524  -0.023902
    12  O    0.000040  -0.000058  -0.000120  -0.002918  -0.035396  -0.033194
    13  C    0.000055   0.000027  -0.000169   0.006781   0.402413   0.435003
    14  C   -0.000002  -0.000002   0.000056  -0.006340  -0.022424  -0.070732
    15  H   -0.002650   0.000000  -0.000000  -0.000000  -0.000000   0.000000
    16  H   -0.005330  -0.000003  -0.000000   0.000000  -0.000001   0.000007
    17  H    0.004812   0.000003   0.000000   0.000000  -0.000000   0.000000
    18  H   -0.029934   0.000005  -0.000000  -0.000000   0.000001  -0.000000
    19  H    0.581751   0.000006  -0.000000   0.000000  -0.000004  -0.000003
    20  H    0.000006   0.478992  -0.000209   0.000052  -0.000001  -0.000001
    21  H   -0.000000  -0.000209   0.530280  -0.000986  -0.000001  -0.000025
    22  H    0.000000   0.000052  -0.000986   0.522211   0.000083   0.000315
    23  H   -0.000004  -0.000001  -0.000001   0.000083   0.549957  -0.025636
    24  H   -0.000003  -0.000001  -0.000025   0.000315  -0.025636   0.592079
    25  H   -0.000000   0.000000  -0.000001   0.000334  -0.006029   0.007102
    26  H   -0.000000  -0.000000   0.000001   0.000548  -0.002499   0.002152
    27  H    0.000000  -0.000002   0.000028  -0.002369   0.004513  -0.004200
              25         26         27
     1  C   -0.000014   0.000000   0.000001
     2  C    0.000001  -0.000000  -0.000002
     3  O    0.000048   0.000003   0.000003
     4  C    0.000077   0.000016   0.000043
     5  O   -0.000001   0.000000   0.000000
     6  C   -0.001496   0.000003   0.001809
     7  C    0.000014  -0.000009   0.000042
     8  N    0.000003   0.000002  -0.000030
     9  C   -0.000081  -0.000044   0.001768
    10  C    0.001175  -0.000597  -0.000922
    11  C   -0.002523   0.000830   0.001952
    12  O    0.003507   0.004375  -0.000395
    13  C   -0.025940  -0.032174  -0.042822
    14  C    0.393776   0.394140   0.420901
    15  H    0.000001   0.000000   0.000000
    16  H    0.000089   0.000001  -0.000001
    17  H   -0.000000   0.000000   0.000000
    18  H    0.000001   0.000000   0.000000
    19  H   -0.000000  -0.000000   0.000000
    20  H    0.000000  -0.000000  -0.000002
    21  H   -0.000001   0.000001   0.000028
    22  H    0.000334   0.000548  -0.002369
    23  H   -0.006029  -0.002499   0.004513
    24  H    0.007102   0.002152  -0.004200
    25  H    0.540236  -0.016496  -0.022278
    26  H   -0.016496   0.546935  -0.021840
    27  H   -0.022278  -0.021840   0.529053
 Mulliken charges:
               1
     1  C   -0.370415
     2  C   -0.024143
     3  O   -0.253733
     4  C    0.386366
     5  O   -0.386198
     6  C   -0.018923
     7  C   -0.039558
     8  N   -0.271746
     9  C   -0.025633
    10  C   -0.238277
    11  C    0.244368
    12  O   -0.248577
    13  C   -0.070462
    14  C   -0.357291
    15  H    0.118342
    16  H    0.113829
    17  H    0.148301
    18  H    0.119842
    19  H    0.112998
    20  H    0.160892
    21  H    0.129932
    22  H    0.140027
    23  H    0.129386
    24  H    0.112779
    25  H    0.128494
    26  H    0.124656
    27  H    0.134746
 Sum of Mulliken charges =  -0.00000
 Mulliken charges with hydrogens summed into heavy atoms:
               1
     1  C    0.010057
     2  C    0.208697
     3  O   -0.253733
     4  C    0.386366
     5  O   -0.386198
     6  C   -0.018923
     7  C    0.121334
     8  N   -0.271746
     9  C    0.104298
    10  C   -0.098250
    11  C    0.244368
    12  O   -0.248577
    13  C    0.171703
    14  C    0.030605
 Electronic spatial extent (au):  <R**2>=           3110.7788
 Charge=             -0.0000 electrons
 Dipole moment (field-independent basis, Debye):
    X=              0.9666    Y=              5.2477    Z=             -0.9714  Tot=              5.4237
 Quadrupole moment (field-independent basis, Debye-Ang):
   XX=            -73.0360   YY=            -85.9151   ZZ=            -83.5953
   XY=              3.4661   XZ=              1.2417   YZ=              1.5512
 Traceless Quadrupole moment (field-independent basis, Debye-Ang):
   XX=              7.8128   YY=             -5.0663   ZZ=             -2.7465
   XY=              3.4661   XZ=              1.2417   YZ=              1.5512
 Octapole moment (field-independent basis, Debye-Ang**2):
  XXX=            -14.2592  YYY=             54.9434  ZZZ=             -2.9765  XYY=             -5.4992
  XXY=             31.8674  XXZ=            -12.3128  XZZ=             -8.5332  YZZ=              5.2592
  YYZ=             -8.1071  XYZ=             -2.8646
 Hexadecapole moment (field-independent basis, Debye-Ang**3):
 XXXX=          -2209.2649 YYYY=          -1521.3768 ZZZZ=           -230.9432 XXXY=            -13.6975
 XXXZ=             19.5105 YYYX=            102.2018 YYYZ=             -3.9166 ZZZX=              4.1095
 ZZZY=             -8.8104 XXYY=           -697.3970 XXZZ=           -450.0039 YYZZ=           -290.2681
 XXYZ=              3.3235 YYXZ=              1.2987 ZZXY=              7.6540
 N-N= 9.050150400431D+02 E-N=-3.372644988533D+03  KE= 6.660387436827D+02
 Breneman (CHELPG) radii used.
 Read replacement radii for each type of atom:
 Atom Element Radius
    1     6    1.50
    2     6    1.50
    3     8    1.70
    4     6    1.50
    5     8    1.70
    6     6    1.50
    7     6    1.50
    8     7    1.70
    9     6    1.50
   10     6    1.50
   11     6    1.50
   12     8    1.70
   13     6    1.50
   14     6    1.50
   15     1    1.45
   16     1    1.45
   17     1    1.45
   18     1    1.45
   19     1    1.45
   20     1    1.45
   21     1    1.45
   22     1    1.45
   23     1    1.45
   24     1    1.45
   25     1    1.45
   26     1    1.45
   27     1    1.45
 Generate Potential Derived Charges using the Breneman model, NDens= 1.
 Grid spacing= 0.300 Box extension= 2.800
 NStep X,Y,Z=   49     43     30   Total possible points=       63210
 Number of Points to Fit=   16864

 **********************************************************************

            Electrostatic Properties Using The SCF Density.

 **********************************************************************

       Atomic Center    1 is at  -3.734422  0.919728  0.682179
       Atomic Center    2 is at  -3.222142  0.338428 -0.621101
       Atomic Center    3 is at  -1.803132  0.184579 -0.607011
       Atomic Center    4 is at  -1.312911 -0.901151 -0.012671
       Atomic Center    5 is at  -2.004101 -1.768681  0.463589
       Atomic Center    6 is at   0.179629 -0.979400 -0.032901
       Atomic Center    7 is at   0.730320 -2.251169  0.162819
       Atomic Center    8 is at   2.028980 -2.529229  0.166999
       Atomic Center    9 is at   2.854269 -1.502318 -0.018301
       Atomic Center   10 is at   2.442488 -0.187308 -0.203801
       Atomic Center   11 is at   1.069508  0.104501 -0.211741
       Atomic Center   12 is at   0.568777  1.329331 -0.365751
       Atomic Center   13 is at   1.410827  2.462311 -0.484101
       Atomic Center   14 is at   1.929496  2.942741  0.859399
       Atomic Center   15 is at  -4.816152  1.105957  0.609929
       Atomic Center   16 is at  -3.232053  1.871958  0.906569
       Atomic Center   17 is at  -3.561192  0.220768  1.512059
       Atomic Center   18 is at  -3.690381 -0.635092 -0.827061
       Atomic Center   19 is at  -3.419212  1.015208 -1.463221
       Atomic Center   20 is at   0.037620 -3.083570  0.320699
       Atomic Center   21 is at   3.926409 -1.729057 -0.013471
       Atomic Center   22 is at   3.193618  0.590822 -0.330481
       Atomic Center   23 is at   0.773396  3.230211 -0.942991
       Atomic Center   24 is at   2.232007  2.259472 -1.192131
       Atomic Center   25 is at   1.089856  3.157691  1.535499
       Atomic Center   26 is at   2.513836  3.865172  0.727639
       Atomic Center   27 is at   2.574657  2.195052  1.342699
   16864 points will be used for fitting atomic charges
 Fitting point charges to electrostatic potential
 Charges from ESP fit, RMS=   0.00295 RRMS=   0.18443:
 ESP charges:
               1
     1  C   -0.201605
     2  C    0.346300
     3  O   -0.435101
     4  C    0.775386
     5  O   -0.536521
     6  C   -0.536392
     7  C    0.472897
     8  N   -0.654798
     9  C    0.442108
    10  C   -0.566218
    11  C    0.651334
    12  O   -0.410020
    13  C    0.294082
    14  C   -0.188359
    15  H    0.038976
    16  H    0.063844
    17  H    0.064462
    18  H   -0.015837
    19  H   -0.003833
    20  H    0.021372
    21  H    0.023745
    22  H    0.192690
    23  H    0.034138
    24  H   -0.029570
    25  H    0.066286
    26  H    0.048521
    27  H    0.042114
 Sum of ESP charges =  -0.00000
 ESP charges with hydrogens summed into heavy atoms:
               1
     1  C   -0.034323
     2  C    0.326630
     3  O   -0.435101
     4  C    0.775386
     5  O   -0.536521
     6  C   -0.536392
     7  C    0.494269
     8  N   -0.654798
     9  C    0.465853
    10  C   -0.373527
    11  C    0.651334
    12  O   -0.410020
    13  C    0.298650
    14  C   -0.031439
 Charge=  -0.00000 Dipole=     1.0251     5.1679    -1.0052 Tot=     5.3637
 -----------------------------------------------------------------

              Electrostatic Properties (Atomic Units)

 -----------------------------------------------------------------
    Center     Electric         -------- Electric Field --------
               Potential          X             Y             Z
 -----------------------------------------------------------------
    1 Atom    -14.773411
    2 Atom    -14.711471
    3 Atom    -22.318639
    4 Atom    -14.641413
    5 Atom    -22.387045
    6 Atom    -14.748605
    7 Atom    -14.732458
    8 Atom    -18.404518
    9 Atom    -14.727445
   10 Atom    -14.756449
   11 Atom    -14.673488
   12 Atom    -22.307641
   13 Atom    -14.692923
   14 Atom    -14.757447
   15 Atom     -1.111230
   16 Atom     -1.117461
   17 Atom     -1.120095
   18 Atom     -1.114734
   19 Atom     -1.111994
   20 Atom     -1.109007
   21 Atom     -1.099914
   22 Atom     -1.079735
   23 Atom     -1.097782
   24 Atom     -1.093560
   25 Atom     -1.102800
   26 Atom     -1.095694
   27 Atom     -1.101224
 -----------------------------------------------------------------
 Unable to Open any file for archive entry.
 1\1\GINC-NOTCH412\SP\RwB97XD\def2TZVP\C10H13N1O3\U6053008\12-Jul-2024\
 0\\#N Guess=Read Geom=Check Integral(Ultrafine) Density Pop=(ChelpG,Re
 adRadii) NMR wB97XD def2TZVP\\12326824_3\\0,1\C,0,-3.73442,0.91973,0.6
 8218\C,0,-3.22214,0.33843,-0.6211\O,0,-1.80313,0.18458,-0.60701\C,0,-1
 .31291,-0.90115,-0.01267\O,0,-2.0041,-1.76868,0.46359\C,0,0.17963,-0.9
 794,-0.0329\C,0,0.73032,-2.25117,0.16282\N,0,2.02898,-2.52923,0.167\C,
 0,2.85427,-1.50232,-0.0183\C,0,2.44249,-0.18731,-0.2038\C,0,1.06951,0.
 1045,-0.21174\O,0,0.56878,1.32933,-0.36575\C,0,1.41083,2.46231,-0.4841
 \C,0,1.9295,2.94274,0.8594\H,0,-4.81615,1.10596,0.60993\H,0,-3.23205,1
 .87196,0.90657\H,0,-3.56119,0.22077,1.51206\H,0,-3.69038,-0.63509,-0.8
 2706\H,0,-3.41921,1.01521,-1.46322\H,0,0.03762,-3.08357,0.3207\H,0,3.9
 2641,-1.72906,-0.01347\H,0,3.19362,0.59082,-0.33048\H,0,0.7734,3.23021
 ,-0.94299\H,0,2.23201,2.25947,-1.19213\H,0,1.08986,3.15769,1.5355\H,0,
 2.51384,3.86517,0.72764\H,0,2.57466,2.19505,1.3427\\Version=ES64L-G16R
 evC.01\State=1-A\HF=-669.3530129\RMSD=1.501e-09\Dipole=0.3802881,2.064
 6076,-0.3821959\Quadrupole=5.808653,-3.7666618,-2.0419912,2.5769338,0.
 9231506,1.15329\PG=C01 [X(C10H13N1O3)]\\@
 The archive entry for this job was punched.


 THOSE WHO TRY TO PASS CHEMISTRY OFF AS A NEW SCIENCE
 SHOW HOW LITTLE KNOWLEDGE THEY HAVE OF THE CHARACTER
 AND LITERATURE OF THE ANCIENTS.
   -- NICOLAS LEFEVRE
 "COURS DE CHYMIE" J.-N.LELOUP, PARIS, 1751
 Job cpu time:       0 days  1 hours  3 minutes  5.8 seconds.
 Elapsed time:       0 days  0 hours  4 minutes  8.8 seconds.
 File lengths (MBytes):  RWF=    165 Int=      0 D2E=      0 Chk=     25 Scr=      2
 Normal termination of Gaussian 16 at Fri Jul 12 13:27:12 2024.
