 Entering Gaussian System, Link 0=g16
 Input=12326824_5.com
 Output=12326824_5.log
 Initial command:
 /uufs/chpc.utah.edu/sys/installdir/gaussian16/C01/AVX/g16/l1.exe "/scratch/general/vast/u6053008/1319794-notchpeak.peaks/Gau-1289381.inp" -scrdir="/scratch/general/vast/u6053008/1319794-notchpeak.peaks/"
 Entering Link 1 = /uufs/chpc.utah.edu/sys/installdir/gaussian16/C01/AVX/g16/l1.exe PID=   1289382.
  
 Copyright (c) 1988-2019, Gaussian, Inc.  All Rights Reserved.
  
 This is part of the Gaussian(R) 16 program.  It is based on
 the Gaussian(R) 09 system (copyright 2009, Gaussian, Inc.),
 the Gaussian(R) 03 system (copyright 2003, Gaussian, Inc.),
 the Gaussian(R) 98 system (copyright 1998, Gaussian, Inc.),
 the Gaussian(R) 94 system (copyright 1995, Gaussian, Inc.),
 the Gaussian 92(TM) system (copyright 1992, Gaussian, Inc.),
 the Gaussian 90(TM) system (copyright 1990, Gaussian, Inc.),
 the Gaussian 88(TM) system (copyright 1988, Gaussian, Inc.),
 the Gaussian 86(TM) system (copyright 1986, Carnegie Mellon
 University), and the Gaussian 82(TM) system (copyright 1983,
 Carnegie Mellon University). Gaussian is a federally registered
 trademark of Gaussian, Inc.
  
 This software contains proprietary and confidential information,
 including trade secrets, belonging to Gaussian, Inc.
  
 This software is provided under written license and may be
 used, copied, transmitted, or stored only in accord with that
 written license.
  
 The following legend is applicable only to US Government
 contracts under FAR:
  
                    RESTRICTED RIGHTS LEGEND
  
 Use, reproduction and disclosure by the US Government is
 subject to restrictions as set forth in subparagraphs (a)
 and (c) of the Commercial Computer Software - Restricted
 Rights clause in FAR 52.227-19.
  
 Gaussian, Inc.
 340 Quinnipiac St., Bldg. 40, Wallingford CT 06492
  
  
 ---------------------------------------------------------------
 Warning -- This program may not be used in any manner that
 competes with the business of Gaussian, Inc. or will provide
 assistance to any competitor of Gaussian, Inc.  The licensee
 of this program is prohibited from giving any competitor of
 Gaussian, Inc. access to this program.  By using this program,
 the user acknowledges that Gaussian, Inc. is engaged in the
 business of creating and licensing software in the field of
 computational chemistry and represents and warrants to the
 licensee that it is not a competitor of Gaussian, Inc. and that
 it will not use this program in any manner prohibited above.
 ---------------------------------------------------------------
  

 Cite this work as:
 Gaussian 16, Revision C.01,
 M. J. Frisch, G. W. Trucks, H. B. Schlegel, G. E. Scuseria, 
 M. A. Robb, J. R. Cheeseman, G. Scalmani, V. Barone, 
 G. A. Petersson, H. Nakatsuji, X. Li, M. Caricato, A. V. Marenich, 
 J. Bloino, B. G. Janesko, R. Gomperts, B. Mennucci, H. P. Hratchian, 
 J. V. Ortiz, A. F. Izmaylov, J. L. Sonnenberg, D. Williams-Young, 
 F. Ding, F. Lipparini, F. Egidi, J. Goings, B. Peng, A. Petrone, 
 T. Henderson, D. Ranasinghe, V. G. Zakrzewski, J. Gao, N. Rega, 
 G. Zheng, W. Liang, M. Hada, M. Ehara, K. Toyota, R. Fukuda, 
 J. Hasegawa, M. Ishida, T. Nakajima, Y. Honda, O. Kitao, H. Nakai, 
 T. Vreven, K. Throssell, J. A. Montgomery, Jr., J. E. Peralta, 
 F. Ogliaro, M. J. Bearpark, J. J. Heyd, E. N. Brothers, K. N. Kudin, 
 V. N. Staroverov, T. A. Keith, R. Kobayashi, J. Normand, 
 K. Raghavachari, A. P. Rendell, J. C. Burant, S. S. Iyengar, 
 J. Tomasi, M. Cossi, J. M. Millam, M. Klene, C. Adamo, R. Cammi, 
 J. W. Ochterski, R. L. Martin, K. Morokuma, O. Farkas, 
 J. B. Foresman, and D. J. Fox, Gaussian, Inc., Wallingford CT, 2019.
 
 ******************************************
 Gaussian 16:  ES64L-G16RevC.01  3-Jul-2019
                14-Jul-2024 
 ******************************************
 %NProcShared=16
 Will use up to   16 processors via shared memory.
 %Mem=32GB
 %chk=12326824_5.chk
 ------------------------------------------------------
 #N OPT FREQ=NORAMAN Integral(Ultrafine) wB97XD def2SVP
 ------------------------------------------------------
 1/18=20,19=15,26=4,38=1/1,3;
 2/9=110,12=2,17=6,18=5,40=1/2;
 3/5=43,7=101,11=2,25=1,30=1,71=1,74=-58,75=-5/1,2,3;
 4//1;
 5/5=2,38=5/2;
 6/7=2,8=2,9=2,10=2,28=1/1;
 7//1,2,3,16;
 1/18=20,19=15,26=4/3(2);
 2/9=110/2;
 99//99;
 2/9=110/2;
 3/5=43,7=101,11=2,25=1,30=1,71=1,74=-58,75=-5/1,2,3;
 4/5=5,16=3,69=1/1;
 5/5=2,38=5/2;
 7//1,2,3,16;
 1/18=20,19=15,26=4/3(-5);
 2/9=110/2;
 6/7=2,8=2,9=2,10=2,19=2,28=1/1;
 99/9=1/99;
 ----------
 12326824_5
 ----------
 Symbolic Z-matrix:
 Charge =  0 Multiplicity = 1
 C                    -4.17638  -0.64064   0.88982 
 C                    -3.59726  -0.46557  -0.50051 
 O                    -2.38892   0.29303  -0.47904 
 C                    -1.25626  -0.36217  -0.17694 
 O                    -1.21487  -1.54689   0.02536 
 C                    -0.09783   0.57744  -0.10788 
 C                    -0.31153   1.94373   0.10534 
 N                     0.64931   2.85318   0.23252 
 C                     1.90118   2.4133    0.13826 
 C                     2.25382   1.08647  -0.08251 
 C                     1.2385    0.12752  -0.21788 
 O                     1.4505   -1.15893  -0.47615 
 C                     2.75884  -1.70036  -0.51525 
 C                     3.32265  -1.94572   0.87244 
 H                    -5.14147  -1.16509   0.82978 
 H                    -4.34256   0.33454   1.37048 
 H                    -3.50062  -1.23751   1.51789 
 H                    -3.40017  -1.44143  -0.96752 
 H                    -4.2761    0.10796  -1.14579 
 H                    -1.34149   2.30152   0.18387 
 H                     2.69219   3.16456   0.24263 
 H                     3.30717   0.81867  -0.14995 
 H                     3.42274  -1.06067  -1.12167 
 H                     2.64476  -2.65051  -1.05376 
 H                     4.30225  -2.44009   0.79737 
 H                     2.6459   -2.59621   1.44405 
 H                     3.4541   -1.00966   1.43431 
 

 GradGradGradGradGradGradGradGradGradGradGradGradGradGradGradGradGradGrad
 Berny optimization.
 Initialization pass.
                           ----------------------------
                           !    Initial Parameters    !
                           ! (Angstroms and Degrees)  !
 --------------------------                            --------------------------
 ! Name  Definition              Value          Derivative Info.                !
 --------------------------------------------------------------------------------
 ! R1    R(1,2)                  1.5163         estimate D2E/DX2                !
 ! R2    R(1,15)                 1.1            estimate D2E/DX2                !
 ! R3    R(1,16)                 1.0998         estimate D2E/DX2                !
 ! R4    R(1,17)                 1.0988         estimate D2E/DX2                !
 ! R5    R(2,3)                  1.4269         estimate D2E/DX2                !
 ! R6    R(2,18)                 1.0997         estimate D2E/DX2                !
 ! R7    R(2,19)                 1.0982         estimate D2E/DX2                !
 ! R8    R(3,4)                  1.3429         estimate D2E/DX2                !
 ! R9    R(4,5)                  1.2026         estimate D2E/DX2                !
 ! R10   R(4,6)                  1.4932         estimate D2E/DX2                !
 ! R11   R(6,7)                  1.3992         estimate D2E/DX2                !
 ! R12   R(6,11)                 1.4143         estimate D2E/DX2                !
 ! R13   R(7,8)                  1.3291         estimate D2E/DX2                !
 ! R14   R(7,20)                 1.0932         estimate D2E/DX2                !
 ! R15   R(8,9)                  1.3302         estimate D2E/DX2                !
 ! R16   R(9,10)                 1.3905         estimate D2E/DX2                !
 ! R17   R(9,21)                 1.0959         estimate D2E/DX2                !
 ! R18   R(10,11)                1.4031         estimate D2E/DX2                !
 ! R19   R(10,22)                1.0889         estimate D2E/DX2                !
 ! R20   R(11,12)                1.3291         estimate D2E/DX2                !
 ! R21   R(12,13)                1.4165         estimate D2E/DX2                !
 ! R22   R(13,14)                1.5178         estimate D2E/DX2                !
 ! R23   R(13,23)                1.1035         estimate D2E/DX2                !
 ! R24   R(13,24)                1.0981         estimate D2E/DX2                !
 ! R25   R(14,25)                1.0998         estimate D2E/DX2                !
 ! R26   R(14,26)                1.099          estimate D2E/DX2                !
 ! R27   R(14,27)                1.0996         estimate D2E/DX2                !
 ! A1    A(2,1,15)             109.8823         estimate D2E/DX2                !
 ! A2    A(2,1,16)             110.8589         estimate D2E/DX2                !
 ! A3    A(2,1,17)             110.6065         estimate D2E/DX2                !
 ! A4    A(15,1,16)            108.3017         estimate D2E/DX2                !
 ! A5    A(15,1,17)            108.1664         estimate D2E/DX2                !
 ! A6    A(16,1,17)            108.9507         estimate D2E/DX2                !
 ! A7    A(1,2,3)              111.779          estimate D2E/DX2                !
 ! A8    A(1,2,18)             110.8184         estimate D2E/DX2                !
 ! A9    A(1,2,19)             111.2828         estimate D2E/DX2                !
 ! A10   A(3,2,18)             109.0508         estimate D2E/DX2                !
 ! A11   A(3,2,19)             104.7524         estimate D2E/DX2                !
 ! A12   A(18,2,19)            108.9467         estimate D2E/DX2                !
 ! A13   A(2,3,4)              117.2736         estimate D2E/DX2                !
 ! A14   A(3,4,5)              123.1965         estimate D2E/DX2                !
 ! A15   A(3,4,6)              110.9609         estimate D2E/DX2                !
 ! A16   A(5,4,6)              125.834          estimate D2E/DX2                !
 ! A17   A(4,6,7)              120.1992         estimate D2E/DX2                !
 ! A18   A(4,6,11)             121.955          estimate D2E/DX2                !
 ! A19   A(7,6,11)             117.8255         estimate D2E/DX2                !
 ! A20   A(6,7,8)              124.9122         estimate D2E/DX2                !
 ! A21   A(6,7,20)             118.3225         estimate D2E/DX2                !
 ! A22   A(8,7,20)             116.763          estimate D2E/DX2                !
 ! A23   A(7,8,9)              116.5696         estimate D2E/DX2                !
 ! A24   A(8,9,10)             124.4326         estimate D2E/DX2                !
 ! A25   A(8,9,21)             116.4767         estimate D2E/DX2                !
 ! A26   A(10,9,21)            119.0906         estimate D2E/DX2                !
 ! A27   A(9,10,11)            118.9428         estimate D2E/DX2                !
 ! A28   A(9,10,22)            119.3276         estimate D2E/DX2                !
 ! A29   A(11,10,22)           121.7291         estimate D2E/DX2                !
 ! A30   A(6,11,10)            117.3091         estimate D2E/DX2                !
 ! A31   A(6,11,12)            118.2761         estimate D2E/DX2                !
 ! A32   A(10,11,12)           124.3895         estimate D2E/DX2                !
 ! A33   A(11,12,13)           121.51           estimate D2E/DX2                !
 ! A34   A(12,13,14)           112.3122         estimate D2E/DX2                !
 ! A35   A(12,13,23)           110.4438         estimate D2E/DX2                !
 ! A36   A(12,13,24)           104.378          estimate D2E/DX2                !
 ! A37   A(14,13,23)           111.8795         estimate D2E/DX2                !
 ! A38   A(14,13,24)           110.3088         estimate D2E/DX2                !
 ! A39   A(23,13,24)           107.1335         estimate D2E/DX2                !
 ! A40   A(13,14,25)           109.9444         estimate D2E/DX2                !
 ! A41   A(13,14,26)           110.0267         estimate D2E/DX2                !
 ! A42   A(13,14,27)           111.9597         estimate D2E/DX2                !
 ! A43   A(25,14,26)           108.5364         estimate D2E/DX2                !
 ! A44   A(25,14,27)           108.1216         estimate D2E/DX2                !
 ! A45   A(26,14,27)           108.1611         estimate D2E/DX2                !
 ! D1    D(15,1,2,3)           175.9276         estimate D2E/DX2                !
 ! D2    D(15,1,2,18)          -62.2042         estimate D2E/DX2                !
 ! D3    D(15,1,2,19)           59.1889         estimate D2E/DX2                !
 ! D4    D(16,1,2,3)            56.2482         estimate D2E/DX2                !
 ! D5    D(16,1,2,18)          178.1164         estimate D2E/DX2                !
 ! D6    D(16,1,2,19)          -60.4905         estimate D2E/DX2                !
 ! D7    D(17,1,2,3)           -64.7198         estimate D2E/DX2                !
 ! D8    D(17,1,2,18)           57.1484         estimate D2E/DX2                !
 ! D9    D(17,1,2,19)          178.5415         estimate D2E/DX2                !
 ! D10   D(1,2,3,4)             82.3072         estimate D2E/DX2                !
 ! D11   D(18,2,3,4)           -40.5722         estimate D2E/DX2                !
 ! D12   D(19,2,3,4)          -157.0687         estimate D2E/DX2                !
 ! D13   D(2,3,4,5)              2.6667         estimate D2E/DX2                !
 ! D14   D(2,3,4,6)           -176.3211         estimate D2E/DX2                !
 ! D15   D(3,4,6,7)             21.5109         estimate D2E/DX2                !
 ! D16   D(3,4,6,11)          -160.1608         estimate D2E/DX2                !
 ! D17   D(5,4,6,7)           -157.4443         estimate D2E/DX2                !
 ! D18   D(5,4,6,11)            20.884          estimate D2E/DX2                !
 ! D19   D(4,6,7,8)            177.3611         estimate D2E/DX2                !
 ! D20   D(4,6,7,20)            -2.0697         estimate D2E/DX2                !
 ! D21   D(11,6,7,8)            -1.0351         estimate D2E/DX2                !
 ! D22   D(11,6,7,20)          179.5341         estimate D2E/DX2                !
 ! D23   D(4,6,11,10)         -177.3515         estimate D2E/DX2                !
 ! D24   D(4,6,11,12)            4.4004         estimate D2E/DX2                !
 ! D25   D(7,6,11,10)            1.0148         estimate D2E/DX2                !
 ! D26   D(7,6,11,12)         -177.2333         estimate D2E/DX2                !
 ! D27   D(6,7,8,9)              0.4663         estimate D2E/DX2                !
 ! D28   D(20,7,8,9)           179.9051         estimate D2E/DX2                !
 ! D29   D(7,8,9,10)             0.0865         estimate D2E/DX2                !
 ! D30   D(7,8,9,21)           179.9573         estimate D2E/DX2                !
 ! D31   D(8,9,10,11)           -0.0281         estimate D2E/DX2                !
 ! D32   D(8,9,10,22)          179.7231         estimate D2E/DX2                !
 ! D33   D(21,9,10,11)        -179.8957         estimate D2E/DX2                !
 ! D34   D(21,9,10,22)          -0.1446         estimate D2E/DX2                !
 ! D35   D(9,10,11,6)           -0.5386         estimate D2E/DX2                !
 ! D36   D(9,10,11,12)         177.5917         estimate D2E/DX2                !
 ! D37   D(22,10,11,6)         179.7165         estimate D2E/DX2                !
 ! D38   D(22,10,11,12)         -2.1532         estimate D2E/DX2                !
 ! D39   D(6,11,12,13)        -175.8735         estimate D2E/DX2                !
 ! D40   D(10,11,12,13)          6.013          estimate D2E/DX2                !
 ! D41   D(11,12,13,14)         78.2683         estimate D2E/DX2                !
 ! D42   D(11,12,13,23)        -47.3842         estimate D2E/DX2                !
 ! D43   D(11,12,13,24)       -162.2267         estimate D2E/DX2                !
 ! D44   D(12,13,14,25)        175.4191         estimate D2E/DX2                !
 ! D45   D(12,13,14,26)         55.9324         estimate D2E/DX2                !
 ! D46   D(12,13,14,27)        -64.3772         estimate D2E/DX2                !
 ! D47   D(23,13,14,25)        -59.7145         estimate D2E/DX2                !
 ! D48   D(23,13,14,26)       -179.2013         estimate D2E/DX2                !
 ! D49   D(23,13,14,27)         60.4892         estimate D2E/DX2                !
 ! D50   D(24,13,14,25)         59.4375         estimate D2E/DX2                !
 ! D51   D(24,13,14,26)        -60.0492         estimate D2E/DX2                !
 ! D52   D(24,13,14,27)        179.6412         estimate D2E/DX2                !
 --------------------------------------------------------------------------------
 Trust Radius=3.00D-01 FncErr=1.00D-07 GrdErr=1.00D-06 EigMax=2.50D+02 EigMin=1.00D-04
 Number of steps in this run=    134 maximum allowed number of steps=    162.
 GradGradGradGradGradGradGradGradGradGradGradGradGradGradGradGradGradGrad

                          Input orientation:                          
 ---------------------------------------------------------------------
 Center     Atomic      Atomic             Coordinates (Angstroms)
 Number     Number       Type             X           Y           Z
 ---------------------------------------------------------------------
      1          6           0       -4.176380   -0.640640    0.889820
      2          6           0       -3.597260   -0.465570   -0.500510
      3          8           0       -2.388920    0.293030   -0.479040
      4          6           0       -1.256260   -0.362170   -0.176940
      5          8           0       -1.214870   -1.546890    0.025360
      6          6           0       -0.097830    0.577440   -0.107880
      7          6           0       -0.311530    1.943730    0.105340
      8          7           0        0.649310    2.853180    0.232520
      9          6           0        1.901180    2.413300    0.138260
     10          6           0        2.253820    1.086470   -0.082510
     11          6           0        1.238500    0.127520   -0.217880
     12          8           0        1.450500   -1.158930   -0.476150
     13          6           0        2.758840   -1.700360   -0.515250
     14          6           0        3.322650   -1.945720    0.872440
     15          1           0       -5.141470   -1.165090    0.829780
     16          1           0       -4.342560    0.334540    1.370480
     17          1           0       -3.500620   -1.237510    1.517890
     18          1           0       -3.400170   -1.441430   -0.967520
     19          1           0       -4.276100    0.107960   -1.145790
     20          1           0       -1.341490    2.301520    0.183870
     21          1           0        2.692190    3.164560    0.242630
     22          1           0        3.307170    0.818670   -0.149950
     23          1           0        3.422740   -1.060670   -1.121670
     24          1           0        2.644760   -2.650510   -1.053760
     25          1           0        4.302250   -2.440090    0.797370
     26          1           0        2.645900   -2.596210    1.444050
     27          1           0        3.454100   -1.009660    1.434310
 ---------------------------------------------------------------------
                    Distance matrix (angstroms):
                    1          2          3          4          5
     1  C    0.000000
     2  C    1.516261   0.000000
     3  O    2.437320   1.426892   0.000000
     4  C    3.121318   2.365517   1.342933   0.000000
     5  O    3.215450   2.668628   2.240116   1.202581   0.000000
     6  C    4.371921   3.672606   2.338320   1.493183   2.403811
     7  C    4.715023   4.119199   2.716958   2.507862   3.606501
     8  N    5.993839   5.439190   4.036276   3.759964   4.783168
     9  C    6.843108   6.239292   4.825097   4.215686   5.040399
    10  C    6.728730   6.067841   4.726713   3.798439   4.356378
    11  C    5.580143   4.880185   3.640573   2.542695   2.980241
    12  O    5.813457   5.095216   4.104795   2.837411   2.739749
    13  C    7.155034   6.474946   5.520358   4.245731   4.013251
    14  C    7.611766   7.208397   6.281762   4.957343   4.633109
    15  H    1.100023   2.154898   3.378706   4.093046   4.026295
    16  H    1.099830   2.167084   2.690568   3.522096   3.889932
    17  H    1.098807   2.163139   2.750665   2.945475   2.747365
    18  H    2.166444   1.099657   2.066299   2.527087   2.402596
    19  H    2.171187   1.098247   2.010039   3.206108   3.671682
    20  H    4.146236   3.635060   2.360210   2.689367   3.853754
    21  H    7.878811   7.299814   5.880831   5.310755   6.124548
    22  H    7.695078   7.031594   5.729750   4.713810   5.106413
    23  H    7.872048   7.072509   6.001739   4.824257   4.802032
    24  H    7.371908   6.636480   5.859408   4.606872   4.156828
    25  H    8.667972   8.245331   7.339681   6.013657   5.642023
    26  H    7.118633   6.877353   6.115177   4.779686   4.244914
    27  H    7.658777   7.332206   6.284806   5.020245   4.906428
                    6          7          8          9         10
     6  C    0.000000
     7  C    1.399242   0.000000
     8  N    2.419315   1.329093   0.000000
     9  C    2.725254   2.262226   1.330247   0.000000
    10  C    2.406245   2.711310   2.407272   1.390529   0.000000
    11  C    1.414322   2.409498   2.824753   2.406402   1.403134
    12  O    2.355404   3.615160   4.152246   3.652594   2.417043
    13  C    3.676260   4.805382   5.073855   4.252629   2.865088
    14  C    4.362000   5.378060   5.530433   4.643345   3.353879
    15  H    5.417926   5.789464   7.073637   7.929817   7.784093
    16  H    4.501364   4.520982   5.705898   6.695065   6.796235
    17  H    4.185230   4.720792   5.967230   6.664176   6.409036
    18  H    3.964879   4.706382   6.023459   6.647255   6.256287
    19  H    4.330775   4.544578   5.804794   6.717303   6.687892
    20  H    2.145754   1.093160   2.066393   3.244917   3.804413
    21  H    3.821028   3.245244   2.066499   1.095893   2.148568
    22  H    3.413794   3.798147   3.368937   2.145395   1.088950
    23  H    4.013177   4.947398   4.984372   3.996378   2.656396
    24  H    4.340063   5.584819   5.993909   5.255092   3.880874
    25  H    5.411623   6.401855   6.456139   5.454811   4.172155
    26  H    4.473097   5.581182   5.928746   5.230190   4.005776
    27  H    4.184907   4.966754   4.922670   3.975923   2.852223
                   11         12         13         14         15
    11  C    0.000000
    12  O    1.329135   0.000000
    13  C    2.396040   1.416485   0.000000
    14  C    3.135411   2.437761   1.517816   0.000000
    15  H    6.593364   6.720086   8.031844   8.500149   0.000000
    16  H    5.806374   6.260993   7.624085   8.012682   1.783116
    17  H    5.228333   5.338161   6.597630   6.890224   1.780766
    18  H    4.953870   4.883672   6.181019   6.988281   2.517693
    19  H    5.592156   5.903167   7.290952   8.125999   2.504476
    20  H    3.397650   4.495058   5.772046   6.345658   5.184056
    21  H    3.398367   4.555327   4.924050   5.187398   8.969774
    22  H    2.182132   2.732130   2.603771   2.947435   8.733538
    23  H    2.645664   2.077518   1.103500   2.183989   8.784347
    24  H    3.223928   1.996172   1.098086   2.160211   8.147366
    25  H    4.124308   3.375752   2.156916   1.099842   9.529456
    26  H    3.487333   2.679911   2.157350   1.099029   7.941572
    27  H    2.988611   2.772463   2.182026   1.099630   8.618204
                   16         17         18         19         20
    16  H    0.000000
    17  H    1.789395   0.000000
    18  H    3.083571   2.495784   0.000000
    19  H    2.527325   3.083318   1.788755   0.000000
    20  H    3.779348   4.355018   4.424199   3.897645   0.000000
    21  H    7.666079   7.704246   7.732817   7.734829   4.125393
    22  H    7.814375   7.304490   7.124948   7.681327   4.890840
    23  H    8.273893   7.411576   6.835265   7.787067   5.975504
    24  H    7.975594   6.809967   6.165265   7.450901   6.476459
    25  H    9.097240   7.927807   7.964887   9.157320   7.396692
    26  H    7.578475   6.295334   6.610911   7.869809   6.440116
    27  H    7.911944   6.958953   7.275729   8.225690   5.960302
                   21         22         23         24         25
    21  H    0.000000
    22  H    2.456729   0.000000
    23  H    4.499732   2.118848   0.000000
    24  H    5.958013   3.645664   1.771287   0.000000
    25  H    5.857656   3.536540   2.521716   2.493638   0.000000
    26  H    5.884898   3.826162   3.089382   2.498400   1.784955
    27  H    4.407348   2.423687   2.556681   3.088351   1.780781
                   26         27
    26  H    0.000000
    27  H    1.780568   0.000000
 Stoichiometry    C10H13NO3
 Framework group  C1[X(C10H13NO3)]
 Deg. of freedom    75
 Full point group                 C1      NOp   1
 Largest Abelian subgroup         C1      NOp   1
 Largest concise Abelian subgroup C1      NOp   1
                         Standard orientation:                         
 ---------------------------------------------------------------------
 Center     Atomic      Atomic             Coordinates (Angstroms)
 Number     Number       Type             X           Y           Z
 ---------------------------------------------------------------------
      1          6           0       -4.176379   -0.640640    0.889820
      2          6           0       -3.597259   -0.465570   -0.500510
      3          8           0       -2.388919    0.293030   -0.479040
      4          6           0       -1.256259   -0.362170   -0.176940
      5          8           0       -1.214869   -1.546890    0.025360
      6          6           0       -0.097829    0.577440   -0.107880
      7          6           0       -0.311529    1.943730    0.105340
      8          7           0        0.649311    2.853180    0.232520
      9          6           0        1.901181    2.413300    0.138260
     10          6           0        2.253821    1.086470   -0.082510
     11          6           0        1.238501    0.127520   -0.217880
     12          8           0        1.450501   -1.158930   -0.476150
     13          6           0        2.758840   -1.700360   -0.515250
     14          6           0        3.322650   -1.945721    0.872440
     15          1           0       -5.141469   -1.165090    0.829780
     16          1           0       -4.342559    0.334540    1.370480
     17          1           0       -3.500619   -1.237510    1.517890
     18          1           0       -3.400169   -1.441430   -0.967520
     19          1           0       -4.276099    0.107960   -1.145790
     20          1           0       -1.341489    2.301520    0.183870
     21          1           0        2.692191    3.164560    0.242630
     22          1           0        3.307171    0.818669   -0.149950
     23          1           0        3.422741   -1.060671   -1.121670
     24          1           0        2.644760   -2.650510   -1.053760
     25          1           0        4.302250   -2.440091    0.797370
     26          1           0        2.645900   -2.596210    1.444050
     27          1           0        3.454101   -1.009661    1.434310
 ---------------------------------------------------------------------
 Rotational constants (GHZ):           1.0321074           0.4596007           0.3388147
 Standard basis: def2SVP (5D, 7F)
 There are   275 symmetry adapted cartesian basis functions of A   symmetry.
 There are   261 symmetry adapted basis functions of A   symmetry.
   261 basis functions,   441 primitive gaussians,   275 cartesian basis functions
    52 alpha electrons       52 beta electrons
       nuclear repulsion energy       897.8207695191 Hartrees.
 NAtoms=   27 NActive=   27 NUniq=   27 SFac= 1.00D+00 NAtFMM=   60 NAOKFM=F Big=F
 Integral buffers will be    131072 words long.
 Raffenetti 2 integral format.
 Two-electron integral symmetry is turned on.
 Nuclear repulsion after empirical dispersion term =      897.8054695324 Hartrees.
 One-electron integrals computed using PRISM.
   1 Symmetry operations used in ECPInt.
 ECPInt:  NShTT=    7626 NPrTT=   27482 LenC2=    7131 LenP2D=   18575.
 LDataN:  DoStor=T MaxTD1= 4 Len=   56
 NBasis=   261 RedAO= T EigKep=  5.28D-04  NBF=   261
 NBsUse=   261 1.00D-06 EigRej= -1.00D+00 NBFU=   261
 ExpMin= 1.22D-01 ExpMax= 2.27D+03 ExpMxC= 3.41D+02 IAcc=3 IRadAn=         5 AccDes= 0.00D+00
 Harris functional with IExCor= 4639 and IRadAn=       5 diagonalized for initial guess.
 HarFok:  IExCor= 4639 AccDes= 0.00D+00 IRadAn=         5 IDoV= 1 UseB2=F ITyADJ=14
 ICtDFT=  3500011 ScaDFX=  1.000000  1.000000  1.000000  1.000000
 FoFCou: FMM=F IPFlag=           0 FMFlag=      100000 FMFlg1=           0
         NFxFlg=           0 DoJE=T BraDBF=F KetDBF=T FulRan=T
         wScrn=  0.000000 ICntrl=       500 IOpCl=  0 I1Cent=   200000004 NGrid=           0
         NMat0=    1 NMatS0=      1 NMatT0=    0 NMatD0=    1 NMtDS0=    0 NMtDT0=    0
 Petite list used in FoFCou.
 Requested convergence on RMS density matrix=1.00D-08 within 128 cycles.
 Requested convergence on MAX density matrix=1.00D-06.
 Requested convergence on             energy=1.00D-06.
 No special actions if energy rises.
 Integral accuracy reduced to 1.0D-05 until final iterations.
 Initial convergence to 1.0D-05 achieved.  Increase integral accuracy.
 SCF Done:  E(RwB97XD) =  -668.617724847     A.U. after   16 cycles
            NFock= 16  Conv=0.52D-08     -V/T= 2.0098

 **********************************************************************

            Population analysis using the SCF Density.

 **********************************************************************

 Orbital symmetries:
       Occupied  (A) (A) (A) (A) (A) (A) (A) (A) (A) (A) (A) (A)
                 (A) (A) (A) (A) (A) (A) (A) (A) (A) (A) (A) (A)
                 (A) (A) (A) (A) (A) (A) (A) (A) (A) (A) (A) (A)
                 (A) (A) (A) (A) (A) (A) (A) (A) (A) (A) (A) (A)
                 (A) (A) (A) (A)
       Virtual   (A) (A) (A) (A) (A) (A) (A) (A) (A) (A) (A) (A)
                 (A) (A) (A) (A) (A) (A) (A) (A) (A) (A) (A) (A)
                 (A) (A) (A) (A) (A) (A) (A) (A) (A) (A) (A) (A)
                 (A) (A) (A) (A) (A) (A) (A) (A) (A) (A) (A) (A)
                 (A) (A) (A) (A) (A) (A) (A) (A) (A) (A) (A) (A)
                 (A) (A) (A) (A) (A) (A) (A) (A) (A) (A) (A) (A)
                 (A) (A) (A) (A) (A) (A) (A) (A) (A) (A) (A) (A)
                 (A) (A) (A) (A) (A) (A) (A) (A) (A) (A) (A) (A)
                 (A) (A) (A) (A) (A) (A) (A) (A) (A) (A) (A) (A)
                 (A) (A) (A) (A) (A) (A) (A) (A) (A) (A) (A) (A)
                 (A) (A) (A) (A) (A) (A) (A) (A) (A) (A) (A) (A)
                 (A) (A) (A) (A) (A) (A) (A) (A) (A) (A) (A) (A)
                 (A) (A) (A) (A) (A) (A) (A) (A) (A) (A) (A) (A)
                 (A) (A) (A) (A) (A) (A) (A) (A) (A) (A) (A) (A)
                 (A) (A) (A) (A) (A) (A) (A) (A) (A) (A) (A) (A)
                 (A) (A) (A) (A) (A) (A) (A) (A) (A) (A) (A) (A)
                 (A) (A) (A) (A) (A) (A) (A) (A) (A) (A) (A) (A)
                 (A) (A) (A) (A) (A)
 The electronic state is 1-A.
 Alpha  occ. eigenvalues --  -19.30354 -19.29645 -19.23727 -14.43517 -10.42741
 Alpha  occ. eigenvalues --  -10.39316 -10.36867 -10.35324 -10.34439 -10.34151
 Alpha  occ. eigenvalues --  -10.31687 -10.31327 -10.30682 -10.29444  -1.19976
 Alpha  occ. eigenvalues --   -1.18618  -1.10422  -1.04271  -0.91740  -0.88192
 Alpha  occ. eigenvalues --   -0.86525  -0.84995  -0.77209  -0.76042  -0.73064
 Alpha  occ. eigenvalues --   -0.69308  -0.65469  -0.63790  -0.61335  -0.61151
 Alpha  occ. eigenvalues --   -0.57494  -0.56307  -0.55803  -0.55048  -0.53977
 Alpha  occ. eigenvalues --   -0.53235  -0.52248  -0.50514  -0.49166  -0.48486
 Alpha  occ. eigenvalues --   -0.48214  -0.46734  -0.45796  -0.45274  -0.44045
 Alpha  occ. eigenvalues --   -0.42182  -0.41875  -0.38262  -0.36094  -0.34872
 Alpha  occ. eigenvalues --   -0.33628  -0.33056
 Alpha virt. eigenvalues --    0.02011   0.05335   0.12201   0.13249   0.15229
 Alpha virt. eigenvalues --    0.15783   0.17835   0.18448   0.19171   0.19384
 Alpha virt. eigenvalues --    0.19958   0.20541   0.21246   0.22348   0.22630
 Alpha virt. eigenvalues --    0.24101   0.24329   0.24439   0.25344   0.28640
 Alpha virt. eigenvalues --    0.29014   0.29442   0.32630   0.33377   0.36350
 Alpha virt. eigenvalues --    0.37254   0.39295   0.41040   0.42599   0.46586
 Alpha virt. eigenvalues --    0.48061   0.48612   0.49433   0.50641   0.50862
 Alpha virt. eigenvalues --    0.51121   0.51995   0.52973   0.53694   0.55828
 Alpha virt. eigenvalues --    0.56924   0.58484   0.59342   0.60406   0.61776
 Alpha virt. eigenvalues --    0.62929   0.65139   0.67095   0.67743   0.68525
 Alpha virt. eigenvalues --    0.69257   0.69443   0.70060   0.71556   0.72167
 Alpha virt. eigenvalues --    0.72681   0.73553   0.73787   0.74686   0.75214
 Alpha virt. eigenvalues --    0.75614   0.76237   0.76535   0.77375   0.77686
 Alpha virt. eigenvalues --    0.78559   0.78979   0.79232   0.80828   0.81331
 Alpha virt. eigenvalues --    0.82286   0.84145   0.85534   0.88301   0.90689
 Alpha virt. eigenvalues --    0.95014   0.95522   0.98699   0.99361   1.00959
 Alpha virt. eigenvalues --    1.01905   1.04810   1.09406   1.11627   1.12629
 Alpha virt. eigenvalues --    1.13678   1.15805   1.17778   1.19522   1.21475
 Alpha virt. eigenvalues --    1.22870   1.24725   1.28430   1.30767   1.31872
 Alpha virt. eigenvalues --    1.33420   1.34371   1.36831   1.38806   1.41529
 Alpha virt. eigenvalues --    1.42805   1.42866   1.45327   1.47621   1.48758
 Alpha virt. eigenvalues --    1.50458   1.53863   1.58313   1.60273   1.61315
 Alpha virt. eigenvalues --    1.61892   1.63780   1.65570   1.68491   1.73198
 Alpha virt. eigenvalues --    1.75068   1.76424   1.78343   1.79100   1.81126
 Alpha virt. eigenvalues --    1.81938   1.82726   1.83033   1.84415   1.84776
 Alpha virt. eigenvalues --    1.85883   1.86753   1.87357   1.87551   1.87925
 Alpha virt. eigenvalues --    1.88902   1.90714   1.90783   1.92384   1.93024
 Alpha virt. eigenvalues --    1.94356   1.95516   1.96327   1.97938   1.98776
 Alpha virt. eigenvalues --    2.00631   2.01105   2.01927   2.03998   2.05756
 Alpha virt. eigenvalues --    2.08471   2.11162   2.12228   2.14762   2.17500
 Alpha virt. eigenvalues --    2.19391   2.21032   2.23461   2.27485   2.27889
 Alpha virt. eigenvalues --    2.28849   2.32017   2.36367   2.38206   2.42397
 Alpha virt. eigenvalues --    2.42945   2.43968   2.44175   2.44553   2.48154
 Alpha virt. eigenvalues --    2.48484   2.49834   2.57098   2.57963   2.58951
 Alpha virt. eigenvalues --    2.60726   2.62308   2.65359   2.69849   2.70387
 Alpha virt. eigenvalues --    2.73277   2.73875   2.77454   2.77952   2.80249
 Alpha virt. eigenvalues --    2.83651   2.84326   2.86367   2.89773   2.90877
 Alpha virt. eigenvalues --    2.93106   2.96339   2.98750   3.00349   3.01662
 Alpha virt. eigenvalues --    3.03303   3.05267   3.06704   3.08255   3.09772
 Alpha virt. eigenvalues --    3.11075   3.12973   3.16752   3.18276   3.19342
 Alpha virt. eigenvalues --    3.29613   3.32079   3.40290   3.50646   3.55858
 Alpha virt. eigenvalues --    3.60580   3.68691   3.78813   3.82899
          Condensed to atoms (all electrons):
               1          2          3          4          5          6
     1  C    4.605830   0.445153  -0.037668  -0.007519  -0.008205  -0.001659
     2  C    0.445153   4.455685   0.252279  -0.033612   0.000906   0.012365
     3  O   -0.037668   0.252279   7.985386   0.407582  -0.083571  -0.158133
     4  C   -0.007519  -0.033612   0.407582   4.568980   0.733698   0.112863
     5  O   -0.008205   0.000906  -0.083571   0.733698   7.661430  -0.103666
     6  C   -0.001659   0.012365  -0.158133   0.112863  -0.103666   5.857034
     7  C    0.000091  -0.000800   0.013608  -0.031399   0.001669   0.432592
     8  N   -0.000001  -0.000001   0.000294   0.006460  -0.000008  -0.037678
     9  C   -0.000000   0.000002  -0.000032   0.000453  -0.000028  -0.053394
    10  C    0.000000   0.000005  -0.000006   0.014031   0.000238  -0.066520
    11  C   -0.000035  -0.000222  -0.000750  -0.056368   0.002194   0.343075
    12  O   -0.000001   0.000012  -0.000019   0.008097  -0.006262  -0.103274
    13  C   -0.000000  -0.000001   0.000002   0.000085   0.000348   0.006611
    14  C    0.000000  -0.000000  -0.000000  -0.000110  -0.000137  -0.000859
    15  H    0.382354  -0.015956   0.003677   0.000214  -0.000067   0.000012
    16  H    0.388809  -0.021134   0.001068  -0.000027   0.000198  -0.000248
    17  H    0.393166  -0.015070  -0.006007   0.004412   0.008563   0.000438
    18  H   -0.028949   0.388781  -0.026347  -0.007579   0.017719   0.001184
    19  H   -0.027269   0.390627  -0.024474   0.005158   0.000442   0.000012
    20  H   -0.000104  -0.000715   0.013189  -0.012442   0.000181  -0.063919
    21  H   -0.000000   0.000000  -0.000000   0.000064  -0.000000   0.001119
    22  H    0.000000  -0.000000   0.000001  -0.000134   0.000004   0.013322
    23  H   -0.000000   0.000000  -0.000000   0.000121  -0.000031  -0.000959
    24  H    0.000000  -0.000000   0.000000  -0.000191   0.000135   0.000307
    25  H   -0.000000   0.000000   0.000000  -0.000000   0.000000   0.000033
    26  H   -0.000000   0.000000   0.000000   0.000154   0.000133  -0.000472
    27  H    0.000000  -0.000000   0.000000  -0.000056   0.000007  -0.000035
               7          8          9         10         11         12
     1  C    0.000091  -0.000001  -0.000000   0.000000  -0.000035  -0.000001
     2  C   -0.000800  -0.000001   0.000002   0.000005  -0.000222   0.000012
     3  O    0.013608   0.000294  -0.000032  -0.000006  -0.000750  -0.000019
     4  C   -0.031399   0.006460   0.000453   0.014031  -0.056368   0.008097
     5  O    0.001669  -0.000008  -0.000028   0.000238   0.002194  -0.006262
     6  C    0.432592  -0.037678  -0.053394  -0.066520   0.343075  -0.103274
     7  C    4.694973   0.530418  -0.068781  -0.050339  -0.030698   0.001340
     8  N    0.530418   6.289665   0.529293  -0.043288  -0.057005  -0.000067
     9  C   -0.068781   0.529293   4.702876   0.437062   0.003588   0.003421
    10  C   -0.050339  -0.043288   0.437062   5.158116   0.411199  -0.076128
    11  C   -0.030698  -0.057005   0.003588   0.411199   4.782522   0.454991
    12  O    0.001340  -0.000067   0.003421  -0.076128   0.454991   7.829830
    13  C   -0.000213   0.000007   0.000257   0.002319  -0.048709   0.278909
    14  C    0.000026  -0.000006  -0.000016  -0.004890  -0.007339  -0.045210
    15  H    0.000003   0.000000   0.000000   0.000000   0.000001   0.000000
    16  H    0.000067   0.000002  -0.000000  -0.000000  -0.000002  -0.000000
    17  H   -0.000141  -0.000000   0.000000  -0.000000   0.000012   0.000001
    18  H    0.000188   0.000002   0.000000  -0.000001   0.000050  -0.000004
    19  H   -0.000138  -0.000001   0.000000  -0.000000   0.000033   0.000000
    20  H    0.430242  -0.033693   0.004579   0.000795   0.006713  -0.000053
    21  H    0.004646  -0.038323   0.421480  -0.065184   0.005983  -0.000078
    22  H    0.000210   0.005811  -0.034985   0.419978  -0.065836  -0.006487
    23  H   -0.000066  -0.000016   0.000615   0.010205  -0.013984  -0.025118
    24  H    0.000021   0.000000   0.000003  -0.000116   0.004559  -0.024026
    25  H   -0.000000   0.000000   0.000005  -0.000383   0.000307   0.003732
    26  H   -0.000012   0.000000  -0.000001   0.000362   0.000191   0.001365
    27  H    0.000015  -0.000001  -0.000218   0.003422   0.002893  -0.002857
              13         14         15         16         17         18
     1  C   -0.000000   0.000000   0.382354   0.388809   0.393166  -0.028949
     2  C   -0.000001  -0.000000  -0.015956  -0.021134  -0.015070   0.388781
     3  O    0.000002  -0.000000   0.003677   0.001068  -0.006007  -0.026347
     4  C    0.000085  -0.000110   0.000214  -0.000027   0.004412  -0.007579
     5  O    0.000348  -0.000137  -0.000067   0.000198   0.008563   0.017719
     6  C    0.006611  -0.000859   0.000012  -0.000248   0.000438   0.001184
     7  C   -0.000213   0.000026   0.000003   0.000067  -0.000141   0.000188
     8  N    0.000007  -0.000006   0.000000   0.000002  -0.000000   0.000002
     9  C    0.000257  -0.000016   0.000000  -0.000000   0.000000   0.000000
    10  C    0.002319  -0.004890   0.000000  -0.000000  -0.000000  -0.000001
    11  C   -0.048709  -0.007339   0.000001  -0.000002   0.000012   0.000050
    12  O    0.278909  -0.045210   0.000000  -0.000000   0.000001  -0.000004
    13  C    4.464190   0.437113   0.000000  -0.000000  -0.000000   0.000000
    14  C    0.437113   4.622353  -0.000000   0.000000  -0.000000   0.000000
    15  H    0.000000  -0.000000   0.623121  -0.017562  -0.017620  -0.001356
    16  H   -0.000000   0.000000  -0.017562   0.625343  -0.023956   0.007499
    17  H   -0.000000  -0.000000  -0.017620  -0.023956   0.598982  -0.010290
    18  H    0.000000   0.000000  -0.001356   0.007499  -0.010290   0.637468
    19  H    0.000000  -0.000000  -0.003046  -0.009304   0.006578  -0.028717
    20  H    0.000006   0.000000   0.000002   0.000394  -0.000076   0.000191
    21  H   -0.000042   0.000003  -0.000000   0.000000   0.000000   0.000000
    22  H    0.005139  -0.004090  -0.000000   0.000000   0.000000  -0.000000
    23  H    0.394326  -0.041138   0.000000   0.000000   0.000000  -0.000000
    24  H    0.388504  -0.019659   0.000000   0.000000  -0.000000   0.000000
    25  H   -0.015122   0.379145   0.000000   0.000000   0.000000   0.000000
    26  H   -0.015082   0.386543   0.000000  -0.000000   0.000000  -0.000000
    27  H   -0.022080   0.399680   0.000000  -0.000000  -0.000000   0.000000
              19         20         21         22         23         24
     1  C   -0.027269  -0.000104  -0.000000   0.000000  -0.000000   0.000000
     2  C    0.390627  -0.000715   0.000000  -0.000000   0.000000  -0.000000
     3  O   -0.024474   0.013189  -0.000000   0.000001  -0.000000   0.000000
     4  C    0.005158  -0.012442   0.000064  -0.000134   0.000121  -0.000191
     5  O    0.000442   0.000181  -0.000000   0.000004  -0.000031   0.000135
     6  C    0.000012  -0.063919   0.001119   0.013322  -0.000959   0.000307
     7  C   -0.000138   0.430242   0.004646   0.000210  -0.000066   0.000021
     8  N   -0.000001  -0.033693  -0.038323   0.005811  -0.000016   0.000000
     9  C    0.000000   0.004579   0.421480  -0.034985   0.000615   0.000003
    10  C   -0.000000   0.000795  -0.065184   0.419978   0.010205  -0.000116
    11  C    0.000033   0.006713   0.005983  -0.065836  -0.013984   0.004559
    12  O    0.000000  -0.000053  -0.000078  -0.006487  -0.025118  -0.024026
    13  C    0.000000   0.000006  -0.000042   0.005139   0.394326   0.388504
    14  C   -0.000000   0.000000   0.000003  -0.004090  -0.041138  -0.019659
    15  H   -0.003046   0.000002  -0.000000  -0.000000   0.000000   0.000000
    16  H   -0.009304   0.000394   0.000000   0.000000   0.000000   0.000000
    17  H    0.006578  -0.000076   0.000000   0.000000   0.000000  -0.000000
    18  H   -0.028717   0.000191   0.000000  -0.000000  -0.000000   0.000000
    19  H    0.646364  -0.000184   0.000000   0.000000   0.000000  -0.000000
    20  H   -0.000184   0.612169  -0.000306   0.000046  -0.000000  -0.000000
    21  H    0.000000  -0.000306   0.639560  -0.007237   0.000051  -0.000001
    22  H    0.000000   0.000046  -0.007237   0.651679  -0.000189  -0.000083
    23  H    0.000000  -0.000000   0.000051  -0.000189   0.671645  -0.029979
    24  H   -0.000000  -0.000000  -0.000001  -0.000083  -0.029979   0.629764
    25  H    0.000000   0.000000  -0.000000   0.000283  -0.001189  -0.003231
    26  H   -0.000000  -0.000000   0.000001  -0.000037   0.007831  -0.009957
    27  H   -0.000000  -0.000000  -0.000015   0.001966  -0.010610   0.006681
              25         26         27
     1  C   -0.000000  -0.000000   0.000000
     2  C    0.000000   0.000000  -0.000000
     3  O    0.000000   0.000000   0.000000
     4  C   -0.000000   0.000154  -0.000056
     5  O    0.000000   0.000133   0.000007
     6  C    0.000033  -0.000472  -0.000035
     7  C   -0.000000  -0.000012   0.000015
     8  N    0.000000   0.000000  -0.000001
     9  C    0.000005  -0.000001  -0.000218
    10  C   -0.000383   0.000362   0.003422
    11  C    0.000307   0.000191   0.002893
    12  O    0.003732   0.001365  -0.002857
    13  C   -0.015122  -0.015082  -0.022080
    14  C    0.379145   0.386543   0.399680
    15  H    0.000000   0.000000   0.000000
    16  H    0.000000  -0.000000  -0.000000
    17  H    0.000000   0.000000  -0.000000
    18  H    0.000000  -0.000000   0.000000
    19  H    0.000000  -0.000000  -0.000000
    20  H    0.000000  -0.000000  -0.000000
    21  H   -0.000000   0.000001  -0.000015
    22  H    0.000283  -0.000037   0.001966
    23  H   -0.001189   0.007831  -0.010610
    24  H   -0.003231  -0.009957   0.006681
    25  H    0.619734  -0.015273  -0.018904
    26  H   -0.015273   0.598728  -0.022622
    27  H   -0.018904  -0.022622   0.614307
 Mulliken charges:
               1
     1  C   -0.103993
     2  C    0.141695
     3  O   -0.340080
     4  C    0.287062
     5  O   -0.225892
     6  C   -0.190154
     7  C    0.072477
     8  N   -0.151866
     9  C    0.053822
    10  C   -0.150877
    11  C    0.262639
    12  O   -0.292115
    13  C    0.123431
    14  C   -0.101409
    15  H    0.046222
    16  H    0.048854
    17  H    0.061010
    18  H    0.050162
    19  H    0.043922
    20  H    0.042985
    21  H    0.038279
    22  H    0.020640
    23  H    0.038486
    24  H    0.057268
    25  H    0.050862
    26  H    0.068147
    27  H    0.048425
 Sum of Mulliken charges =  -0.00000
 Mulliken charges with hydrogens summed into heavy atoms:
               1
     1  C    0.052092
     2  C    0.235778
     3  O   -0.340080
     4  C    0.287062
     5  O   -0.225892
     6  C   -0.190154
     7  C    0.115462
     8  N   -0.151866
     9  C    0.092102
    10  C   -0.130237
    11  C    0.262639
    12  O   -0.292115
    13  C    0.219185
    14  C    0.066024
 Electronic spatial extent (au):  <R**2>=           3315.5612
 Charge=             -0.0000 electrons
 Dipole moment (field-independent basis, Debye):
    X=              1.6747    Y=             -1.3863    Z=             -0.3184  Tot=              2.1972
 Quadrupole moment (field-independent basis, Debye-Ang):
   XX=            -59.7430   YY=            -90.7281   ZZ=            -82.5055
   XY=             -3.3304   XZ=             -0.3011   YZ=              0.2874
 Traceless Quadrupole moment (field-independent basis, Debye-Ang):
   XX=             17.9158   YY=            -13.0692   ZZ=             -4.8466
   XY=             -3.3304   XZ=             -0.3011   YZ=              0.2874
 Octapole moment (field-independent basis, Debye-Ang**2):
  XXX=            -12.2069  YYY=            -43.8707  ZZZ=             -4.2092  XYY=             11.6774
  XXY=            -15.1162  XXZ=             -6.6123  XZZ=             -5.8550  YZZ=             -8.6533
  YYZ=             -4.7039  XYZ=             -0.2488
 Hexadecapole moment (field-independent basis, Debye-Ang**3):
 XXXX=          -2621.4053 YYYY=          -1333.8235 ZZZZ=           -229.7374 XXXY=              4.5242
 XXXZ=             11.2145 YYYX=            -34.2798 YYYZ=             -4.0214 ZZZX=              3.3318
 ZZZY=              3.0437 XXYY=           -625.1333 XXZZ=           -527.6604 YYZZ=           -242.8557
 XXYZ=             12.5290 YYXZ=             -1.6190 ZZXY=             -6.8154
 N-N= 8.978054695324D+02 E-N=-3.353083854135D+03  KE= 6.621316526941D+02
   1 Symmetry operations used in ECPInt.
 ECPInt:  NShTT=    7626 NPrTT=   27482 LenC2=    7131 LenP2D=   18575.
 LDataN:  DoStor=T MaxTD1= 5 Len=  102
 Calling FoFJK, ICntrl=      2127 FMM=F ISym2X=0 I1Cent= 0 IOpClX= 0 NMat=1 NMatS=1 NMatT=0.
 ***** Axes restored to original set *****
 -------------------------------------------------------------------
 Center     Atomic                   Forces (Hartrees/Bohr)
 Number     Number              X              Y              Z
 -------------------------------------------------------------------
      1        6           0.000008212   -0.000001699    0.000007738
      2        6          -0.000011308   -0.000008804    0.000006469
      3        8           0.000003530   -0.000005603   -0.000018846
      4        6           0.000012868    0.000035770    0.000004344
      5        8          -0.000002880   -0.000017748    0.000002128
      6        6          -0.000012610   -0.000005891    0.000000483
      7        6           0.000005251    0.000007705    0.000007932
      8        7          -0.000009802   -0.000007103   -0.000002938
      9        6           0.000012260    0.000006983   -0.000003569
     10        6          -0.000002739   -0.000000360    0.000004034
     11        6           0.000006682   -0.000018625   -0.000016448
     12        8          -0.000003291    0.000010428    0.000009015
     13        6           0.000001863    0.000007467   -0.000002492
     14        6           0.000004525   -0.000008421    0.000004611
     15        1          -0.000003361   -0.000000610   -0.000001594
     16        1           0.000000045   -0.000003778   -0.000001527
     17        1          -0.000006554    0.000004999   -0.000003981
     18        1           0.000000123    0.000003548   -0.000001842
     19        1           0.000002688    0.000000476    0.000006024
     20        1           0.000000126    0.000000476   -0.000002092
     21        1          -0.000001665   -0.000003118    0.000000856
     22        1           0.000000257    0.000002639    0.000000251
     23        1          -0.000001341    0.000003350    0.000001873
     24        1          -0.000002703   -0.000002511    0.000000332
     25        1          -0.000002192    0.000001490    0.000001954
     26        1           0.000002933    0.000003407   -0.000001295
     27        1          -0.000000919   -0.000004468   -0.000001419
 -------------------------------------------------------------------
 Cartesian Forces:  Max     0.000035770 RMS     0.000007560

 GradGradGradGradGradGradGradGradGradGradGradGradGradGradGradGradGradGrad
 Berny optimization.
 FormGI is forming the generalized inverse of G from B-inverse, IUseBI=4.
 Internal  Forces:  Max     0.000017695 RMS     0.000004350
 Search for a local minimum.
 Step number   1 out of a maximum of  134
 All quantities printed in internal units (Hartrees-Bohrs-Radians)
 Mixed Optimization -- En-DIIS/RFO-DIIS
 Second derivative matrix not updated -- first step.
 ITU=  0
     Eigenvalues ---    0.00530   0.00551   0.00856   0.01336   0.01366
     Eigenvalues ---    0.01474   0.01644   0.01981   0.02111   0.02135
     Eigenvalues ---    0.02185   0.02267   0.02344   0.02447   0.02509
     Eigenvalues ---    0.02629   0.04819   0.05005   0.05595   0.05679
     Eigenvalues ---    0.05702   0.05770   0.05797   0.05813   0.11744
     Eigenvalues ---    0.11834   0.13912   0.14007   0.16000   0.16000
     Eigenvalues ---    0.16000   0.16000   0.16000   0.16000   0.16000
     Eigenvalues ---    0.16000   0.16000   0.22000   0.22058   0.22334
     Eigenvalues ---    0.23245   0.24564   0.24983   0.24991   0.24998
     Eigenvalues ---    0.25000   0.25000   0.25000   0.30578   0.30730
     Eigenvalues ---    0.33103   0.33298   0.33680   0.33700   0.33701
     Eigenvalues ---    0.33720   0.33723   0.33790   0.33814   0.33877
     Eigenvalues ---    0.33895   0.34140   0.34450   0.34934   0.41439
     Eigenvalues ---    0.41517   0.42510   0.42994   0.44988   0.46666
     Eigenvalues ---    0.56553   0.57200   0.58618   0.59710   1.03537
 RFO step:  Lambda=-2.36271262D-08 EMin= 5.30270023D-03
 Linear search not attempted -- first point.
 Iteration  1 RMS(Cart)=  0.00036295 RMS(Int)=  0.00000005
 Iteration  2 RMS(Cart)=  0.00000007 RMS(Int)=  0.00000000
 Variable       Old X    -DE/DX   Delta X   Delta X   Delta X     New X
                                 (Linear)    (Quad)   (Total)
    R1        2.86532   0.00000   0.00000   0.00000   0.00000   2.86532
    R2        2.07874   0.00000   0.00000   0.00001   0.00001   2.07875
    R3        2.07838  -0.00000   0.00000  -0.00001  -0.00001   2.07837
    R4        2.07644  -0.00001   0.00000  -0.00003  -0.00003   2.07642
    R5        2.69643   0.00001   0.00000   0.00003   0.00003   2.69646
    R6        2.07805  -0.00000   0.00000  -0.00001  -0.00001   2.07804
    R7        2.07539  -0.00000   0.00000  -0.00001  -0.00001   2.07537
    R8        2.53778   0.00000   0.00000   0.00000   0.00000   2.53778
    R9        2.27255   0.00002   0.00000   0.00002   0.00002   2.27256
   R10        2.82171  -0.00001   0.00000  -0.00002  -0.00002   2.82169
   R11        2.64418   0.00000   0.00000   0.00001   0.00001   2.64419
   R12        2.67268   0.00001   0.00000   0.00002   0.00002   2.67270
   R13        2.51162  -0.00001   0.00000  -0.00001  -0.00001   2.51161
   R14        2.06577  -0.00000   0.00000  -0.00000  -0.00000   2.06577
   R15        2.51380   0.00001   0.00000   0.00001   0.00001   2.51381
   R16        2.62772   0.00000   0.00000   0.00000   0.00000   2.62772
   R17        2.07094  -0.00000   0.00000  -0.00001  -0.00001   2.07093
   R18        2.65154   0.00000   0.00000   0.00001   0.00001   2.65155
   R19        2.05782  -0.00000   0.00000  -0.00000  -0.00000   2.05782
   R20        2.51170  -0.00001   0.00000  -0.00002  -0.00002   2.51168
   R21        2.67677   0.00000   0.00000   0.00000   0.00000   2.67677
   R22        2.86826   0.00001   0.00000   0.00002   0.00002   2.86828
   R23        2.08531   0.00000   0.00000   0.00000   0.00000   2.08531
   R24        2.07508   0.00000   0.00000   0.00001   0.00001   2.07509
   R25        2.07840  -0.00000   0.00000  -0.00001  -0.00001   2.07839
   R26        2.07686  -0.00000   0.00000  -0.00001  -0.00001   2.07685
   R27        2.07800  -0.00000   0.00000  -0.00001  -0.00001   2.07798
    A1        1.91781  -0.00000   0.00000  -0.00002  -0.00002   1.91779
    A2        1.93485   0.00000   0.00000   0.00000   0.00000   1.93486
    A3        1.93045   0.00000   0.00000   0.00002   0.00002   1.93047
    A4        1.89022   0.00000   0.00000  -0.00001  -0.00001   1.89021
    A5        1.88786   0.00000   0.00000   0.00000   0.00000   1.88786
    A6        1.90155  -0.00000   0.00000   0.00000   0.00000   1.90155
    A7        1.95091   0.00001   0.00000   0.00004   0.00004   1.95095
    A8        1.93415   0.00000   0.00000   0.00002   0.00002   1.93416
    A9        1.94225  -0.00000   0.00000  -0.00003  -0.00003   1.94222
   A10        1.90330  -0.00000   0.00000  -0.00000  -0.00000   1.90329
   A11        1.82827  -0.00000   0.00000  -0.00003  -0.00003   1.82824
   A12        1.90148   0.00000   0.00000   0.00000   0.00000   1.90148
   A13        2.04681   0.00000   0.00000   0.00000   0.00000   2.04681
   A14        2.15018  -0.00001   0.00000  -0.00005  -0.00005   2.15013
   A15        1.93663   0.00002   0.00000   0.00007   0.00007   1.93670
   A16        2.19622  -0.00000   0.00000  -0.00002  -0.00002   2.19620
   A17        2.09787   0.00001   0.00000   0.00002   0.00002   2.09789
   A18        2.12852  -0.00000   0.00000  -0.00002  -0.00002   2.12850
   A19        2.05644  -0.00000   0.00000  -0.00000  -0.00000   2.05644
   A20        2.18013   0.00000   0.00000   0.00000   0.00000   2.18013
   A21        2.06512   0.00000   0.00000   0.00000   0.00000   2.06512
   A22        2.03790  -0.00000   0.00000  -0.00000  -0.00000   2.03790
   A23        2.03452   0.00000   0.00000   0.00002   0.00002   2.03454
   A24        2.17176  -0.00000   0.00000  -0.00002  -0.00002   2.17174
   A25        2.03290   0.00000   0.00000   0.00001   0.00001   2.03292
   A26        2.07852   0.00000   0.00000   0.00000   0.00000   2.07853
   A27        2.07594   0.00000   0.00000   0.00001   0.00001   2.07596
   A28        2.08266  -0.00000   0.00000  -0.00002  -0.00002   2.08264
   A29        2.12457   0.00000   0.00000   0.00001   0.00001   2.12458
   A30        2.04743  -0.00000   0.00000  -0.00001  -0.00001   2.04742
   A31        2.06431   0.00000   0.00000   0.00000   0.00000   2.06431
   A32        2.17101   0.00000   0.00000   0.00001   0.00001   2.17101
   A33        2.12075   0.00000   0.00000   0.00002   0.00002   2.12077
   A34        1.96022   0.00001   0.00000   0.00005   0.00005   1.96027
   A35        1.92761  -0.00001   0.00000  -0.00002  -0.00002   1.92759
   A36        1.82174  -0.00000   0.00000  -0.00004  -0.00004   1.82170
   A37        1.95266   0.00000   0.00000   0.00003   0.00003   1.95269
   A38        1.92525  -0.00001   0.00000  -0.00005  -0.00005   1.92521
   A39        1.86983   0.00000   0.00000   0.00002   0.00002   1.86985
   A40        1.91889   0.00000   0.00000   0.00002   0.00002   1.91891
   A41        1.92033   0.00000   0.00000   0.00000   0.00000   1.92033
   A42        1.95406   0.00000   0.00000   0.00000   0.00000   1.95407
   A43        1.89432  -0.00000   0.00000  -0.00000  -0.00000   1.89431
   A44        1.88708  -0.00000   0.00000  -0.00000  -0.00000   1.88707
   A45        1.88777  -0.00000   0.00000  -0.00001  -0.00001   1.88775
    D1        3.07052  -0.00000   0.00000  -0.00007  -0.00007   3.07045
    D2       -1.08567   0.00000   0.00000  -0.00003  -0.00003  -1.08570
    D3        1.03304  -0.00000   0.00000  -0.00004  -0.00004   1.03301
    D4        0.98172  -0.00000   0.00000  -0.00005  -0.00005   0.98167
    D5        3.10872   0.00000   0.00000  -0.00001  -0.00001   3.10871
    D6       -1.05576   0.00000   0.00000  -0.00001  -0.00001  -1.05577
    D7       -1.12957  -0.00000   0.00000  -0.00007  -0.00007  -1.12964
    D8        0.99743   0.00000   0.00000  -0.00003  -0.00003   0.99740
    D9        3.11614  -0.00000   0.00000  -0.00003  -0.00003   3.11611
   D10        1.43653  -0.00000   0.00000  -0.00032  -0.00032   1.43621
   D11       -0.70812  -0.00001   0.00000  -0.00037  -0.00037  -0.70848
   D12       -2.74137  -0.00000   0.00000  -0.00035  -0.00035  -2.74172
   D13        0.04654   0.00000   0.00000   0.00013   0.00013   0.04667
   D14       -3.07738   0.00000   0.00000   0.00020   0.00020  -3.07719
   D15        0.37544   0.00000   0.00000   0.00010   0.00010   0.37554
   D16       -2.79533  -0.00000   0.00000   0.00003   0.00003  -2.79530
   D17       -2.74792   0.00000   0.00000   0.00017   0.00017  -2.74775
   D18        0.36449   0.00000   0.00000   0.00009   0.00009   0.36459
   D19        3.09554  -0.00000   0.00000  -0.00002  -0.00002   3.09551
   D20       -0.03612  -0.00000   0.00000  -0.00010  -0.00010  -0.03623
   D21       -0.01807   0.00000   0.00000   0.00005   0.00005  -0.01802
   D22        3.13346  -0.00000   0.00000  -0.00003  -0.00003   3.13343
   D23       -3.09537   0.00000   0.00000   0.00010   0.00010  -3.09527
   D24        0.07680   0.00000   0.00000   0.00005   0.00005   0.07685
   D25        0.01771   0.00000   0.00000   0.00002   0.00002   0.01773
   D26       -3.09330  -0.00000   0.00000  -0.00003  -0.00003  -3.09333
   D27        0.00814  -0.00000   0.00000  -0.00006  -0.00006   0.00808
   D28        3.13994   0.00000   0.00000   0.00002   0.00002   3.13995
   D29        0.00151   0.00000   0.00000   0.00000   0.00000   0.00151
   D30        3.14085   0.00000   0.00000   0.00008   0.00008   3.14092
   D31       -0.00049   0.00000   0.00000   0.00007   0.00007  -0.00042
   D32        3.13676   0.00000   0.00000   0.00003   0.00003   3.13679
   D33       -3.13977  -0.00000   0.00000  -0.00001  -0.00001  -3.13978
   D34       -0.00252  -0.00000   0.00000  -0.00005  -0.00005  -0.00257
   D35       -0.00940  -0.00000   0.00000  -0.00007  -0.00007  -0.00947
   D36        3.09956  -0.00000   0.00000  -0.00002  -0.00002   3.09954
   D37        3.13664  -0.00000   0.00000  -0.00004  -0.00004   3.13661
   D38       -0.03758   0.00000   0.00000   0.00002   0.00002  -0.03756
   D39       -3.06957   0.00000   0.00000   0.00006   0.00006  -3.06951
   D40        0.10495   0.00000   0.00000   0.00001   0.00001   0.10496
   D41        1.36604   0.00001   0.00000   0.00048   0.00048   1.36652
   D42       -0.82701   0.00000   0.00000   0.00042   0.00042  -0.82659
   D43       -2.83139   0.00001   0.00000   0.00042   0.00042  -2.83097
   D44        3.06164  -0.00000   0.00000  -0.00002  -0.00002   3.06162
   D45        0.97620  -0.00000   0.00000  -0.00003  -0.00003   0.97618
   D46       -1.12359  -0.00000   0.00000  -0.00001  -0.00001  -1.12361
   D47       -1.04222   0.00000   0.00000   0.00002   0.00002  -1.04220
   D48       -3.12765   0.00000   0.00000   0.00001   0.00001  -3.12764
   D49        1.05574   0.00000   0.00000   0.00003   0.00003   1.05576
   D50        1.03738   0.00000   0.00000   0.00003   0.00003   1.03741
   D51       -1.04806   0.00000   0.00000   0.00002   0.00002  -1.04803
   D52        3.13533   0.00000   0.00000   0.00004   0.00004   3.13537
         Item               Value     Threshold  Converged?
 Maximum Force            0.000018     0.000450     YES
 RMS     Force            0.000004     0.000300     YES
 Maximum Displacement     0.001302     0.001800     YES
 RMS     Displacement     0.000363     0.001200     YES
 Predicted change in Energy=-1.181358D-08
 Optimization completed.
    -- Stationary point found.
                           ----------------------------
                           !   Optimized Parameters   !
                           ! (Angstroms and Degrees)  !
 --------------------------                            --------------------------
 ! Name  Definition              Value          Derivative Info.                !
 --------------------------------------------------------------------------------
 ! R1    R(1,2)                  1.5163         -DE/DX =    0.0                 !
 ! R2    R(1,15)                 1.1            -DE/DX =    0.0                 !
 ! R3    R(1,16)                 1.0998         -DE/DX =    0.0                 !
 ! R4    R(1,17)                 1.0988         -DE/DX =    0.0                 !
 ! R5    R(2,3)                  1.4269         -DE/DX =    0.0                 !
 ! R6    R(2,18)                 1.0997         -DE/DX =    0.0                 !
 ! R7    R(2,19)                 1.0982         -DE/DX =    0.0                 !
 ! R8    R(3,4)                  1.3429         -DE/DX =    0.0                 !
 ! R9    R(4,5)                  1.2026         -DE/DX =    0.0                 !
 ! R10   R(4,6)                  1.4932         -DE/DX =    0.0                 !
 ! R11   R(6,7)                  1.3992         -DE/DX =    0.0                 !
 ! R12   R(6,11)                 1.4143         -DE/DX =    0.0                 !
 ! R13   R(7,8)                  1.3291         -DE/DX =    0.0                 !
 ! R14   R(7,20)                 1.0932         -DE/DX =    0.0                 !
 ! R15   R(8,9)                  1.3302         -DE/DX =    0.0                 !
 ! R16   R(9,10)                 1.3905         -DE/DX =    0.0                 !
 ! R17   R(9,21)                 1.0959         -DE/DX =    0.0                 !
 ! R18   R(10,11)                1.4031         -DE/DX =    0.0                 !
 ! R19   R(10,22)                1.0889         -DE/DX =    0.0                 !
 ! R20   R(11,12)                1.3291         -DE/DX =    0.0                 !
 ! R21   R(12,13)                1.4165         -DE/DX =    0.0                 !
 ! R22   R(13,14)                1.5178         -DE/DX =    0.0                 !
 ! R23   R(13,23)                1.1035         -DE/DX =    0.0                 !
 ! R24   R(13,24)                1.0981         -DE/DX =    0.0                 !
 ! R25   R(14,25)                1.0998         -DE/DX =    0.0                 !
 ! R26   R(14,26)                1.099          -DE/DX =    0.0                 !
 ! R27   R(14,27)                1.0996         -DE/DX =    0.0                 !
 ! A1    A(2,1,15)             109.8823         -DE/DX =    0.0                 !
 ! A2    A(2,1,16)             110.8589         -DE/DX =    0.0                 !
 ! A3    A(2,1,17)             110.6065         -DE/DX =    0.0                 !
 ! A4    A(15,1,16)            108.3017         -DE/DX =    0.0                 !
 ! A5    A(15,1,17)            108.1664         -DE/DX =    0.0                 !
 ! A6    A(16,1,17)            108.9507         -DE/DX =    0.0                 !
 ! A7    A(1,2,3)              111.779          -DE/DX =    0.0                 !
 ! A8    A(1,2,18)             110.8184         -DE/DX =    0.0                 !
 ! A9    A(1,2,19)             111.2828         -DE/DX =    0.0                 !
 ! A10   A(3,2,18)             109.0508         -DE/DX =    0.0                 !
 ! A11   A(3,2,19)             104.7524         -DE/DX =    0.0                 !
 ! A12   A(18,2,19)            108.9467         -DE/DX =    0.0                 !
 ! A13   A(2,3,4)              117.2736         -DE/DX =    0.0                 !
 ! A14   A(3,4,5)              123.1965         -DE/DX =    0.0                 !
 ! A15   A(3,4,6)              110.9609         -DE/DX =    0.0                 !
 ! A16   A(5,4,6)              125.834          -DE/DX =    0.0                 !
 ! A17   A(4,6,7)              120.1992         -DE/DX =    0.0                 !
 ! A18   A(4,6,11)             121.955          -DE/DX =    0.0                 !
 ! A19   A(7,6,11)             117.8255         -DE/DX =    0.0                 !
 ! A20   A(6,7,8)              124.9122         -DE/DX =    0.0                 !
 ! A21   A(6,7,20)             118.3225         -DE/DX =    0.0                 !
 ! A22   A(8,7,20)             116.763          -DE/DX =    0.0                 !
 ! A23   A(7,8,9)              116.5696         -DE/DX =    0.0                 !
 ! A24   A(8,9,10)             124.4326         -DE/DX =    0.0                 !
 ! A25   A(8,9,21)             116.4767         -DE/DX =    0.0                 !
 ! A26   A(10,9,21)            119.0906         -DE/DX =    0.0                 !
 ! A27   A(9,10,11)            118.9428         -DE/DX =    0.0                 !
 ! A28   A(9,10,22)            119.3276         -DE/DX =    0.0                 !
 ! A29   A(11,10,22)           121.7291         -DE/DX =    0.0                 !
 ! A30   A(6,11,10)            117.3091         -DE/DX =    0.0                 !
 ! A31   A(6,11,12)            118.2761         -DE/DX =    0.0                 !
 ! A32   A(10,11,12)           124.3895         -DE/DX =    0.0                 !
 ! A33   A(11,12,13)           121.51           -DE/DX =    0.0                 !
 ! A34   A(12,13,14)           112.3122         -DE/DX =    0.0                 !
 ! A35   A(12,13,23)           110.4438         -DE/DX =    0.0                 !
 ! A36   A(12,13,24)           104.378          -DE/DX =    0.0                 !
 ! A37   A(14,13,23)           111.8795         -DE/DX =    0.0                 !
 ! A38   A(14,13,24)           110.3088         -DE/DX =    0.0                 !
 ! A39   A(23,13,24)           107.1335         -DE/DX =    0.0                 !
 ! A40   A(13,14,25)           109.9444         -DE/DX =    0.0                 !
 ! A41   A(13,14,26)           110.0267         -DE/DX =    0.0                 !
 ! A42   A(13,14,27)           111.9597         -DE/DX =    0.0                 !
 ! A43   A(25,14,26)           108.5364         -DE/DX =    0.0                 !
 ! A44   A(25,14,27)           108.1216         -DE/DX =    0.0                 !
 ! A45   A(26,14,27)           108.1611         -DE/DX =    0.0                 !
 ! D1    D(15,1,2,3)           175.9276         -DE/DX =    0.0                 !
 ! D2    D(15,1,2,18)          -62.2042         -DE/DX =    0.0                 !
 ! D3    D(15,1,2,19)           59.1889         -DE/DX =    0.0                 !
 ! D4    D(16,1,2,3)            56.2482         -DE/DX =    0.0                 !
 ! D5    D(16,1,2,18)          178.1164         -DE/DX =    0.0                 !
 ! D6    D(16,1,2,19)          -60.4905         -DE/DX =    0.0                 !
 ! D7    D(17,1,2,3)           -64.7198         -DE/DX =    0.0                 !
 ! D8    D(17,1,2,18)           57.1484         -DE/DX =    0.0                 !
 ! D9    D(17,1,2,19)          178.5415         -DE/DX =    0.0                 !
 ! D10   D(1,2,3,4)             82.3072         -DE/DX =    0.0                 !
 ! D11   D(18,2,3,4)           -40.5722         -DE/DX =    0.0                 !
 ! D12   D(19,2,3,4)          -157.0687         -DE/DX =    0.0                 !
 ! D13   D(2,3,4,5)              2.6667         -DE/DX =    0.0                 !
 ! D14   D(2,3,4,6)           -176.3211         -DE/DX =    0.0                 !
 ! D15   D(3,4,6,7)             21.5109         -DE/DX =    0.0                 !
 ! D16   D(3,4,6,11)          -160.1608         -DE/DX =    0.0                 !
 ! D17   D(5,4,6,7)           -157.4443         -DE/DX =    0.0                 !
 ! D18   D(5,4,6,11)            20.884          -DE/DX =    0.0                 !
 ! D19   D(4,6,7,8)            177.3611         -DE/DX =    0.0                 !
 ! D20   D(4,6,7,20)            -2.0697         -DE/DX =    0.0                 !
 ! D21   D(11,6,7,8)            -1.0351         -DE/DX =    0.0                 !
 ! D22   D(11,6,7,20)          179.5341         -DE/DX =    0.0                 !
 ! D23   D(4,6,11,10)         -177.3515         -DE/DX =    0.0                 !
 ! D24   D(4,6,11,12)            4.4004         -DE/DX =    0.0                 !
 ! D25   D(7,6,11,10)            1.0148         -DE/DX =    0.0                 !
 ! D26   D(7,6,11,12)         -177.2333         -DE/DX =    0.0                 !
 ! D27   D(6,7,8,9)              0.4663         -DE/DX =    0.0                 !
 ! D28   D(20,7,8,9)           179.9051         -DE/DX =    0.0                 !
 ! D29   D(7,8,9,10)             0.0865         -DE/DX =    0.0                 !
 ! D30   D(7,8,9,21)           179.9573         -DE/DX =    0.0                 !
 ! D31   D(8,9,10,11)           -0.0281         -DE/DX =    0.0                 !
 ! D32   D(8,9,10,22)          179.7231         -DE/DX =    0.0                 !
 ! D33   D(21,9,10,11)        -179.8957         -DE/DX =    0.0                 !
 ! D34   D(21,9,10,22)          -0.1446         -DE/DX =    0.0                 !
 ! D35   D(9,10,11,6)           -0.5386         -DE/DX =    0.0                 !
 ! D36   D(9,10,11,12)         177.5917         -DE/DX =    0.0                 !
 ! D37   D(22,10,11,6)         179.7165         -DE/DX =    0.0                 !
 ! D38   D(22,10,11,12)         -2.1532         -DE/DX =    0.0                 !
 ! D39   D(6,11,12,13)        -175.8735         -DE/DX =    0.0                 !
 ! D40   D(10,11,12,13)          6.013          -DE/DX =    0.0                 !
 ! D41   D(11,12,13,14)         78.2683         -DE/DX =    0.0                 !
 ! D42   D(11,12,13,23)        -47.3842         -DE/DX =    0.0                 !
 ! D43   D(11,12,13,24)       -162.2267         -DE/DX =    0.0                 !
 ! D44   D(12,13,14,25)        175.4191         -DE/DX =    0.0                 !
 ! D45   D(12,13,14,26)         55.9324         -DE/DX =    0.0                 !
 ! D46   D(12,13,14,27)        -64.3772         -DE/DX =    0.0                 !
 ! D47   D(23,13,14,25)        -59.7145         -DE/DX =    0.0                 !
 ! D48   D(23,13,14,26)       -179.2013         -DE/DX =    0.0                 !
 ! D49   D(23,13,14,27)         60.4892         -DE/DX =    0.0                 !
 ! D50   D(24,13,14,25)         59.4375         -DE/DX =    0.0                 !
 ! D51   D(24,13,14,26)        -60.0492         -DE/DX =    0.0                 !
 ! D52   D(24,13,14,27)        179.6412         -DE/DX =    0.0                 !
 --------------------------------------------------------------------------------
 GradGradGradGradGradGradGradGradGradGradGradGradGradGradGradGradGradGrad

                          Input orientation:                          
 ---------------------------------------------------------------------
 Center     Atomic      Atomic             Coordinates (Angstroms)
 Number     Number       Type             X           Y           Z
 ---------------------------------------------------------------------
      1          6           0       -4.176380   -0.640640    0.889820
      2          6           0       -3.597260   -0.465570   -0.500510
      3          8           0       -2.388920    0.293030   -0.479040
      4          6           0       -1.256260   -0.362170   -0.176940
      5          8           0       -1.214870   -1.546890    0.025360
      6          6           0       -0.097830    0.577440   -0.107880
      7          6           0       -0.311530    1.943730    0.105340
      8          7           0        0.649310    2.853180    0.232520
      9          6           0        1.901180    2.413300    0.138260
     10          6           0        2.253820    1.086470   -0.082510
     11          6           0        1.238500    0.127520   -0.217880
     12          8           0        1.450500   -1.158930   -0.476150
     13          6           0        2.758840   -1.700360   -0.515250
     14          6           0        3.322650   -1.945720    0.872440
     15          1           0       -5.141470   -1.165090    0.829780
     16          1           0       -4.342560    0.334540    1.370480
     17          1           0       -3.500620   -1.237510    1.517890
     18          1           0       -3.400170   -1.441430   -0.967520
     19          1           0       -4.276100    0.107960   -1.145790
     20          1           0       -1.341490    2.301520    0.183870
     21          1           0        2.692190    3.164560    0.242630
     22          1           0        3.307170    0.818670   -0.149950
     23          1           0        3.422740   -1.060670   -1.121670
     24          1           0        2.644760   -2.650510   -1.053760
     25          1           0        4.302250   -2.440090    0.797370
     26          1           0        2.645900   -2.596210    1.444050
     27          1           0        3.454100   -1.009660    1.434310
 ---------------------------------------------------------------------
                    Distance matrix (angstroms):
                    1          2          3          4          5
     1  C    0.000000
     2  C    1.516261   0.000000
     3  O    2.437320   1.426892   0.000000
     4  C    3.121318   2.365517   1.342933   0.000000
     5  O    3.215450   2.668628   2.240116   1.202581   0.000000
     6  C    4.371921   3.672606   2.338320   1.493183   2.403811
     7  C    4.715023   4.119199   2.716958   2.507862   3.606501
     8  N    5.993839   5.439190   4.036276   3.759964   4.783168
     9  C    6.843108   6.239292   4.825097   4.215686   5.040399
    10  C    6.728730   6.067841   4.726713   3.798439   4.356378
    11  C    5.580143   4.880185   3.640573   2.542695   2.980241
    12  O    5.813457   5.095216   4.104795   2.837411   2.739749
    13  C    7.155034   6.474946   5.520358   4.245731   4.013251
    14  C    7.611766   7.208397   6.281762   4.957343   4.633109
    15  H    1.100023   2.154898   3.378706   4.093046   4.026295
    16  H    1.099830   2.167084   2.690568   3.522096   3.889932
    17  H    1.098807   2.163139   2.750665   2.945475   2.747365
    18  H    2.166444   1.099657   2.066299   2.527087   2.402596
    19  H    2.171187   1.098247   2.010039   3.206108   3.671682
    20  H    4.146236   3.635060   2.360210   2.689367   3.853754
    21  H    7.878811   7.299814   5.880831   5.310755   6.124548
    22  H    7.695078   7.031594   5.729750   4.713810   5.106413
    23  H    7.872048   7.072509   6.001739   4.824257   4.802032
    24  H    7.371908   6.636480   5.859408   4.606872   4.156828
    25  H    8.667972   8.245331   7.339681   6.013657   5.642023
    26  H    7.118633   6.877353   6.115177   4.779686   4.244914
    27  H    7.658777   7.332206   6.284806   5.020245   4.906428
                    6          7          8          9         10
     6  C    0.000000
     7  C    1.399242   0.000000
     8  N    2.419315   1.329093   0.000000
     9  C    2.725254   2.262226   1.330247   0.000000
    10  C    2.406245   2.711310   2.407272   1.390529   0.000000
    11  C    1.414322   2.409498   2.824753   2.406402   1.403134
    12  O    2.355404   3.615160   4.152246   3.652594   2.417043
    13  C    3.676260   4.805382   5.073855   4.252629   2.865088
    14  C    4.362000   5.378060   5.530433   4.643345   3.353879
    15  H    5.417926   5.789464   7.073637   7.929817   7.784093
    16  H    4.501364   4.520982   5.705898   6.695065   6.796235
    17  H    4.185230   4.720792   5.967230   6.664176   6.409036
    18  H    3.964879   4.706382   6.023459   6.647255   6.256287
    19  H    4.330775   4.544578   5.804794   6.717303   6.687892
    20  H    2.145754   1.093160   2.066393   3.244917   3.804413
    21  H    3.821028   3.245244   2.066499   1.095893   2.148568
    22  H    3.413794   3.798147   3.368937   2.145395   1.088950
    23  H    4.013177   4.947398   4.984372   3.996378   2.656396
    24  H    4.340063   5.584819   5.993909   5.255092   3.880874
    25  H    5.411623   6.401855   6.456139   5.454811   4.172155
    26  H    4.473097   5.581182   5.928746   5.230190   4.005776
    27  H    4.184907   4.966754   4.922670   3.975923   2.852223
                   11         12         13         14         15
    11  C    0.000000
    12  O    1.329135   0.000000
    13  C    2.396040   1.416485   0.000000
    14  C    3.135411   2.437761   1.517816   0.000000
    15  H    6.593364   6.720086   8.031844   8.500149   0.000000
    16  H    5.806374   6.260993   7.624085   8.012682   1.783116
    17  H    5.228333   5.338161   6.597630   6.890224   1.780766
    18  H    4.953870   4.883672   6.181019   6.988281   2.517693
    19  H    5.592156   5.903167   7.290952   8.125999   2.504476
    20  H    3.397650   4.495058   5.772046   6.345658   5.184056
    21  H    3.398367   4.555327   4.924050   5.187398   8.969774
    22  H    2.182132   2.732130   2.603771   2.947435   8.733538
    23  H    2.645664   2.077518   1.103500   2.183989   8.784347
    24  H    3.223928   1.996172   1.098086   2.160211   8.147366
    25  H    4.124308   3.375752   2.156916   1.099842   9.529456
    26  H    3.487333   2.679911   2.157350   1.099029   7.941572
    27  H    2.988611   2.772463   2.182026   1.099630   8.618204
                   16         17         18         19         20
    16  H    0.000000
    17  H    1.789395   0.000000
    18  H    3.083571   2.495784   0.000000
    19  H    2.527325   3.083318   1.788755   0.000000
    20  H    3.779348   4.355018   4.424199   3.897645   0.000000
    21  H    7.666079   7.704246   7.732817   7.734829   4.125393
    22  H    7.814375   7.304490   7.124948   7.681327   4.890840
    23  H    8.273893   7.411576   6.835265   7.787067   5.975504
    24  H    7.975594   6.809967   6.165265   7.450901   6.476459
    25  H    9.097240   7.927807   7.964887   9.157320   7.396692
    26  H    7.578475   6.295334   6.610911   7.869809   6.440116
    27  H    7.911944   6.958953   7.275729   8.225690   5.960302
                   21         22         23         24         25
    21  H    0.000000
[...]
 Alpha virt. eigenvalues --    6.06563   6.08159   6.10980   6.15867   6.22755
 Alpha virt. eigenvalues --    6.33053   6.38434   6.46150   6.48740   6.53544
 Alpha virt. eigenvalues --    6.66597   6.70008   6.73635   6.76016   6.83561
 Alpha virt. eigenvalues --    6.90006   6.93383   7.02323   7.04068   7.06610
 Alpha virt. eigenvalues --    7.16308   7.24626   7.30615   7.43481   7.53086
 Alpha virt. eigenvalues --    7.55377  22.40407  22.41403  22.54939  22.57180
 Alpha virt. eigenvalues --   22.60337  22.82340  22.94787  23.00145  23.35607
 Alpha virt. eigenvalues --   23.63136  32.54129  44.06153  44.31994  44.47314
          Condensed to atoms (all electrons):
               1          2          3          4          5          6
     1  C    4.956470   0.322147  -0.038687   0.003518  -0.013939  -0.000816
     2  C    0.322147   4.796987   0.213737  -0.039275   0.009670   0.009121
     3  O   -0.038687   0.213737   7.994588   0.372698  -0.085124  -0.145838
     4  C    0.003518  -0.039275   0.372698   4.513822   0.635186   0.256855
     5  O   -0.013939   0.009670  -0.085124   0.635186   7.878775  -0.085884
     6  C   -0.000816   0.009121  -0.145838   0.256855  -0.085884   5.606688
     7  C   -0.000007  -0.002303   0.023466  -0.046952   0.002845   0.430561
     8  N   -0.000016   0.000014   0.000142   0.005954  -0.000234  -0.041729
     9  C    0.000005  -0.000038   0.000273  -0.002372   0.000354  -0.021640
    10  C   -0.000008   0.000087  -0.000849   0.009325  -0.002507  -0.070375
    11  C   -0.000126  -0.001808  -0.004282  -0.080207   0.006061   0.247823
    12  O   -0.000004   0.000139  -0.000270   0.022388  -0.013604  -0.131094
    13  C    0.000001  -0.000023   0.000012  -0.000215   0.002080  -0.003191
    14  C    0.000000  -0.000001  -0.000006  -0.000319  -0.000780   0.002748
    15  H    0.398469  -0.033905   0.004359   0.000396   0.000180  -0.000043
    16  H    0.398251  -0.030126   0.002383  -0.003038   0.000479  -0.001114
    17  H    0.417758  -0.039583  -0.003531   0.004713   0.006342   0.002965
    18  H   -0.042639   0.422531  -0.030258  -0.016534   0.011359  -0.002164
    19  H   -0.031569   0.394383  -0.032148   0.004581   0.001493   0.002839
    20  H   -0.000375  -0.001201   0.014034  -0.010440   0.000117  -0.069599
    21  H    0.000000   0.000000  -0.000001   0.000137  -0.000001   0.002232
    22  H   -0.000000   0.000000   0.000003  -0.000023  -0.000046   0.014446
    23  H   -0.000000   0.000002   0.000000   0.000115  -0.000052  -0.004041
    24  H   -0.000000  -0.000001   0.000000  -0.000398   0.000097   0.002299
    25  H   -0.000000   0.000000   0.000000   0.000007   0.000006  -0.000010
    26  H   -0.000000   0.000001   0.000002   0.000178   0.000443  -0.001568
    27  H   -0.000000   0.000000   0.000001  -0.000024   0.000033   0.002252
               7          8          9         10         11         12
     1  C   -0.000007  -0.000016   0.000005  -0.000008  -0.000126  -0.000004
     2  C   -0.002303   0.000014  -0.000038   0.000087  -0.001808   0.000139
     3  O    0.023466   0.000142   0.000273  -0.000849  -0.004282  -0.000270
     4  C   -0.046952   0.005954  -0.002372   0.009325  -0.080207   0.022388
     5  O    0.002845  -0.000234   0.000354  -0.002507   0.006061  -0.013604
     6  C    0.430561  -0.041729  -0.021640  -0.070375   0.247823  -0.131094
     7  C    4.813147   0.516612  -0.100347  -0.028766   0.007271  -0.000604
     8  N    0.516612   6.439625   0.529801  -0.055702  -0.075305  -0.000216
     9  C   -0.100347   0.529801   4.730389   0.458861  -0.002615   0.001276
    10  C   -0.028766  -0.055702   0.458861   5.214905   0.417384  -0.074660
    11  C    0.007271  -0.075305  -0.002615   0.417384   4.964580   0.435222
    12  O   -0.000604  -0.000216   0.001276  -0.074660   0.435222   7.872259
    13  C   -0.000485  -0.000048  -0.002838   0.013501  -0.059608   0.231935
    14  C    0.000140  -0.000031   0.001872  -0.004860   0.007848  -0.044546
    15  H    0.000002   0.000000  -0.000000   0.000000   0.000014   0.000000
    16  H    0.000098   0.000006   0.000002  -0.000005   0.000044  -0.000000
    17  H   -0.000138   0.000002  -0.000002   0.000011  -0.000153   0.000002
    18  H    0.000688   0.000008   0.000000  -0.000016   0.000416  -0.000022
    19  H   -0.000502   0.000001  -0.000003   0.000004   0.000159   0.000003
    20  H    0.435637  -0.024228   0.004597  -0.000105   0.006779  -0.000092
    21  H    0.003136  -0.028441   0.435506  -0.070611  -0.000603  -0.000114
    22  H   -0.002954   0.007572  -0.009813   0.423848  -0.090599  -0.002505
    23  H    0.000023  -0.000041   0.000100   0.011591  -0.025842  -0.030665
    24  H    0.000070  -0.000003   0.000138  -0.001315   0.003961  -0.032896
    25  H   -0.000003   0.000002  -0.000047  -0.000631   0.000733   0.004534
    26  H   -0.000016   0.000003  -0.000064   0.000976  -0.002271   0.003286
    27  H    0.000022  -0.000031   0.001815  -0.001705   0.002287  -0.000286
              13         14         15         16         17         18
     1  C    0.000001   0.000000   0.398469   0.398251   0.417758  -0.042639
     2  C   -0.000023  -0.000001  -0.033905  -0.030126  -0.039583   0.422531
     3  O    0.000012  -0.000006   0.004359   0.002383  -0.003531  -0.030258
     4  C   -0.000215  -0.000319   0.000396  -0.003038   0.004713  -0.016534
     5  O    0.002080  -0.000780   0.000180   0.000479   0.006342   0.011359
     6  C   -0.003191   0.002748  -0.000043  -0.001114   0.002965  -0.002164
     7  C   -0.000485   0.000140   0.000002   0.000098  -0.000138   0.000688
     8  N   -0.000048  -0.000031   0.000000   0.000006   0.000002   0.000008
     9  C   -0.002838   0.001872  -0.000000   0.000002  -0.000002   0.000000
    10  C    0.013501  -0.004860   0.000000  -0.000005   0.000011  -0.000016
    11  C   -0.059608   0.007848   0.000014   0.000044  -0.000153   0.000416
    12  O    0.231935  -0.044546   0.000000  -0.000000   0.000002  -0.000022
    13  C    4.836400   0.306255   0.000000  -0.000000   0.000000   0.000002
    14  C    0.306255   4.978399  -0.000000   0.000000  -0.000000   0.000001
    15  H    0.000000  -0.000000   0.553511  -0.019348  -0.020698   0.000798
    16  H   -0.000000   0.000000  -0.019348   0.557852  -0.023570   0.006644
    17  H    0.000000  -0.000000  -0.020698  -0.023570   0.510908  -0.005533
    18  H    0.000002   0.000001   0.000798   0.006644  -0.005533   0.566108
    19  H    0.000000  -0.000000  -0.002310  -0.005474   0.004927  -0.030478
    20  H    0.000024  -0.000001   0.000022   0.000499  -0.000058   0.000347
    21  H   -0.000163   0.000053  -0.000000  -0.000000   0.000000  -0.000000
    22  H    0.005820  -0.005603  -0.000000  -0.000000   0.000000  -0.000000
    23  H    0.433002  -0.070876   0.000000   0.000000   0.000000  -0.000000
    24  H    0.400985  -0.019246   0.000000   0.000000  -0.000000   0.000001
    25  H   -0.031697   0.392269   0.000000   0.000000   0.000000  -0.000000
    26  H   -0.026130   0.396735  -0.000000  -0.000000   0.000000  -0.000001
    27  H   -0.043659   0.420910   0.000000  -0.000000   0.000000  -0.000000
              19         20         21         22         23         24
     1  C   -0.031569  -0.000375   0.000000  -0.000000  -0.000000  -0.000000
     2  C    0.394383  -0.001201   0.000000   0.000000   0.000002  -0.000001
     3  O   -0.032148   0.014034  -0.000001   0.000003   0.000000   0.000000
     4  C    0.004581  -0.010440   0.000137  -0.000023   0.000115  -0.000398
     5  O    0.001493   0.000117  -0.000001  -0.000046  -0.000052   0.000097
     6  C    0.002839  -0.069599   0.002232   0.014446  -0.004041   0.002299
     7  C   -0.000502   0.435637   0.003136  -0.002954   0.000023   0.000070
     8  N    0.000001  -0.024228  -0.028441   0.007572  -0.000041  -0.000003
     9  C   -0.000003   0.004597   0.435506  -0.009813   0.000100   0.000138
    10  C    0.000004  -0.000105  -0.070611   0.423848   0.011591  -0.001315
    11  C    0.000159   0.006779  -0.000603  -0.090599  -0.025842   0.003961
    12  O    0.000003  -0.000092  -0.000114  -0.002505  -0.030665  -0.032896
    13  C    0.000000   0.000024  -0.000163   0.005820   0.433002   0.400985
    14  C   -0.000000  -0.000001   0.000053  -0.005603  -0.070876  -0.019246
    15  H   -0.002310   0.000022  -0.000000  -0.000000   0.000000   0.000000
    16  H   -0.005474   0.000499  -0.000000  -0.000000   0.000000   0.000000
    17  H    0.004927  -0.000058   0.000000   0.000000   0.000000  -0.000000
    18  H   -0.030478   0.000347  -0.000000  -0.000000  -0.000000   0.000001
    19  H    0.578979  -0.000113   0.000000   0.000000  -0.000000  -0.000000
    20  H   -0.000113   0.496472  -0.000217   0.000054   0.000001  -0.000000
    21  H    0.000000  -0.000217   0.530191  -0.001074  -0.000024  -0.000001
    22  H    0.000000   0.000054  -0.001074   0.521860  -0.000324   0.000082
    23  H   -0.000000   0.000001  -0.000024  -0.000324   0.599990  -0.026443
    24  H   -0.000000  -0.000000  -0.000001   0.000082  -0.026443   0.543817
    25  H   -0.000000   0.000000   0.000001   0.000462   0.002244  -0.002916
    26  H   -0.000000  -0.000000  -0.000001   0.000271   0.006940  -0.005571
    27  H   -0.000000  -0.000002   0.000028  -0.002347  -0.004534   0.004477
              25         26         27
     1  C   -0.000000  -0.000000  -0.000000
     2  C    0.000000   0.000001   0.000000
     3  O    0.000000   0.000002   0.000001
     4  C    0.000007   0.000178  -0.000024
     5  O    0.000006   0.000443   0.000033
     6  C   -0.000010  -0.001568   0.002252
     7  C   -0.000003  -0.000016   0.000022
     8  N    0.000002   0.000003  -0.000031
     9  C   -0.000047  -0.000064   0.001815
    10  C   -0.000631   0.000976  -0.001705
    11  C    0.000733  -0.002271   0.002287
    12  O    0.004534   0.003286  -0.000286
    13  C   -0.031697  -0.026130  -0.043659
    14  C    0.392269   0.396735   0.420910
    15  H    0.000000  -0.000000   0.000000
    16  H    0.000000  -0.000000  -0.000000
    17  H    0.000000   0.000000   0.000000
    18  H   -0.000000  -0.000001  -0.000000
    19  H   -0.000000  -0.000000  -0.000000
    20  H    0.000000  -0.000000  -0.000002
    21  H    0.000001  -0.000001   0.000028
    22  H    0.000462   0.000271  -0.002347
    23  H    0.002244   0.006940  -0.004534
    24  H   -0.002916  -0.005571   0.004477
    25  H    0.550798  -0.016024  -0.022366
    26  H   -0.016024   0.527608  -0.022072
    27  H   -0.022366  -0.022072   0.533756
 Mulliken charges:
               1
     1  C   -0.368434
     2  C   -0.020554
     3  O   -0.284705
     4  C    0.369927
     5  O   -0.353353
     6  C   -0.001721
     7  C   -0.050641
     8  N   -0.273718
     9  C   -0.025210
    10  C   -0.238379
    11  C    0.242839
    12  O   -0.239463
    13  C   -0.061960
    14  C   -0.360961
    15  H    0.118552
    16  H    0.116418
    17  H    0.145637
    18  H    0.118742
    19  H    0.115229
    20  H    0.147848
    21  H    0.129969
    22  H    0.140871
    23  H    0.108837
    24  H    0.132865
    25  H    0.122641
    26  H    0.137278
    27  H    0.131448
 Sum of Mulliken charges =  -0.00000
 Mulliken charges with hydrogens summed into heavy atoms:
               1
     1  C    0.012173
     2  C    0.213416
     3  O   -0.284705
     4  C    0.369927
     5  O   -0.353353
     6  C   -0.001721
     7  C    0.097207
     8  N   -0.273718
     9  C    0.104759
    10  C   -0.097508
    11  C    0.242839
    12  O   -0.239463
    13  C    0.179742
    14  C    0.030405
 Electronic spatial extent (au):  <R**2>=           3316.7037
 Charge=             -0.0000 electrons
 Dipole moment (field-independent basis, Debye):
    X=              1.6550    Y=             -1.3232    Z=             -0.3646  Tot=              2.1501
 Quadrupole moment (field-independent basis, Debye-Ang):
   XX=            -60.1834   YY=            -91.2253   ZZ=            -83.1047
   XY=             -3.3815   XZ=             -0.2087   YZ=              0.2815
 Traceless Quadrupole moment (field-independent basis, Debye-Ang):
   XX=             17.9877   YY=            -13.0542   ZZ=             -4.9335
   XY=             -3.3815   XZ=             -0.2087   YZ=              0.2815
 Octapole moment (field-independent basis, Debye-Ang**2):
  XXX=            -11.3576  YYY=            -44.3190  ZZZ=             -4.7652  XYY=             12.2642
  XXY=            -12.9275  XXZ=             -6.8703  XZZ=             -5.7880  YZZ=             -8.8558
  YYZ=             -4.8845  XYZ=             -0.0734
 Hexadecapole moment (field-independent basis, Debye-Ang**3):
 XXXX=          -2648.9723 YYYY=          -1354.6741 ZZZZ=           -237.2929 XXXY=              7.0445
 XXXZ=             12.6241 YYYX=            -33.1997 YYYZ=             -3.2970 ZZZX=              3.5693
 ZZZY=              2.8919 XXYY=           -628.7561 XXZZ=           -534.5732 YYZZ=           -248.0742
 XXYZ=             12.5723 YYXZ=             -1.3972 ZZXY=             -7.3520
 N-N= 8.978054695324D+02 E-N=-3.358351532312D+03  KE= 6.660365558022D+02
 Breneman (CHELPG) radii used.
 Read replacement radii for each type of atom:
 Atom Element Radius
    1     6    1.50
    2     6    1.50
    3     8    1.70
    4     6    1.50
    5     8    1.70
    6     6    1.50
    7     6    1.50
    8     7    1.70
    9     6    1.50
   10     6    1.50
   11     6    1.50
   12     8    1.70
   13     6    1.50
   14     6    1.50
   15     1    1.45
   16     1    1.45
   17     1    1.45
   18     1    1.45
   19     1    1.45
   20     1    1.45
   21     1    1.45
   22     1    1.45
   23     1    1.45
   24     1    1.45
   25     1    1.45
   26     1    1.45
   27     1    1.45
 Generate Potential Derived Charges using the Breneman model, NDens= 1.
 Grid spacing= 0.300 Box extension= 2.800
 NStep X,Y,Z=   51     40     29   Total possible points=       59160
 Number of Points to Fit=   16984

 **********************************************************************

            Electrostatic Properties Using The SCF Density.

 **********************************************************************

       Atomic Center    1 is at  -4.176379 -0.640640  0.889820
       Atomic Center    2 is at  -3.597259 -0.465570 -0.500510
       Atomic Center    3 is at  -2.388919  0.293030 -0.479040
       Atomic Center    4 is at  -1.256259 -0.362170 -0.176940
       Atomic Center    5 is at  -1.214869 -1.546890  0.025360
       Atomic Center    6 is at  -0.097829  0.577440 -0.107880
       Atomic Center    7 is at  -0.311529  1.943730  0.105340
       Atomic Center    8 is at   0.649311  2.853180  0.232520
       Atomic Center    9 is at   1.901181  2.413300  0.138260
       Atomic Center   10 is at   2.253821  1.086470 -0.082510
       Atomic Center   11 is at   1.238501  0.127520 -0.217880
       Atomic Center   12 is at   1.450501 -1.158930 -0.476150
       Atomic Center   13 is at   2.758840 -1.700360 -0.515250
       Atomic Center   14 is at   3.322650 -1.945721  0.872440
       Atomic Center   15 is at  -5.141469 -1.165090  0.829780
       Atomic Center   16 is at  -4.342559  0.334540  1.370480
       Atomic Center   17 is at  -3.500619 -1.237510  1.517890
       Atomic Center   18 is at  -3.400169 -1.441430 -0.967520
       Atomic Center   19 is at  -4.276099  0.107960 -1.145790
       Atomic Center   20 is at  -1.341489  2.301520  0.183870
       Atomic Center   21 is at   2.692191  3.164560  0.242630
       Atomic Center   22 is at   3.307171  0.818669 -0.149950
       Atomic Center   23 is at   3.422741 -1.060671 -1.121670
       Atomic Center   24 is at   2.644760 -2.650510 -1.053760
       Atomic Center   25 is at   4.302250 -2.440091  0.797370
       Atomic Center   26 is at   2.645900 -2.596210  1.444050
       Atomic Center   27 is at   3.454101 -1.009661  1.434310
   16984 points will be used for fitting atomic charges
 Fitting point charges to electrostatic potential
 Charges from ESP fit, RMS=   0.00298 RRMS=   0.20534:
 ESP charges:
               1
     1  C   -0.236633
     2  C    0.342882
     3  O   -0.463135
     4  C    0.758100
     5  O   -0.497361
     6  C   -0.505679
     7  C    0.428665
     8  N   -0.657447
     9  C    0.449821
    10  C   -0.559688
    11  C    0.662646
    12  O   -0.435799
    13  C    0.314292
    14  C   -0.206264
    15  H    0.053567
    16  H    0.071060
    17  H    0.066344
    18  H   -0.013420
    19  H    0.004786
    20  H    0.042404
    21  H    0.020963
    22  H    0.188689
    23  H   -0.032899
    24  H    0.033671
    25  H    0.052169
    26  H    0.075954
    27  H    0.042314
 Sum of ESP charges =   0.00000
 ESP charges with hydrogens summed into heavy atoms:
               1
     1  C   -0.045662
     2  C    0.334247
     3  O   -0.463135
     4  C    0.758100
     5  O   -0.497361
     6  C   -0.505679
     7  C    0.471069
     8  N   -0.657447
     9  C    0.470784
    10  C   -0.370999
    11  C    0.662646
    12  O   -0.435799
    13  C    0.315064
    14  C   -0.035827
 Charge=   0.00000 Dipole=     1.6653    -1.2183    -0.3967 Tot=     2.1011
 -----------------------------------------------------------------

              Electrostatic Properties (Atomic Units)

 -----------------------------------------------------------------
    Center     Electric         -------- Electric Field --------
               Potential          X             Y             Z
 -----------------------------------------------------------------
    1 Atom    -14.774059
    2 Atom    -14.712061
    3 Atom    -22.319031
    4 Atom    -14.642409
    5 Atom    -22.387257
    6 Atom    -14.748680
    7 Atom    -14.730028
    8 Atom    -18.404041
    9 Atom    -14.727449
   10 Atom    -14.757250
   11 Atom    -14.675516
   12 Atom    -22.311250
   13 Atom    -14.697313
   14 Atom    -14.762273
   15 Atom     -1.111859
   16 Atom     -1.118100
   17 Atom     -1.120486
   18 Atom     -1.115407
   19 Atom     -1.112543
   20 Atom     -1.105444
   21 Atom     -1.100062
   22 Atom     -1.080700
   23 Atom     -1.097878
   24 Atom     -1.102433
   25 Atom     -1.100309
   26 Atom     -1.108392
   27 Atom     -1.105645
 -----------------------------------------------------------------
 Unable to Open any file for archive entry.
 1\1\GINC-NOTCH281\SP\RwB97XD\def2TZVP\C10H13N1O3\U6053008\14-Jul-2024\
 0\\#N Guess=Read Geom=Check Integral(Ultrafine) Density Pop=(ChelpG,Re
 adRadii) NMR wB97XD def2TZVP\\12326824_5\\0,1\C,0,-4.17638,-0.64064,0.
 88982\C,0,-3.59726,-0.46557,-0.50051\O,0,-2.38892,0.29303,-0.47904\C,0
 ,-1.25626,-0.36217,-0.17694\O,0,-1.21487,-1.54689,0.02536\C,0,-0.09783
 ,0.57744,-0.10788\C,0,-0.31153,1.94373,0.10534\N,0,0.64931,2.85318,0.2
 3252\C,0,1.90118,2.4133,0.13826\C,0,2.25382,1.08647,-0.08251\C,0,1.238
 5,0.12752,-0.21788\O,0,1.4505,-1.15893,-0.47615\C,0,2.75884,-1.70036,-
 0.51525\C,0,3.32265,-1.94572,0.87244\H,0,-5.14147,-1.16509,0.82978\H,0
 ,-4.34256,0.33454,1.37048\H,0,-3.50062,-1.23751,1.51789\H,0,-3.40017,-
 1.44143,-0.96752\H,0,-4.2761,0.10796,-1.14579\H,0,-1.34149,2.30152,0.1
 8387\H,0,2.69219,3.16456,0.24263\H,0,3.30717,0.81867,-0.14995\H,0,3.42
 274,-1.06067,-1.12167\H,0,2.64476,-2.65051,-1.05376\H,0,4.30225,-2.440
 09,0.79737\H,0,2.6459,-2.59621,1.44405\H,0,3.4541,-1.00966,1.43431\\Ve
 rsion=ES64L-G16RevC.01\State=1-A\HF=-669.3530423\RMSD=1.612e-09\Dipole
 =0.6511318,-0.5205751,-0.1434405\Quadrupole=13.3734487,-9.7054758,-3.6
 679729,-2.514096,-0.1551399,0.2092893\PG=C01 [X(C10H13N1O3)]\\@
 The archive entry for this job was punched.


 ALL MEN WHO EXPLORE
 DEPLORE
 THAT FRUSTRATING HURDLE
 THE GIRDLE.

         -- COLIN FLETCHER
 Job cpu time:       0 days  0 hours 55 minutes 51.7 seconds.
 Elapsed time:       0 days  0 hours  3 minutes 40.9 seconds.
 File lengths (MBytes):  RWF=    165 Int=      0 D2E=      0 Chk=     25 Scr=      2
 Normal termination of Gaussian 16 at Sun Jul 14 10:11:54 2024.
