 Entering Gaussian System, Link 0=g16
 Input=12326824_14.com
 Output=12326824_14.log
 Initial command:
 /uufs/chpc.utah.edu/sys/installdir/gaussian16/C01/AVX/g16/l1.exe "/scratch/general/vast/u6053008/1319792-notchpeak.peaks/Gau-2625185.inp" -scrdir="/scratch/general/vast/u6053008/1319792-notchpeak.peaks/"
 Entering Link 1 = /uufs/chpc.utah.edu/sys/installdir/gaussian16/C01/AVX/g16/l1.exe PID=   2625186.
  
 Copyright (c) 1988-2019, Gaussian, Inc.  All Rights Reserved.
  
 This is part of the Gaussian(R) 16 program.  It is based on
 the Gaussian(R) 09 system (copyright 2009, Gaussian, Inc.),
 the Gaussian(R) 03 system (copyright 2003, Gaussian, Inc.),
 the Gaussian(R) 98 system (copyright 1998, Gaussian, Inc.),
 the Gaussian(R) 94 system (copyright 1995, Gaussian, Inc.),
 the Gaussian 92(TM) system (copyright 1992, Gaussian, Inc.),
 the Gaussian 90(TM) system (copyright 1990, Gaussian, Inc.),
 the Gaussian 88(TM) system (copyright 1988, Gaussian, Inc.),
 the Gaussian 86(TM) system (copyright 1986, Carnegie Mellon
 University), and the Gaussian 82(TM) system (copyright 1983,
 Carnegie Mellon University). Gaussian is a federally registered
 trademark of Gaussian, Inc.
  
 This software contains proprietary and confidential information,
 including trade secrets, belonging to Gaussian, Inc.
  
 This software is provided under written license and may be
 used, copied, transmitted, or stored only in accord with that
 written license.
  
 The following legend is applicable only to US Government
 contracts under FAR:
  
                    RESTRICTED RIGHTS LEGEND
  
 Use, reproduction and disclosure by the US Government is
 subject to restrictions as set forth in subparagraphs (a)
 and (c) of the Commercial Computer Software - Restricted
 Rights clause in FAR 52.227-19.
  
 Gaussian, Inc.
 340 Quinnipiac St., Bldg. 40, Wallingford CT 06492
  
  
 ---------------------------------------------------------------
 Warning -- This program may not be used in any manner that
 competes with the business of Gaussian, Inc. or will provide
 assistance to any competitor of Gaussian, Inc.  The licensee
 of this program is prohibited from giving any competitor of
 Gaussian, Inc. access to this program.  By using this program,
 the user acknowledges that Gaussian, Inc. is engaged in the
 business of creating and licensing software in the field of
 computational chemistry and represents and warrants to the
 licensee that it is not a competitor of Gaussian, Inc. and that
 it will not use this program in any manner prohibited above.
 ---------------------------------------------------------------
  

 Cite this work as:
 Gaussian 16, Revision C.01,
 M. J. Frisch, G. W. Trucks, H. B. Schlegel, G. E. Scuseria, 
 M. A. Robb, J. R. Cheeseman, G. Scalmani, V. Barone, 
 G. A. Petersson, H. Nakatsuji, X. Li, M. Caricato, A. V. Marenich, 
 J. Bloino, B. G. Janesko, R. Gomperts, B. Mennucci, H. P. Hratchian, 
 J. V. Ortiz, A. F. Izmaylov, J. L. Sonnenberg, D. Williams-Young, 
 F. Ding, F. Lipparini, F. Egidi, J. Goings, B. Peng, A. Petrone, 
 T. Henderson, D. Ranasinghe, V. G. Zakrzewski, J. Gao, N. Rega, 
 G. Zheng, W. Liang, M. Hada, M. Ehara, K. Toyota, R. Fukuda, 
 J. Hasegawa, M. Ishida, T. Nakajima, Y. Honda, O. Kitao, H. Nakai, 
 T. Vreven, K. Throssell, J. A. Montgomery, Jr., J. E. Peralta, 
 F. Ogliaro, M. J. Bearpark, J. J. Heyd, E. N. Brothers, K. N. Kudin, 
 V. N. Staroverov, T. A. Keith, R. Kobayashi, J. Normand, 
 K. Raghavachari, A. P. Rendell, J. C. Burant, S. S. Iyengar, 
 J. Tomasi, M. Cossi, J. M. Millam, M. Klene, C. Adamo, R. Cammi, 
 J. W. Ochterski, R. L. Martin, K. Morokuma, O. Farkas, 
 J. B. Foresman, and D. J. Fox, Gaussian, Inc., Wallingford CT, 2019.
 
 ******************************************
 Gaussian 16:  ES64L-G16RevC.01  3-Jul-2019
                14-Jul-2024 
 ******************************************
 %NProcShared=16
 Will use up to   16 processors via shared memory.
 %Mem=32GB
 %chk=12326824_14.chk
 ------------------------------------------------------
 #N OPT FREQ=NORAMAN Integral(Ultrafine) wB97XD def2SVP
 ------------------------------------------------------
 1/18=20,19=15,26=4,38=1/1,3;
 2/9=110,12=2,17=6,18=5,40=1/2;
 3/5=43,7=101,11=2,25=1,30=1,71=1,74=-58,75=-5/1,2,3;
 4//1;
 5/5=2,38=5/2;
 6/7=2,8=2,9=2,10=2,28=1/1;
 7//1,2,3,16;
 1/18=20,19=15,26=4/3(2);
 2/9=110/2;
 99//99;
 2/9=110/2;
 3/5=43,7=101,11=2,25=1,30=1,71=1,74=-58,75=-5/1,2,3;
 4/5=5,16=3,69=1/1;
 5/5=2,38=5/2;
 7//1,2,3,16;
 1/18=20,19=15,26=4/3(-5);
 2/9=110/2;
 6/7=2,8=2,9=2,10=2,19=2,28=1/1;
 99/9=1/99;
 -----------
 12326824_14
 -----------
 Symbolic Z-matrix:
 Charge =  0 Multiplicity = 1
 C                     3.75272  -0.15812  -0.57069 
 C                     3.0033   -1.29552   0.09422 
 O                     1.60647  -1.24373  -0.2051 
 C                     0.84524  -0.44169   0.54693 
 O                     1.28587   0.23701   1.44261 
 C                    -0.59151  -0.53531   0.17021 
 C                    -1.0905   -1.80053  -0.19525 
 N                    -2.36253  -2.08719  -0.41215 
 C                    -3.23359  -1.08199  -0.27651 
 C                    -2.86844   0.21304   0.04349 
 C                    -1.51595   0.52836   0.25922 
 O                    -1.27774   1.81579   0.51637 
 C                    -0.07007   2.50837   0.20774 
 C                     0.38054   2.32529  -1.23004 
 H                     3.42544   0.80978  -0.16593 
 H                     3.58827  -0.16504  -1.65806 
 H                     4.83166  -0.2604   -0.38345 
 H                     3.33546  -2.26986  -0.28773 
 H                     3.13955  -1.27219   1.18499 
 H                    -0.37662  -2.62424  -0.29163 
 H                    -4.288    -1.3218   -0.45093 
 H                    -3.60469   1.01446   0.11238 
 H                     0.71638   2.22301   0.91793 
 H                    -0.32953   3.56045   0.38619 
 H                     0.70258   1.29691  -1.44962 
 H                     1.23628   2.98796  -1.42564 
 H                    -0.42622   2.58729  -1.93043 
 

 GradGradGradGradGradGradGradGradGradGradGradGradGradGradGradGradGradGrad
 Berny optimization.
 Initialization pass.
                           ----------------------------
                           !    Initial Parameters    !
                           ! (Angstroms and Degrees)  !
 --------------------------                            --------------------------
 ! Name  Definition              Value          Derivative Info.                !
 --------------------------------------------------------------------------------
 ! R1    R(1,2)                  1.5157         estimate D2E/DX2                !
 ! R2    R(1,15)                 1.099          estimate D2E/DX2                !
 ! R3    R(1,16)                 1.0998         estimate D2E/DX2                !
 ! R4    R(1,17)                 1.0998         estimate D2E/DX2                !
 ! R5    R(2,3)                  1.4295         estimate D2E/DX2                !
 ! R6    R(2,18)                 1.098          estimate D2E/DX2                !
 ! R7    R(2,19)                 1.0995         estimate D2E/DX2                !
 ! R8    R(3,4)                  1.3373         estimate D2E/DX2                !
 ! R9    R(4,5)                  1.2071         estimate D2E/DX2                !
 ! R10   R(4,6)                  1.4883         estimate D2E/DX2                !
 ! R11   R(6,7)                  1.4083         estimate D2E/DX2                !
 ! R12   R(6,11)                 1.4121         estimate D2E/DX2                !
 ! R13   R(7,8)                  1.3218         estimate D2E/DX2                !
 ! R14   R(7,20)                 1.0943         estimate D2E/DX2                !
 ! R15   R(8,9)                  1.337          estimate D2E/DX2                !
 ! R16   R(9,10)                 1.3831         estimate D2E/DX2                !
 ! R17   R(9,21)                 1.0953         estimate D2E/DX2                !
 ! R18   R(10,11)                1.4054         estimate D2E/DX2                !
 ! R19   R(10,22)                1.0905         estimate D2E/DX2                !
 ! R20   R(11,12)                1.3343         estimate D2E/DX2                !
 ! R21   R(12,13)                1.426          estimate D2E/DX2                !
 ! R22   R(13,14)                1.5178         estimate D2E/DX2                !
 ! R23   R(13,23)                1.0974         estimate D2E/DX2                !
 ! R24   R(13,24)                1.0982         estimate D2E/DX2                !
 ! R25   R(14,25)                1.0998         estimate D2E/DX2                !
 ! R26   R(14,26)                1.0999         estimate D2E/DX2                !
 ! R27   R(14,27)                1.1            estimate D2E/DX2                !
 ! A1    A(2,1,15)             110.6149         estimate D2E/DX2                !
 ! A2    A(2,1,16)             110.7983         estimate D2E/DX2                !
 ! A3    A(2,1,17)             109.9118         estimate D2E/DX2                !
 ! A4    A(15,1,16)            108.9756         estimate D2E/DX2                !
 ! A5    A(15,1,17)            108.1404         estimate D2E/DX2                !
 ! A6    A(16,1,17)            108.3266         estimate D2E/DX2                !
 ! A7    A(1,2,3)              111.352          estimate D2E/DX2                !
 ! A8    A(1,2,18)             111.3292         estimate D2E/DX2                !
 ! A9    A(1,2,19)             110.9775         estimate D2E/DX2                !
 ! A10   A(3,2,18)             104.7689         estimate D2E/DX2                !
 ! A11   A(3,2,19)             109.1505         estimate D2E/DX2                !
 ! A12   A(18,2,19)            109.0533         estimate D2E/DX2                !
 ! A13   A(2,3,4)              117.4011         estimate D2E/DX2                !
 ! A14   A(3,4,5)              123.1421         estimate D2E/DX2                !
 ! A15   A(3,4,6)              111.6824         estimate D2E/DX2                !
 ! A16   A(5,4,6)              125.1417         estimate D2E/DX2                !
 ! A17   A(4,6,7)              117.662          estimate D2E/DX2                !
 ! A18   A(4,6,11)             124.6578         estimate D2E/DX2                !
 ! A19   A(7,6,11)             117.4604         estimate D2E/DX2                !
 ! A20   A(6,7,8)              125.3364         estimate D2E/DX2                !
 ! A21   A(6,7,20)             117.903          estimate D2E/DX2                !
 ! A22   A(8,7,20)             116.7501         estimate D2E/DX2                !
 ! A23   A(7,8,9)              116.5679         estimate D2E/DX2                !
 ! A24   A(8,9,10)             123.7415         estimate D2E/DX2                !
 ! A25   A(8,9,21)             116.5136         estimate D2E/DX2                !
 ! A26   A(10,9,21)            119.7363         estimate D2E/DX2                !
 ! A27   A(9,10,11)            119.9783         estimate D2E/DX2                !
 ! A28   A(9,10,22)            121.6364         estimate D2E/DX2                !
 ! A29   A(11,10,22)           118.37           estimate D2E/DX2                !
 ! A30   A(6,11,10)            116.8297         estimate D2E/DX2                !
 ! A31   A(6,11,12)            128.4688         estimate D2E/DX2                !
 ! A32   A(10,11,12)           114.7001         estimate D2E/DX2                !
 ! A33   A(11,12,13)           125.3182         estimate D2E/DX2                !
 ! A34   A(12,13,14)           113.445          estimate D2E/DX2                !
 ! A35   A(12,13,23)           109.9118         estimate D2E/DX2                !
 ! A36   A(12,13,24)           103.2991         estimate D2E/DX2                !
 ! A37   A(14,13,23)           111.648          estimate D2E/DX2                !
 ! A38   A(14,13,24)           109.8538         estimate D2E/DX2                !
 ! A39   A(23,13,24)           108.2563         estimate D2E/DX2                !
 ! A40   A(13,14,25)           112.8833         estimate D2E/DX2                !
 ! A41   A(13,14,26)           109.0732         estimate D2E/DX2                !
 ! A42   A(13,14,27)           110.8957         estimate D2E/DX2                !
 ! A43   A(25,14,26)           107.461          estimate D2E/DX2                !
 ! A44   A(25,14,27)           108.0803         estimate D2E/DX2                !
 ! A45   A(26,14,27)           108.2936         estimate D2E/DX2                !
 ! D1    D(15,1,2,3)            64.595          estimate D2E/DX2                !
 ! D2    D(15,1,2,18)         -178.8869         estimate D2E/DX2                !
 ! D3    D(15,1,2,19)          -57.216          estimate D2E/DX2                !
 ! D4    D(16,1,2,3)           -56.3697         estimate D2E/DX2                !
 ! D5    D(16,1,2,18)           60.1484         estimate D2E/DX2                !
 ! D6    D(16,1,2,19)         -178.1806         estimate D2E/DX2                !
 ! D7    D(17,1,2,3)          -176.0607         estimate D2E/DX2                !
 ! D8    D(17,1,2,18)          -59.5426         estimate D2E/DX2                !
 ! D9    D(17,1,2,19)           62.1284         estimate D2E/DX2                !
 ! D10   D(1,2,3,4)            -83.7877         estimate D2E/DX2                !
 ! D11   D(18,2,3,4)           155.7523         estimate D2E/DX2                !
 ! D12   D(19,2,3,4)            39.0773         estimate D2E/DX2                !
 ! D13   D(2,3,4,5)              0.7482         estimate D2E/DX2                !
 ! D14   D(2,3,4,6)           -177.2317         estimate D2E/DX2                !
 ! D15   D(3,4,6,7)             37.3131         estimate D2E/DX2                !
 ! D16   D(3,4,6,11)          -148.2246         estimate D2E/DX2                !
 ! D17   D(5,4,6,7)           -140.6184         estimate D2E/DX2                !
 ! D18   D(5,4,6,11)            33.8438         estimate D2E/DX2                !
 ! D19   D(4,6,7,8)            172.0965         estimate D2E/DX2                !
 ! D20   D(4,6,7,20)            -6.6812         estimate D2E/DX2                !
 ! D21   D(11,6,7,8)            -2.771          estimate D2E/DX2                !
 ! D22   D(11,6,7,20)          178.4512         estimate D2E/DX2                !
 ! D23   D(4,6,11,10)         -171.1786         estimate D2E/DX2                !
 ! D24   D(4,6,11,12)            9.2804         estimate D2E/DX2                !
 ! D25   D(7,6,11,10)            3.2938         estimate D2E/DX2                !
 ! D26   D(7,6,11,12)         -176.2472         estimate D2E/DX2                !
 ! D27   D(6,7,8,9)              0.3728         estimate D2E/DX2                !
 ! D28   D(20,7,8,9)           179.1632         estimate D2E/DX2                !
 ! D29   D(7,8,9,10)             1.4014         estimate D2E/DX2                !
 ! D30   D(7,8,9,21)          -179.667          estimate D2E/DX2                !
 ! D31   D(8,9,10,11)           -0.6598         estimate D2E/DX2                !
 ! D32   D(8,9,10,22)          177.889          estimate D2E/DX2                !
 ! D33   D(21,9,10,11)        -179.5587         estimate D2E/DX2                !
 ! D34   D(21,9,10,22)          -1.01           estimate D2E/DX2                !
 ! D35   D(9,10,11,6)           -1.7806         estimate D2E/DX2                !
 ! D36   D(9,10,11,12)         177.8239         estimate D2E/DX2                !
 ! D37   D(22,10,11,6)         179.6237         estimate D2E/DX2                !
 ! D38   D(22,10,11,12)         -0.7719         estimate D2E/DX2                !
 ! D39   D(6,11,12,13)          28.4161         estimate D2E/DX2                !
 ! D40   D(10,11,12,13)       -151.1331         estimate D2E/DX2                !
 ! D41   D(11,12,13,14)         50.5203         estimate D2E/DX2                !
 ! D42   D(11,12,13,23)        -75.2653         estimate D2E/DX2                !
 ! D43   D(11,12,13,24)        169.3947         estimate D2E/DX2                !
 ! D44   D(12,13,14,25)        -67.9243         estimate D2E/DX2                !
 ! D45   D(12,13,14,26)        172.6995         estimate D2E/DX2                !
 ! D46   D(12,13,14,27)         53.523          estimate D2E/DX2                !
 ! D47   D(23,13,14,25)         56.9314         estimate D2E/DX2                !
 ! D48   D(23,13,14,26)        -62.4447         estimate D2E/DX2                !
 ! D49   D(23,13,14,27)        178.3787         estimate D2E/DX2                !
 ! D50   D(24,13,14,25)        177.0407         estimate D2E/DX2                !
 ! D51   D(24,13,14,26)         57.6646         estimate D2E/DX2                !
 ! D52   D(24,13,14,27)        -61.512          estimate D2E/DX2                !
 --------------------------------------------------------------------------------
 Trust Radius=3.00D-01 FncErr=1.00D-07 GrdErr=1.00D-06 EigMax=2.50D+02 EigMin=1.00D-04
 Number of steps in this run=    134 maximum allowed number of steps=    162.
 GradGradGradGradGradGradGradGradGradGradGradGradGradGradGradGradGradGrad

                          Input orientation:                          
 ---------------------------------------------------------------------
 Center     Atomic      Atomic             Coordinates (Angstroms)
 Number     Number       Type             X           Y           Z
 ---------------------------------------------------------------------
      1          6           0        3.752720   -0.158120   -0.570690
      2          6           0        3.003300   -1.295520    0.094220
      3          8           0        1.606470   -1.243730   -0.205100
      4          6           0        0.845240   -0.441690    0.546930
      5          8           0        1.285870    0.237010    1.442610
      6          6           0       -0.591510   -0.535310    0.170210
      7          6           0       -1.090500   -1.800530   -0.195250
      8          7           0       -2.362530   -2.087190   -0.412150
      9          6           0       -3.233590   -1.081990   -0.276510
     10          6           0       -2.868440    0.213040    0.043490
     11          6           0       -1.515950    0.528360    0.259220
     12          8           0       -1.277740    1.815790    0.516370
     13          6           0       -0.070070    2.508370    0.207740
     14          6           0        0.380540    2.325290   -1.230040
     15          1           0        3.425440    0.809780   -0.165930
     16          1           0        3.588270   -0.165040   -1.658060
     17          1           0        4.831660   -0.260400   -0.383450
     18          1           0        3.335460   -2.269860   -0.287730
     19          1           0        3.139550   -1.272190    1.184990
     20          1           0       -0.376620   -2.624240   -0.291630
     21          1           0       -4.288000   -1.321800   -0.450930
     22          1           0       -3.604690    1.014460    0.112380
     23          1           0        0.716380    2.223010    0.917930
     24          1           0       -0.329530    3.560450    0.386190
     25          1           0        0.702580    1.296910   -1.449620
     26          1           0        1.236280    2.987960   -1.425640
     27          1           0       -0.426220    2.587290   -1.930430
 ---------------------------------------------------------------------
                    Distance matrix (angstroms):
                    1          2          3          4          5
     1  C    0.000000
     2  C    1.515722   0.000000
     3  O    2.432816   1.429478   0.000000
     4  C    3.127767   2.364571   1.337269   0.000000
     5  O    3.208559   2.667652   2.238375   1.207075   0.000000
     6  C    4.423069   3.675099   2.339622   1.488265   2.395837
     7  C    5.127889   4.134976   2.753865   2.478783   3.532887
     8  N    6.414260   5.447503   4.062912   3.730589   4.706683
     9  C    7.053269   6.251546   4.843288   4.210094   5.012051
    10  C    6.659935   6.062644   4.712621   3.804411   4.383652
    11  C    5.377629   4.876206   3.620138   2.568850   3.055404
    12  O    5.512127   5.309027   4.266128   3.099063   3.150010
    13  C    4.725447   4.891633   4.130312   3.107362   2.919341
    14  C    4.239536   4.662918   3.910410   3.321106   3.510498
    15  H    1.098987   2.162907   2.743554   2.954958   2.737376
    16  H    1.099757   2.165793   2.683691   3.530259   3.882891
    17  H    1.099833   2.154656   3.376477   4.097562   4.019271
    18  H    2.171087   1.097977   2.012257   3.200009   3.671416
    19  H    2.167843   1.099494   2.069660   2.522045   2.404201
    20  H    4.817787   3.652155   2.417838   2.638115   3.736069
    21  H    8.125372   7.311698   5.900110   5.302874   6.089615
    22  H    7.481511   7.000134   5.688269   4.702242   5.127525
    23  H    4.135835   4.276512   3.751232   2.693487   2.131620
    24  H    5.604297   5.896901   5.213239   4.174092   3.843279
    25  H    3.491845   3.794397   2.969966   2.651282   3.135061
    26  H    4.118401   4.876529   4.419724   3.975732   3.974549
    27  H    5.181670   5.562106   4.667473   4.114443   4.453366
                    6          7          8          9         10
     6  C    0.000000
     7  C    1.408309   0.000000
     8  N    2.425693   1.321847   0.000000
     9  C    2.734777   2.261800   1.337001   0.000000
    10  C    2.400103   2.696763   2.398877   1.383054   0.000000
    11  C    1.412057   2.410660   2.829936   2.414647   1.405416
    12  O    2.473542   3.690424   4.155980   3.584848   2.307108
    13  C    3.088251   4.446380   5.172892   4.809682   3.623036
    14  C    3.329957   4.500793   5.259597   5.057738   4.079136
    15  H    4.249488   5.216157   6.477164   6.923417   6.325574
    16  H    4.577142   5.167739   6.376439   7.020488   6.687849
    17  H    5.458286   6.122042   7.422557   8.107694   7.726446
    18  H    4.317345   4.451735   5.702275   6.675596   6.690506
    19  H    3.936188   4.480796   5.786879   6.541336   6.293240
    20  H    2.150140   1.094263   2.060773   3.246697   3.790993
    21  H    3.829937   3.243233   2.072380   1.095313   2.148333
    22  H    3.388862   3.786813   3.382059   2.164267   1.090451
    23  H    3.142927   4.548940   5.461376   5.286963   4.201852
    24  H    4.109809   5.445847   6.055268   5.515885   4.215289
    25  H    2.766866   3.792455   4.682241   4.746450   4.019494
    26  H    4.277965   5.464193   6.303629   6.153432   5.167906
    27  H    3.767047   4.764985   5.282540   4.907178   3.936732
                   11         12         13         14         15
    11  C    0.000000
    12  O    1.334296   0.000000
    13  C    2.452276   1.425969   0.000000
    14  C    3.007246   2.461591   1.517820   0.000000
    15  H    4.967624   4.857725   3.904283   3.563778   0.000000
    16  H    5.496347   5.685938   4.900182   4.083439   1.789760
    17  H    6.428633   6.514983   5.660614   5.216798   1.780465
    18  H    5.627199   6.214558   5.888515   5.543907   3.083361
    19  H    5.076683   5.430941   5.054633   5.136766   2.498263
    20  H    3.397116   4.602037   5.165949   5.094286   5.124837
    21  H    3.407590   4.454414   5.735415   5.975244   8.007622
    22  H    2.149579   2.494000   3.838541   4.404818   7.038613
    23  H    2.879068   2.074510   1.097408   2.176471   3.242064
    24  H    3.258417   1.989947   1.098197   2.154535   4.687304
    25  H    2.903907   2.838313   2.193505   1.099768   3.049446
    26  H    4.057481   3.386101   2.145807   1.099855   3.335230
    27  H    3.197072   2.703170   2.169065   1.100024   4.594376
                   16         17         18         19         20
    16  H    0.000000
    17  H    1.783183   0.000000
    18  H    2.524279   2.507131   0.000000
    19  H    3.083839   2.519317   1.789589   0.000000
    20  H    4.861599   5.720345   3.728959   4.046220   0.000000
    21  H    8.051763   9.181466   7.683918   7.605734   4.125605
    22  H    7.500957   8.546527   7.688467   7.201669   4.880963
    23  H    4.537208   4.979603   5.338453   4.261396   5.114051
    24  H    5.779913   6.467544   6.919453   6.002250   6.221901
    25  H    3.241597   4.539960   4.583001   4.413646   4.228597
    26  H    3.940468   4.956285   5.774605   5.346654   5.948463
    27  H    4.875001   6.176390   6.359293   6.108694   5.463348
                   21         22         23         24         25
    21  H    0.000000
    22  H    2.498468   0.000000
    23  H    6.283572   4.558635   0.000000
    24  H    6.340869   4.157368   1.779163   0.000000
    25  H    5.723715   4.590446   2.542272   3.091773   0.000000
    26  H    7.074020   5.449330   2.519477   2.462160   1.773432
    27  H    5.690628   4.092620   3.090532   2.514581   1.780575
                   26         27
    26  H    0.000000
    27  H    1.783047   0.000000
 Stoichiometry    C10H13NO3
 Framework group  C1[X(C10H13NO3)]
 Deg. of freedom    75
 Full point group                 C1      NOp   1
 Largest Abelian subgroup         C1      NOp   1
 Largest concise Abelian subgroup C1      NOp   1
                         Standard orientation:                         
 ---------------------------------------------------------------------
 Center     Atomic      Atomic             Coordinates (Angstroms)
 Number     Number       Type             X           Y           Z
 ---------------------------------------------------------------------
      1          6           0       -3.752719   -0.158117    0.570690
      2          6           0       -3.003300   -1.295517   -0.094220
      3          8           0       -1.606470   -1.243728    0.205100
      4          6           0       -0.845239   -0.441689   -0.546930
      5          8           0       -1.285869    0.237011   -1.442610
      6          6           0        0.591510   -0.535310   -0.170210
      7          6           0        1.090499   -1.800530    0.195250
      8          7           0        2.362529   -2.087191    0.412150
      9          6           0        3.233590   -1.081992    0.276510
     10          6           0        2.868441    0.213038   -0.043490
     11          6           0        1.515951    0.528359   -0.259220
     12          8           0        1.277742    1.815789   -0.516370
     13          6           0        0.070073    2.508370   -0.207740
     14          6           0       -0.380537    2.325291    1.230040
     15          1           0       -3.425439    0.809783    0.165930
     16          1           0       -3.588269   -0.165037    1.658060
     17          1           0       -4.831659   -0.260396    0.383450
     18          1           0       -3.335461   -2.269857    0.287730
     19          1           0       -3.139550   -1.272187   -1.184990
     20          1           0        0.376619   -2.624240    0.291630
     21          1           0        4.288000   -1.321803    0.450930
     22          1           0        3.604692    1.014458   -0.112380
     23          1           0       -0.716377    2.223011   -0.917930
     24          1           0        0.329534    3.560450   -0.386190
     25          1           0       -0.702578    1.296911    1.449620
     26          1           0       -1.236277    2.987961    1.425640
     27          1           0        0.426223    2.587290    1.930430
 ---------------------------------------------------------------------
 Rotational constants (GHZ):           1.0147901           0.5516864           0.4047750
 Standard basis: def2SVP (5D, 7F)
 There are   275 symmetry adapted cartesian basis functions of A   symmetry.
 There are   261 symmetry adapted basis functions of A   symmetry.
   261 basis functions,   441 primitive gaussians,   275 cartesian basis functions
    52 alpha electrons       52 beta electrons
       nuclear repulsion energy       922.4023822013 Hartrees.
 NAtoms=   27 NActive=   27 NUniq=   27 SFac= 1.00D+00 NAtFMM=   60 NAOKFM=F Big=F
 Integral buffers will be    131072 words long.
 Raffenetti 2 integral format.
 Two-electron integral symmetry is turned on.
 Nuclear repulsion after empirical dispersion term =      922.3850677394 Hartrees.
 One-electron integrals computed using PRISM.
   1 Symmetry operations used in ECPInt.
 ECPInt:  NShTT=    7626 NPrTT=   27482 LenC2=    7339 LenP2D=   19492.
 LDataN:  DoStor=T MaxTD1= 4 Len=   56
 NBasis=   261 RedAO= T EigKep=  5.25D-04  NBF=   261
 NBsUse=   261 1.00D-06 EigRej= -1.00D+00 NBFU=   261
 ExpMin= 1.22D-01 ExpMax= 2.27D+03 ExpMxC= 3.41D+02 IAcc=3 IRadAn=         5 AccDes= 0.00D+00
 Harris functional with IExCor= 4639 and IRadAn=       5 diagonalized for initial guess.
 HarFok:  IExCor= 4639 AccDes= 0.00D+00 IRadAn=         5 IDoV= 1 UseB2=F ITyADJ=14
 ICtDFT=  3500011 ScaDFX=  1.000000  1.000000  1.000000  1.000000
 FoFCou: FMM=F IPFlag=           0 FMFlag=      100000 FMFlg1=           0
         NFxFlg=           0 DoJE=T BraDBF=F KetDBF=T FulRan=T
         wScrn=  0.000000 ICntrl=       500 IOpCl=  0 I1Cent=   200000004 NGrid=           0
         NMat0=    1 NMatS0=      1 NMatT0=    0 NMatD0=    1 NMtDS0=    0 NMtDT0=    0
 Petite list used in FoFCou.
 Requested convergence on RMS density matrix=1.00D-08 within 128 cycles.
 Requested convergence on MAX density matrix=1.00D-06.
 Requested convergence on             energy=1.00D-06.
 No special actions if energy rises.
 Integral accuracy reduced to 1.0D-05 until final iterations.
 Initial convergence to 1.0D-05 achieved.  Increase integral accuracy.
 SCF Done:  E(RwB97XD) =  -668.615398382     A.U. after   16 cycles
            NFock= 16  Conv=0.56D-08     -V/T= 2.0098

 **********************************************************************

            Population analysis using the SCF Density.

 **********************************************************************

 Orbital symmetries:
       Occupied  (A) (A) (A) (A) (A) (A) (A) (A) (A) (A) (A) (A)
                 (A) (A) (A) (A) (A) (A) (A) (A) (A) (A) (A) (A)
                 (A) (A) (A) (A) (A) (A) (A) (A) (A) (A) (A) (A)
                 (A) (A) (A) (A) (A) (A) (A) (A) (A) (A) (A) (A)
                 (A) (A) (A) (A)
       Virtual   (A) (A) (A) (A) (A) (A) (A) (A) (A) (A) (A) (A)
                 (A) (A) (A) (A) (A) (A) (A) (A) (A) (A) (A) (A)
                 (A) (A) (A) (A) (A) (A) (A) (A) (A) (A) (A) (A)
                 (A) (A) (A) (A) (A) (A) (A) (A) (A) (A) (A) (A)
                 (A) (A) (A) (A) (A) (A) (A) (A) (A) (A) (A) (A)
                 (A) (A) (A) (A) (A) (A) (A) (A) (A) (A) (A) (A)
                 (A) (A) (A) (A) (A) (A) (A) (A) (A) (A) (A) (A)
                 (A) (A) (A) (A) (A) (A) (A) (A) (A) (A) (A) (A)
                 (A) (A) (A) (A) (A) (A) (A) (A) (A) (A) (A) (A)
                 (A) (A) (A) (A) (A) (A) (A) (A) (A) (A) (A) (A)
                 (A) (A) (A) (A) (A) (A) (A) (A) (A) (A) (A) (A)
                 (A) (A) (A) (A) (A) (A) (A) (A) (A) (A) (A) (A)
                 (A) (A) (A) (A) (A) (A) (A) (A) (A) (A) (A) (A)
                 (A) (A) (A) (A) (A) (A) (A) (A) (A) (A) (A) (A)
                 (A) (A) (A) (A) (A) (A) (A) (A) (A) (A) (A) (A)
                 (A) (A) (A) (A) (A) (A) (A) (A) (A) (A) (A) (A)
                 (A) (A) (A) (A) (A) (A) (A) (A) (A) (A) (A) (A)
                 (A) (A) (A) (A) (A)
 The electronic state is 1-A.
 Alpha  occ. eigenvalues --  -19.31074 -19.29834 -19.25338 -14.43595 -10.44106
 Alpha  occ. eigenvalues --  -10.39230 -10.36368 -10.35702 -10.34401 -10.34051
 Alpha  occ. eigenvalues --  -10.32263 -10.30695 -10.30532 -10.30457  -1.21398
 Alpha  occ. eigenvalues --   -1.17606  -1.11866  -1.04275  -0.91606  -0.89230
 Alpha  occ. eigenvalues --   -0.86013  -0.85275  -0.77827  -0.75778  -0.73591
 Alpha  occ. eigenvalues --   -0.69651  -0.65310  -0.63830  -0.61542  -0.60984
 Alpha  occ. eigenvalues --   -0.57846  -0.57134  -0.56677  -0.54969  -0.54784
 Alpha  occ. eigenvalues --   -0.53706  -0.52436  -0.50626  -0.49427  -0.48298
 Alpha  occ. eigenvalues --   -0.48072  -0.47355  -0.46613  -0.45548  -0.44042
 Alpha  occ. eigenvalues --   -0.43190  -0.40715  -0.38929  -0.37778  -0.34798
 Alpha  occ. eigenvalues --   -0.33898  -0.33028
 Alpha virt. eigenvalues --    0.02054   0.05023   0.10536   0.13014   0.15243
 Alpha virt. eigenvalues --    0.16057   0.17392   0.18415   0.18614   0.19726
 Alpha virt. eigenvalues --    0.20210   0.20765   0.21273   0.22022   0.22215
 Alpha virt. eigenvalues --    0.22561   0.23186   0.24339   0.26856   0.28761
 Alpha virt. eigenvalues --    0.29694   0.30588   0.31698   0.33940   0.35798
 Alpha virt. eigenvalues --    0.37940   0.39498   0.41071   0.43364   0.45865
 Alpha virt. eigenvalues --    0.46514   0.48149   0.49017   0.49694   0.50403
 Alpha virt. eigenvalues --    0.51128   0.51723   0.52501   0.55588   0.56452
 Alpha virt. eigenvalues --    0.57578   0.57846   0.60946   0.61241   0.62360
 Alpha virt. eigenvalues --    0.64265   0.64958   0.66548   0.67214   0.68086
 Alpha virt. eigenvalues --    0.69353   0.69664   0.71514   0.71772   0.72203
 Alpha virt. eigenvalues --    0.72982   0.73282   0.73744   0.74673   0.74913
 Alpha virt. eigenvalues --    0.75153   0.76129   0.76489   0.77208   0.77643
 Alpha virt. eigenvalues --    0.79162   0.79867   0.80080   0.81932   0.82948
 Alpha virt. eigenvalues --    0.84391   0.85363   0.85787   0.88286   0.91221
 Alpha virt. eigenvalues --    0.93278   0.95804   0.96757   0.99789   1.02371
 Alpha virt. eigenvalues --    1.03452   1.04913   1.09149   1.09543   1.12658
 Alpha virt. eigenvalues --    1.14561   1.15389   1.17458   1.19842   1.20531
 Alpha virt. eigenvalues --    1.23497   1.25468   1.26488   1.29807   1.30480
 Alpha virt. eigenvalues --    1.33384   1.35368   1.36444   1.37748   1.41545
 Alpha virt. eigenvalues --    1.43692   1.44052   1.45882   1.46308   1.48320
 Alpha virt. eigenvalues --    1.52992   1.55124   1.57354   1.60110   1.60782
 Alpha virt. eigenvalues --    1.62967   1.64572   1.65091   1.70992   1.73994
 Alpha virt. eigenvalues --    1.75438   1.77721   1.78345   1.81338   1.81961
 Alpha virt. eigenvalues --    1.82448   1.82883   1.83836   1.85656   1.85863
 Alpha virt. eigenvalues --    1.86598   1.86742   1.87550   1.88206   1.89065
 Alpha virt. eigenvalues --    1.90351   1.92109   1.92791   1.93036   1.94089
 Alpha virt. eigenvalues --    1.94450   1.95032   1.95785   1.96872   1.98474
 Alpha virt. eigenvalues --    2.00828   2.01724   2.03101   2.03777   2.05935
 Alpha virt. eigenvalues --    2.08164   2.11179   2.12286   2.14630   2.16430
 Alpha virt. eigenvalues --    2.19559   2.21793   2.22426   2.27107   2.27500
 Alpha virt. eigenvalues --    2.30110   2.32725   2.35299   2.36388   2.42100
 Alpha virt. eigenvalues --    2.43204   2.44773   2.45852   2.46124   2.47912
 Alpha virt. eigenvalues --    2.49001   2.51144   2.56349   2.58530   2.59068
 Alpha virt. eigenvalues --    2.60974   2.63642   2.64658   2.69772   2.70276
 Alpha virt. eigenvalues --    2.72940   2.73463   2.76169   2.77420   2.80159
 Alpha virt. eigenvalues --    2.82756   2.84713   2.87327   2.88089   2.90758
 Alpha virt. eigenvalues --    2.94186   2.95860   2.98390   2.99710   3.02738
 Alpha virt. eigenvalues --    3.03212   3.04568   3.06647   3.07246   3.09545
 Alpha virt. eigenvalues --    3.11012   3.13250   3.15242   3.15980   3.23129
 Alpha virt. eigenvalues --    3.30036   3.30889   3.40872   3.50780   3.54256
 Alpha virt. eigenvalues --    3.60206   3.69508   3.77101   3.80765
          Condensed to atoms (all electrons):
               1          2          3          4          5          6
     1  C    4.607464   0.445799  -0.037179  -0.007865  -0.008336  -0.002284
     2  C    0.445799   4.457080   0.252240  -0.033309   0.000744   0.008518
     3  O   -0.037179   0.252240   7.988185   0.383087  -0.082624  -0.144819
     4  C   -0.007865  -0.033309   0.383087   4.625336   0.689993   0.159544
     5  O   -0.008336   0.000744  -0.082624   0.689993   7.707495  -0.098081
     6  C   -0.002284   0.008518  -0.144819   0.159544  -0.098081   5.939618
     7  C    0.000115   0.000269   0.010342  -0.031317  -0.000303   0.372820
     8  N    0.000000   0.000006   0.000253   0.006075  -0.000012  -0.043211
     9  C   -0.000000   0.000002  -0.000035   0.001077  -0.000022  -0.052631
    10  C    0.000000   0.000004   0.000004   0.009746   0.000163  -0.064487
    11  C    0.000062   0.000032  -0.001515  -0.054902   0.005355   0.257908
    12  O   -0.000001   0.000003   0.000010  -0.003227  -0.001351  -0.082843
    13  C   -0.000206   0.000046  -0.000680   0.002180  -0.013955  -0.005683
    14  C   -0.000223  -0.000117  -0.001597   0.002309  -0.001175  -0.000384
    15  H    0.393214  -0.017420  -0.006356   0.005063   0.008463   0.000081
    16  H    0.388673  -0.019940   0.000838  -0.000424   0.000268  -0.000023
    17  H    0.383391  -0.015593   0.003508   0.000324  -0.000064   0.000046
    18  H   -0.025822   0.389730  -0.023961   0.005285   0.000389   0.000250
    19  H   -0.029499   0.391915  -0.027008  -0.007996   0.017190   0.002901
    20  H    0.000066  -0.000276   0.010440  -0.008458   0.000156  -0.069033
    21  H   -0.000000   0.000000   0.000000   0.000056  -0.000000   0.000563
    22  H    0.000000  -0.000000   0.000001  -0.000146   0.000001   0.019967
    23  H   -0.000031  -0.000014   0.000409  -0.004396   0.024036   0.002976
    24  H    0.000003  -0.000002  -0.000004   0.000052   0.000471  -0.000693
    25  H    0.001158  -0.001231   0.006080   0.001265  -0.001671  -0.000396
    26  H   -0.000059   0.000007   0.000036  -0.000210  -0.000033  -0.000100
    27  H    0.000004   0.000004   0.000014  -0.000280   0.000002   0.000835
               7          8          9         10         11         12
     1  C    0.000115   0.000000  -0.000000   0.000000   0.000062  -0.000001
     2  C    0.000269   0.000006   0.000002   0.000004   0.000032   0.000003
     3  O    0.010342   0.000253  -0.000035   0.000004  -0.001515   0.000010
     4  C   -0.031317   0.006075   0.001077   0.009746  -0.054902  -0.003227
     5  O   -0.000303  -0.000012  -0.000022   0.000163   0.005355  -0.001351
     6  C    0.372820  -0.043211  -0.052631  -0.064487   0.257908  -0.082843
     7  C    4.708650   0.556378  -0.072571  -0.045364  -0.001030   0.003076
     8  N    0.556378   6.283599   0.503444  -0.033327  -0.056664  -0.000056
     9  C   -0.072571   0.503444   4.729457   0.454416  -0.003342   0.003651
    10  C   -0.045364  -0.033327   0.454416   5.016917   0.478775  -0.077316
    11  C   -0.001030  -0.056664  -0.003342   0.478775   4.766328   0.438558
    12  O    0.003076  -0.000056   0.003651  -0.077316   0.438558   7.864551
    13  C    0.000271  -0.000001  -0.000215   0.003618  -0.048592   0.281049
    14  C   -0.000374   0.000001   0.000021   0.000744  -0.001965  -0.050444
    15  H   -0.000040   0.000000   0.000000  -0.000000   0.000077  -0.000002
    16  H    0.000023   0.000000  -0.000000  -0.000000  -0.000031   0.000000
    17  H   -0.000002  -0.000000   0.000000   0.000000  -0.000002   0.000000
    18  H   -0.000267  -0.000003   0.000000  -0.000000   0.000022  -0.000000
    19  H   -0.000073   0.000001  -0.000000  -0.000001  -0.000139   0.000001
    20  H    0.430748  -0.032468   0.004915   0.000848   0.004931  -0.000059
    21  H    0.005035  -0.039017   0.421403  -0.063257   0.006804  -0.000092
    22  H   -0.000519   0.005371  -0.045061   0.407714  -0.050694   0.002711
    23  H   -0.000269   0.000002   0.000046  -0.000518  -0.005094  -0.026345
    24  H    0.000049  -0.000000  -0.000002   0.000009   0.003831  -0.026023
    25  H   -0.000126  -0.000039  -0.000020  -0.000225   0.001523  -0.002057
    26  H    0.000016   0.000000  -0.000001  -0.000009   0.000122   0.003556
    27  H   -0.000099   0.000003   0.000050  -0.000986   0.001274   0.001347
              13         14         15         16         17         18
     1  C   -0.000206  -0.000223   0.393214   0.388673   0.383391  -0.025822
     2  C    0.000046  -0.000117  -0.017420  -0.019940  -0.015593   0.389730
     3  O   -0.000680  -0.001597  -0.006356   0.000838   0.003508  -0.023961
     4  C    0.002180   0.002309   0.005063  -0.000424   0.000324   0.005285
     5  O   -0.013955  -0.001175   0.008463   0.000268  -0.000064   0.000389
     6  C   -0.005683  -0.000384   0.000081  -0.000023   0.000046   0.000250
     7  C    0.000271  -0.000374  -0.000040   0.000023  -0.000002  -0.000267
     8  N   -0.000001   0.000001   0.000000   0.000000  -0.000000  -0.000003
     9  C   -0.000215   0.000021   0.000000  -0.000000   0.000000   0.000000
    10  C    0.003618   0.000744  -0.000000  -0.000000   0.000000  -0.000000
    11  C   -0.048592  -0.001965   0.000077  -0.000031  -0.000002   0.000022
    12  O    0.281049  -0.050444  -0.000002   0.000000   0.000000  -0.000000
    13  C    4.486501   0.428084  -0.000274   0.000035   0.000002  -0.000004
    14  C    0.428084   4.652701   0.000755  -0.000302   0.000000   0.000003
    15  H   -0.000274   0.000755   0.604093  -0.024570  -0.016678   0.006611
    16  H    0.000035  -0.000302  -0.024570   0.619253  -0.016924  -0.009368
    17  H    0.000002   0.000000  -0.016678  -0.016924   0.615641  -0.002986
    18  H   -0.000004   0.000003   0.006611  -0.009368  -0.002986   0.639476
    19  H    0.000025  -0.000050  -0.010142   0.007337  -0.001502  -0.027934
    20  H    0.000003  -0.000008  -0.000003   0.000008  -0.000003  -0.000251
    21  H    0.000006   0.000001  -0.000000   0.000000  -0.000000  -0.000000
    22  H   -0.000170  -0.000044  -0.000000   0.000000  -0.000000   0.000000
    23  H    0.396907  -0.036198   0.000941  -0.000008  -0.000011   0.000005
    24  H    0.383511  -0.019244  -0.000020   0.000000  -0.000000  -0.000000
    25  H   -0.025645   0.397690  -0.000746   0.001235   0.000024  -0.000029
    26  H   -0.010591   0.377701   0.000566   0.000065   0.000002   0.000000
    27  H   -0.016443   0.380098   0.000016   0.000002  -0.000000   0.000000
              19         20         21         22         23         24
     1  C   -0.029499   0.000066  -0.000000   0.000000  -0.000031   0.000003
     2  C    0.391915  -0.000276   0.000000  -0.000000  -0.000014  -0.000002
     3  O   -0.027008   0.010440   0.000000   0.000001   0.000409  -0.000004
     4  C   -0.007996  -0.008458   0.000056  -0.000146  -0.004396   0.000052
     5  O    0.017190   0.000156  -0.000000   0.000001   0.024036   0.000471
     6  C    0.002901  -0.069033   0.000563   0.019967   0.002976  -0.000693
     7  C   -0.000073   0.430748   0.005035  -0.000519  -0.000269   0.000049
     8  N    0.000001  -0.032468  -0.039017   0.005371   0.000002  -0.000000
     9  C   -0.000000   0.004915   0.421403  -0.045061   0.000046  -0.000002
    10  C   -0.000001   0.000848  -0.063257   0.407714  -0.000518   0.000009
    11  C   -0.000139   0.004931   0.006804  -0.050694  -0.005094   0.003831
    12  O    0.000001  -0.000059  -0.000092   0.002711  -0.026345  -0.026023
    13  C    0.000025   0.000003   0.000006  -0.000170   0.396907   0.383511
    14  C   -0.000050  -0.000008   0.000001  -0.000044  -0.036198  -0.019244
    15  H   -0.010142  -0.000003  -0.000000  -0.000000   0.000941  -0.000020
    16  H    0.007337   0.000008   0.000000   0.000000  -0.000008   0.000000
    17  H   -0.001502  -0.000003  -0.000000  -0.000000  -0.000011  -0.000000
    18  H   -0.027934  -0.000251  -0.000000   0.000000   0.000005  -0.000000
    19  H    0.630808   0.000076   0.000000   0.000000   0.000031  -0.000001
    20  H    0.000076   0.617561  -0.000308   0.000050   0.000001  -0.000000
    21  H    0.000000  -0.000308   0.635793  -0.007073  -0.000001  -0.000000
    22  H    0.000000   0.000050  -0.007073   0.637644   0.000098  -0.000220
    23  H    0.000031   0.000001  -0.000001   0.000098   0.606013  -0.026232
    24  H   -0.000001  -0.000000  -0.000000  -0.000220  -0.026232   0.647774
    25  H    0.000167  -0.000012  -0.000000  -0.000052  -0.009853   0.006746
    26  H    0.000003  -0.000000   0.000000  -0.000002  -0.001674  -0.004539
    27  H    0.000001   0.000003  -0.000002   0.000188   0.007182  -0.010518
              25         26         27
     1  C    0.001158  -0.000059   0.000004
     2  C   -0.001231   0.000007   0.000004
     3  O    0.006080   0.000036   0.000014
     4  C    0.001265  -0.000210  -0.000280
     5  O   -0.001671  -0.000033   0.000002
     6  C   -0.000396  -0.000100   0.000835
     7  C   -0.000126   0.000016  -0.000099
     8  N   -0.000039   0.000000   0.000003
     9  C   -0.000020  -0.000001   0.000050
    10  C   -0.000225  -0.000009  -0.000986
    11  C    0.001523   0.000122   0.001274
    12  O   -0.002057   0.003556   0.001347
    13  C   -0.025645  -0.010591  -0.016443
    14  C    0.397690   0.377701   0.380098
    15  H   -0.000746   0.000566   0.000016
    16  H    0.001235   0.000065   0.000002
    17  H    0.000024   0.000002  -0.000000
    18  H   -0.000029   0.000000   0.000000
    19  H    0.000167   0.000003   0.000001
    20  H   -0.000012  -0.000000   0.000003
    21  H   -0.000000   0.000000  -0.000002
    22  H   -0.000052  -0.000002   0.000188
    23  H   -0.009853  -0.001674   0.007182
    24  H    0.006746  -0.004539  -0.010518
    25  H    0.609819  -0.017122  -0.024564
    26  H   -0.017122   0.613143  -0.015330
    27  H   -0.024564  -0.015330   0.622143
 Mulliken charges:
               1
     1  C   -0.108444
     2  C    0.141503
     3  O   -0.329668
     4  C    0.261141
     5  O   -0.247097
     6  C   -0.201359
     7  C    0.064562
     8  N   -0.150334
     9  C    0.055416
    10  C   -0.087468
    11  C    0.258365
    12  O   -0.328698
    13  C    0.140223
    14  C   -0.127983
    15  H    0.056370
    16  H    0.053853
    17  H    0.050827
    18  H    0.048855
    19  H    0.053891
    20  H    0.041072
    21  H    0.040089
    22  H    0.030236
    23  H    0.072000
    24  H    0.045052
    25  H    0.058081
    26  H    0.054456
    27  H    0.055058
 Sum of Mulliken charges =  -0.00000
 Mulliken charges with hydrogens summed into heavy atoms:
               1
     1  C    0.052607
     2  C    0.244250
     3  O   -0.329668
     4  C    0.261141
     5  O   -0.247097
     6  C   -0.201359
     7  C    0.105635
     8  N   -0.150334
     9  C    0.095506
    10  C   -0.057232
    11  C    0.258365
    12  O   -0.328698
    13  C    0.257275
    14  C    0.039611
 Electronic spatial extent (au):  <R**2>=           2858.0118
 Charge=             -0.0000 electrons
 Dipole moment (field-independent basis, Debye):
    X=             -2.2333    Y=              1.6543    Z=              1.3348  Tot=              3.0831
 Quadrupole moment (field-independent basis, Debye-Ang):
   XX=            -72.8463   YY=            -81.7387   ZZ=            -86.9724
   XY=              6.5546   XZ=             -1.8727   YZ=              3.9623
 Traceless Quadrupole moment (field-independent basis, Debye-Ang):
   XX=              7.6729   YY=             -1.2196   ZZ=             -6.4532
   XY=              6.5546   XZ=             -1.8727   YZ=              3.9623
 Octapole moment (field-independent basis, Debye-Ang**2):
  XXX=            -20.2007  YYY=             31.7668  ZZZ=             -0.1968  XYY=            -29.7964
  XXY=             -0.0527  XXZ=              1.5593  XZZ=             -4.4591  YZZ=              1.0841
  YYZ=             -4.4022  XYZ=              1.9679
 Hexadecapole moment (field-independent basis, Debye-Ang**3):
 XXXX=          -2050.5100 YYYY=          -1148.4983 ZZZZ=           -305.4523 XXXY=             74.3754
 XXXZ=             10.0433 YYYX=             70.3761 YYYZ=              5.4049 ZZZX=             -3.4244
 ZZZY=             -0.9680 XXYY=           -606.1221 XXZZ=           -451.0375 YYZZ=           -246.7637
 XXYZ=              7.7151 YYXZ=             -5.1343 ZZXY=             12.1999
 N-N= 9.223850677394D+02 E-N=-3.401912277680D+03  KE= 6.621190252738D+02
   1 Symmetry operations used in ECPInt.
 ECPInt:  NShTT=    7626 NPrTT=   27482 LenC2=    7339 LenP2D=   19492.
 LDataN:  DoStor=T MaxTD1= 5 Len=  102
 Calling FoFJK, ICntrl=      2127 FMM=F ISym2X=0 I1Cent= 0 IOpClX= 0 NMat=1 NMatS=1 NMatT=0.
 ***** Axes restored to original set *****
 -------------------------------------------------------------------
 Center     Atomic                   Forces (Hartrees/Bohr)
 Number     Number              X              Y              Z
 -------------------------------------------------------------------
      1        6           0.000009117    0.000005260   -0.000002884
      2        6          -0.000001334   -0.000002510    0.000004138
      3        8           0.000000192   -0.000000734    0.000001973
      4        6          -0.000001581    0.000002136   -0.000004012
      5        8           0.000003997    0.000000321    0.000002847
      6        6          -0.000002893   -0.000012312    0.000000554
      7        6           0.000008521    0.000007973   -0.000004070
      8        7          -0.000006625    0.000002890    0.000002124
      9        6           0.000001063   -0.000006744    0.000002903
     10        6          -0.000002336   -0.000000339    0.000000254
     11        6          -0.000003620    0.000007376   -0.000000317
     12        8           0.000003103   -0.000001295   -0.000000638
     13        6          -0.000000927   -0.000001760    0.000003772
     14        6           0.000002984    0.000000332   -0.000011608
     15        1          -0.000000309    0.000000343    0.000000353
     16        1          -0.000000950    0.000000641   -0.000000953
     17        1          -0.000005626    0.000001740    0.000000993
     18        1           0.000000745    0.000001988   -0.000001663
     19        1          -0.000000874    0.000002389   -0.000001193
     20        1           0.000000522   -0.000003726    0.000002023
     21        1           0.000003226   -0.000002235   -0.000001237
     22        1           0.000002966   -0.000004437   -0.000000080
     23        1          -0.000001495    0.000003087    0.000000510
     24        1          -0.000002363    0.000000773   -0.000001287
     25        1          -0.000003131    0.000001015    0.000002674
     26        1          -0.000002518   -0.000000917    0.000002011
     27        1           0.000000146   -0.000001254    0.000002814
 -------------------------------------------------------------------
 Cartesian Forces:  Max     0.000012312 RMS     0.000003589

 GradGradGradGradGradGradGradGradGradGradGradGradGradGradGradGradGradGrad
 Berny optimization.
 FormGI is forming the generalized inverse of G from B-inverse, IUseBI=4.
 Internal  Forces:  Max     0.000006734 RMS     0.000001990
 Search for a local minimum.
 Step number   1 out of a maximum of  134
 All quantities printed in internal units (Hartrees-Bohrs-Radians)
 Mixed Optimization -- En-DIIS/RFO-DIIS
 Second derivative matrix not updated -- first step.
 ITU=  0
     Eigenvalues ---    0.00530   0.00558   0.00921   0.01302   0.01348
     Eigenvalues ---    0.01444   0.01658   0.01972   0.02076   0.02170
     Eigenvalues ---    0.02195   0.02223   0.02381   0.02517   0.02522
     Eigenvalues ---    0.02561   0.04726   0.05047   0.05454   0.05688
     Eigenvalues ---    0.05699   0.05768   0.05816   0.05820   0.11698
     Eigenvalues ---    0.11908   0.13877   0.14056   0.15995   0.15998
     Eigenvalues ---    0.15999   0.16000   0.16000   0.16000   0.16000
     Eigenvalues ---    0.16000   0.16000   0.22054   0.22064   0.22326
     Eigenvalues ---    0.23230   0.24533   0.24882   0.24991   0.24999
     Eigenvalues ---    0.25000   0.25000   0.25000   0.30577   0.30782
     Eigenvalues ---    0.33640   0.33680   0.33698   0.33701   0.33708
     Eigenvalues ---    0.33709   0.33738   0.33794   0.33882   0.33907
     Eigenvalues ---    0.33970   0.34206   0.34325   0.34761   0.41064
     Eigenvalues ---    0.41309   0.41574   0.42347   0.44338   0.47496
     Eigenvalues ---    0.56188   0.57821   0.58502   0.59808   1.01347
 RFO step:  Lambda= 0.00000000D+00 EMin= 5.30216838D-03
 Linear search not attempted -- first point.
 Iteration  1 RMS(Cart)=  0.00022166 RMS(Int)=  0.00000002
 Iteration  2 RMS(Cart)=  0.00000003 RMS(Int)=  0.00000000
 Variable       Old X    -DE/DX   Delta X   Delta X   Delta X     New X
                                 (Linear)    (Quad)   (Total)
    R1        2.86430   0.00000   0.00000   0.00001   0.00001   2.86431
    R2        2.07679  -0.00000   0.00000  -0.00000  -0.00000   2.07678
    R3        2.07824   0.00000   0.00000   0.00000   0.00000   2.07824
    R4        2.07838  -0.00001   0.00000  -0.00002  -0.00002   2.07837
    R5        2.70132  -0.00000   0.00000  -0.00000  -0.00000   2.70132
    R6        2.07488  -0.00000   0.00000  -0.00000  -0.00000   2.07488
    R7        2.07774  -0.00000   0.00000  -0.00000  -0.00000   2.07774
    R8        2.52707  -0.00000   0.00000  -0.00000  -0.00000   2.52707
    R9        2.28104   0.00000   0.00000   0.00000   0.00000   2.28105
   R10        2.81241   0.00000   0.00000   0.00000   0.00000   2.81241
   R11        2.66132  -0.00000   0.00000  -0.00001  -0.00001   2.66131
   R12        2.66840   0.00001   0.00000   0.00001   0.00001   2.66841
   R13        2.49793   0.00000   0.00000   0.00000   0.00000   2.49793
   R14        2.06786   0.00000   0.00000   0.00001   0.00001   2.06786
   R15        2.52657  -0.00001   0.00000  -0.00001  -0.00001   2.52655
   R16        2.61359   0.00000   0.00000   0.00000   0.00000   2.61359
   R17        2.06984  -0.00000   0.00000  -0.00001  -0.00001   2.06984
   R18        2.65585   0.00000   0.00000   0.00000   0.00000   2.65585
   R19        2.06065  -0.00000   0.00000  -0.00001  -0.00001   2.06064
   R20        2.52145   0.00000   0.00000   0.00000   0.00000   2.52146
   R21        2.69469  -0.00000   0.00000  -0.00000  -0.00000   2.69469
   R22        2.86826   0.00000   0.00000   0.00001   0.00001   2.86827
   R23        2.07380  -0.00000   0.00000  -0.00000  -0.00000   2.07380
   R24        2.07529   0.00000   0.00000   0.00000   0.00000   2.07529
   R25        2.07826  -0.00000   0.00000  -0.00001  -0.00001   2.07825
   R26        2.07843  -0.00000   0.00000  -0.00001  -0.00001   2.07842
   R27        2.07874  -0.00000   0.00000  -0.00001  -0.00001   2.07873
    A1        1.93059  -0.00000   0.00000  -0.00001  -0.00001   1.93059
    A2        1.93379  -0.00000   0.00000   0.00000   0.00000   1.93380
    A3        1.91832  -0.00000   0.00000  -0.00001  -0.00001   1.91831
    A4        1.90198   0.00000   0.00000   0.00001   0.00001   1.90199
    A5        1.88741   0.00000   0.00000  -0.00000  -0.00000   1.88740
    A6        1.89066   0.00000   0.00000   0.00002   0.00002   1.89067
    A7        1.94346   0.00000   0.00000   0.00001   0.00001   1.94346
    A8        1.94306  -0.00000   0.00000  -0.00000  -0.00000   1.94306
    A9        1.93692  -0.00000   0.00000  -0.00000  -0.00000   1.93692
   A10        1.82856  -0.00000   0.00000   0.00000   0.00000   1.82856
   A11        1.90504  -0.00000   0.00000  -0.00001  -0.00001   1.90502
   A12        1.90334   0.00000   0.00000   0.00002   0.00002   1.90336
   A13        2.04904  -0.00000   0.00000  -0.00001  -0.00001   2.04902
   A14        2.14923  -0.00000   0.00000  -0.00001  -0.00001   2.14922
   A15        1.94923  -0.00000   0.00000  -0.00001  -0.00001   1.94922
   A16        2.18413   0.00000   0.00000   0.00002   0.00002   2.18415
   A17        2.05359  -0.00000   0.00000  -0.00000  -0.00000   2.05359
   A18        2.17569   0.00000   0.00000   0.00000   0.00000   2.17569
   A19        2.05007   0.00000   0.00000   0.00001   0.00001   2.05008
   A20        2.18753  -0.00000   0.00000  -0.00000  -0.00000   2.18753
   A21        2.05779   0.00000   0.00000   0.00002   0.00002   2.05781
   A22        2.03767  -0.00000   0.00000  -0.00001  -0.00001   2.03766
   A23        2.03449   0.00000   0.00000   0.00000   0.00000   2.03450
   A24        2.15970   0.00000   0.00000  -0.00000  -0.00000   2.15970
   A25        2.03355  -0.00000   0.00000  -0.00001  -0.00001   2.03354
   A26        2.08979   0.00000   0.00000   0.00001   0.00001   2.08980
   A27        2.09402   0.00000   0.00000   0.00001   0.00001   2.09402
   A28        2.12296  -0.00000   0.00000  -0.00000  -0.00000   2.12295
   A29        2.06595  -0.00000   0.00000  -0.00001  -0.00001   2.06594
   A30        2.03906  -0.00000   0.00000  -0.00001  -0.00001   2.03905
   A31        2.24220   0.00000   0.00000   0.00001   0.00001   2.24222
   A32        2.00189   0.00000   0.00000   0.00000   0.00000   2.00190
   A33        2.18722   0.00001   0.00000   0.00002   0.00002   2.18724
   A34        1.97999  -0.00000   0.00000  -0.00000  -0.00000   1.97999
   A35        1.91832   0.00000   0.00000   0.00001   0.00001   1.91833
   A36        1.80291  -0.00000   0.00000  -0.00000  -0.00000   1.80291
   A37        1.94863   0.00000   0.00000   0.00001   0.00001   1.94863
   A38        1.91731   0.00000   0.00000   0.00000   0.00000   1.91731
   A39        1.88943  -0.00000   0.00000  -0.00001  -0.00001   1.88942
   A40        1.97019  -0.00000   0.00000  -0.00003  -0.00003   1.97016
   A41        1.90369  -0.00000   0.00000  -0.00001  -0.00001   1.90368
   A42        1.93549  -0.00000   0.00000  -0.00001  -0.00001   1.93549
   A43        1.87555   0.00000   0.00000   0.00002   0.00002   1.87557
   A44        1.88636   0.00000   0.00000   0.00001   0.00001   1.88636
   A45        1.89008   0.00000   0.00000   0.00002   0.00002   1.89010
    D1        1.12739  -0.00000   0.00000  -0.00003  -0.00003   1.12737
    D2       -3.12217   0.00000   0.00000  -0.00002  -0.00002  -3.12219
    D3       -0.99861   0.00000   0.00000  -0.00001  -0.00001  -0.99861
    D4       -0.98384  -0.00000   0.00000  -0.00003  -0.00003  -0.98386
    D5        1.04979  -0.00000   0.00000  -0.00003  -0.00003   1.04976
    D6       -3.10984   0.00000   0.00000  -0.00001  -0.00001  -3.10985
    D7       -3.07284  -0.00000   0.00000  -0.00004  -0.00004  -3.07288
    D8       -1.03921  -0.00000   0.00000  -0.00004  -0.00004  -1.03925
    D9        1.08434  -0.00000   0.00000  -0.00002  -0.00002   1.08432
   D10       -1.46237   0.00000   0.00000   0.00006   0.00006  -1.46231
   D11        2.71839   0.00000   0.00000   0.00006   0.00006   2.71845
   D12        0.68203   0.00000   0.00000   0.00005   0.00005   0.68208
   D13        0.01306  -0.00000   0.00000  -0.00002  -0.00002   0.01303
   D14       -3.09328   0.00000   0.00000   0.00004   0.00004  -3.09324
   D15        0.65124  -0.00000   0.00000   0.00002   0.00002   0.65126
   D16       -2.58701   0.00000   0.00000   0.00009   0.00009  -2.58692
   D17       -2.45425   0.00000   0.00000   0.00009   0.00009  -2.45416
   D18        0.59069   0.00000   0.00000   0.00016   0.00016   0.59084
   D19        3.00365  -0.00000   0.00000  -0.00002  -0.00002   3.00363
   D20       -0.11661   0.00000   0.00000   0.00010   0.00010  -0.11651
   D21       -0.04836  -0.00000   0.00000  -0.00008  -0.00008  -0.04844
   D22        3.11456   0.00000   0.00000   0.00004   0.00004   3.11460
   D23       -2.98763  -0.00000   0.00000  -0.00002  -0.00002  -2.98765
   D24        0.16197   0.00000   0.00000  -0.00001  -0.00001   0.16196
   D25        0.05749   0.00000   0.00000   0.00004   0.00004   0.05753
   D26       -3.07609   0.00000   0.00000   0.00006   0.00006  -3.07604
   D27        0.00651   0.00000   0.00000   0.00005   0.00005   0.00656
   D28        3.12699  -0.00000   0.00000  -0.00006  -0.00006   3.12693
   D29        0.02446   0.00000   0.00000   0.00000   0.00000   0.02446
   D30       -3.13578  -0.00000   0.00000  -0.00007  -0.00007  -3.13585
   D31       -0.01152  -0.00000   0.00000  -0.00003  -0.00003  -0.01155
   D32        3.10475  -0.00000   0.00000  -0.00003  -0.00003   3.10472
   D33       -3.13389   0.00000   0.00000   0.00004   0.00004  -3.13385
   D34       -0.01763   0.00000   0.00000   0.00004   0.00004  -0.01759
   D35       -0.03108   0.00000   0.00000   0.00001   0.00001  -0.03107
   D36        3.10361   0.00000   0.00000  -0.00000  -0.00000   3.10361
   D37        3.13502   0.00000   0.00000   0.00001   0.00001   3.13503
   D38       -0.01347   0.00000   0.00000  -0.00000  -0.00000  -0.01348
   D39        0.49595  -0.00000   0.00000  -0.00011  -0.00011   0.49584
   D40       -2.63777  -0.00000   0.00000  -0.00010  -0.00010  -2.63787
   D41        0.88175  -0.00000   0.00000  -0.00021  -0.00021   0.88153
   D42       -1.31363  -0.00000   0.00000  -0.00022  -0.00022  -1.31385
   D43        2.95650  -0.00000   0.00000  -0.00021  -0.00021   2.95628
   D44       -1.18550   0.00000   0.00000   0.00007   0.00007  -1.18543
   D45        3.01417   0.00000   0.00000   0.00007   0.00007   3.01424
   D46        0.93415  -0.00000   0.00000   0.00005   0.00005   0.93421
   D47        0.99364   0.00000   0.00000   0.00008   0.00008   0.99372
   D48       -1.08987   0.00000   0.00000   0.00008   0.00008  -1.08979
   D49        3.11330   0.00000   0.00000   0.00007   0.00007   3.11336
   D50        3.08994   0.00000   0.00000   0.00008   0.00008   3.09002
   D51        1.00644   0.00000   0.00000   0.00007   0.00007   1.00651
   D52       -1.07359  -0.00000   0.00000   0.00006   0.00006  -1.07353
         Item               Value     Threshold  Converged?
 Maximum Force            0.000007     0.000450     YES
 RMS     Force            0.000002     0.000300     YES
 Maximum Displacement     0.000823     0.001800     YES
 RMS     Displacement     0.000222     0.001200     YES
 Predicted change in Energy=-2.863452D-09
 Optimization completed.
    -- Stationary point found.
                           ----------------------------
                           !   Optimized Parameters   !
                           ! (Angstroms and Degrees)  !
 --------------------------                            --------------------------
 ! Name  Definition              Value          Derivative Info.                !
 --------------------------------------------------------------------------------
 ! R1    R(1,2)                  1.5157         -DE/DX =    0.0                 !
 ! R2    R(1,15)                 1.099          -DE/DX =    0.0                 !
 ! R3    R(1,16)                 1.0998         -DE/DX =    0.0                 !
 ! R4    R(1,17)                 1.0998         -DE/DX =    0.0                 !
 ! R5    R(2,3)                  1.4295         -DE/DX =    0.0                 !
 ! R6    R(2,18)                 1.098          -DE/DX =    0.0                 !
 ! R7    R(2,19)                 1.0995         -DE/DX =    0.0                 !
 ! R8    R(3,4)                  1.3373         -DE/DX =    0.0                 !
 ! R9    R(4,5)                  1.2071         -DE/DX =    0.0                 !
 ! R10   R(4,6)                  1.4883         -DE/DX =    0.0                 !
 ! R11   R(6,7)                  1.4083         -DE/DX =    0.0                 !
 ! R12   R(6,11)                 1.4121         -DE/DX =    0.0                 !
 ! R13   R(7,8)                  1.3218         -DE/DX =    0.0                 !
 ! R14   R(7,20)                 1.0943         -DE/DX =    0.0                 !
 ! R15   R(8,9)                  1.337          -DE/DX =    0.0                 !
 ! R16   R(9,10)                 1.3831         -DE/DX =    0.0                 !
 ! R17   R(9,21)                 1.0953         -DE/DX =    0.0                 !
 ! R18   R(10,11)                1.4054         -DE/DX =    0.0                 !
 ! R19   R(10,22)                1.0905         -DE/DX =    0.0                 !
 ! R20   R(11,12)                1.3343         -DE/DX =    0.0                 !
 ! R21   R(12,13)                1.426          -DE/DX =    0.0                 !
 ! R22   R(13,14)                1.5178         -DE/DX =    0.0                 !
 ! R23   R(13,23)                1.0974         -DE/DX =    0.0                 !
 ! R24   R(13,24)                1.0982         -DE/DX =    0.0                 !
 ! R25   R(14,25)                1.0998         -DE/DX =    0.0                 !
 ! R26   R(14,26)                1.0999         -DE/DX =    0.0                 !
 ! R27   R(14,27)                1.1            -DE/DX =    0.0                 !
 ! A1    A(2,1,15)             110.6149         -DE/DX =    0.0                 !
 ! A2    A(2,1,16)             110.7983         -DE/DX =    0.0                 !
 ! A3    A(2,1,17)             109.9118         -DE/DX =    0.0                 !
 ! A4    A(15,1,16)            108.9756         -DE/DX =    0.0                 !
 ! A5    A(15,1,17)            108.1404         -DE/DX =    0.0                 !
 ! A6    A(16,1,17)            108.3266         -DE/DX =    0.0                 !
 ! A7    A(1,2,3)              111.352          -DE/DX =    0.0                 !
 ! A8    A(1,2,18)             111.3292         -DE/DX =    0.0                 !
 ! A9    A(1,2,19)             110.9775         -DE/DX =    0.0                 !
 ! A10   A(3,2,18)             104.7689         -DE/DX =    0.0                 !
 ! A11   A(3,2,19)             109.1505         -DE/DX =    0.0                 !
 ! A12   A(18,2,19)            109.0533         -DE/DX =    0.0                 !
 ! A13   A(2,3,4)              117.4011         -DE/DX =    0.0                 !
 ! A14   A(3,4,5)              123.1421         -DE/DX =    0.0                 !
 ! A15   A(3,4,6)              111.6824         -DE/DX =    0.0                 !
 ! A16   A(5,4,6)              125.1417         -DE/DX =    0.0                 !
 ! A17   A(4,6,7)              117.662          -DE/DX =    0.0                 !
 ! A18   A(4,6,11)             124.6578         -DE/DX =    0.0                 !
 ! A19   A(7,6,11)             117.4604         -DE/DX =    0.0                 !
 ! A20   A(6,7,8)              125.3364         -DE/DX =    0.0                 !
 ! A21   A(6,7,20)             117.903          -DE/DX =    0.0                 !
 ! A22   A(8,7,20)             116.7501         -DE/DX =    0.0                 !
 ! A23   A(7,8,9)              116.5679         -DE/DX =    0.0                 !
 ! A24   A(8,9,10)             123.7415         -DE/DX =    0.0                 !
 ! A25   A(8,9,21)             116.5136         -DE/DX =    0.0                 !
 ! A26   A(10,9,21)            119.7363         -DE/DX =    0.0                 !
 ! A27   A(9,10,11)            119.9783         -DE/DX =    0.0                 !
 ! A28   A(9,10,22)            121.6364         -DE/DX =    0.0                 !
 ! A29   A(11,10,22)           118.37           -DE/DX =    0.0                 !
 ! A30   A(6,11,10)            116.8297         -DE/DX =    0.0                 !
 ! A31   A(6,11,12)            128.4688         -DE/DX =    0.0                 !
 ! A32   A(10,11,12)           114.7001         -DE/DX =    0.0                 !
 ! A33   A(11,12,13)           125.3182         -DE/DX =    0.0                 !
 ! A34   A(12,13,14)           113.445          -DE/DX =    0.0                 !
 ! A35   A(12,13,23)           109.9118         -DE/DX =    0.0                 !
 ! A36   A(12,13,24)           103.2991         -DE/DX =    0.0                 !
 ! A37   A(14,13,23)           111.648          -DE/DX =    0.0                 !
 ! A38   A(14,13,24)           109.8538         -DE/DX =    0.0                 !
 ! A39   A(23,13,24)           108.2563         -DE/DX =    0.0                 !
 ! A40   A(13,14,25)           112.8833         -DE/DX =    0.0                 !
 ! A41   A(13,14,26)           109.0732         -DE/DX =    0.0                 !
 ! A42   A(13,14,27)           110.8957         -DE/DX =    0.0                 !
 ! A43   A(25,14,26)           107.461          -DE/DX =    0.0                 !
 ! A44   A(25,14,27)           108.0803         -DE/DX =    0.0                 !
 ! A45   A(26,14,27)           108.2936         -DE/DX =    0.0                 !
 ! D1    D(15,1,2,3)            64.595          -DE/DX =    0.0                 !
 ! D2    D(15,1,2,18)         -178.8869         -DE/DX =    0.0                 !
 ! D3    D(15,1,2,19)          -57.216          -DE/DX =    0.0                 !
 ! D4    D(16,1,2,3)           -56.3697         -DE/DX =    0.0                 !
 ! D5    D(16,1,2,18)           60.1484         -DE/DX =    0.0                 !
 ! D6    D(16,1,2,19)         -178.1806         -DE/DX =    0.0                 !
 ! D7    D(17,1,2,3)          -176.0607         -DE/DX =    0.0                 !
 ! D8    D(17,1,2,18)          -59.5426         -DE/DX =    0.0                 !
 ! D9    D(17,1,2,19)           62.1284         -DE/DX =    0.0                 !
 ! D10   D(1,2,3,4)            -83.7877         -DE/DX =    0.0                 !
 ! D11   D(18,2,3,4)           155.7523         -DE/DX =    0.0                 !
 ! D12   D(19,2,3,4)            39.0773         -DE/DX =    0.0                 !
 ! D13   D(2,3,4,5)              0.7482         -DE/DX =    0.0                 !
 ! D14   D(2,3,4,6)           -177.2317         -DE/DX =    0.0                 !
 ! D15   D(3,4,6,7)             37.3131         -DE/DX =    0.0                 !
 ! D16   D(3,4,6,11)          -148.2246         -DE/DX =    0.0                 !
 ! D17   D(5,4,6,7)           -140.6184         -DE/DX =    0.0                 !
 ! D18   D(5,4,6,11)            33.8438         -DE/DX =    0.0                 !
 ! D19   D(4,6,7,8)            172.0965         -DE/DX =    0.0                 !
 ! D20   D(4,6,7,20)            -6.6812         -DE/DX =    0.0                 !
 ! D21   D(11,6,7,8)            -2.771          -DE/DX =    0.0                 !
 ! D22   D(11,6,7,20)          178.4512         -DE/DX =    0.0                 !
 ! D23   D(4,6,11,10)         -171.1786         -DE/DX =    0.0                 !
 ! D24   D(4,6,11,12)            9.2804         -DE/DX =    0.0                 !
 ! D25   D(7,6,11,10)            3.2938         -DE/DX =    0.0                 !
 ! D26   D(7,6,11,12)         -176.2472         -DE/DX =    0.0                 !
 ! D27   D(6,7,8,9)              0.3728         -DE/DX =    0.0                 !
 ! D28   D(20,7,8,9)           179.1632         -DE/DX =    0.0                 !
 ! D29   D(7,8,9,10)             1.4014         -DE/DX =    0.0                 !
 ! D30   D(7,8,9,21)          -179.667          -DE/DX =    0.0                 !
 ! D31   D(8,9,10,11)           -0.6598         -DE/DX =    0.0                 !
 ! D32   D(8,9,10,22)          177.889          -DE/DX =    0.0                 !
 ! D33   D(21,9,10,11)        -179.5587         -DE/DX =    0.0                 !
 ! D34   D(21,9,10,22)          -1.01           -DE/DX =    0.0                 !
 ! D35   D(9,10,11,6)           -1.7806         -DE/DX =    0.0                 !
 ! D36   D(9,10,11,12)         177.8239         -DE/DX =    0.0                 !
 ! D37   D(22,10,11,6)         179.6237         -DE/DX =    0.0                 !
 ! D38   D(22,10,11,12)         -0.7719         -DE/DX =    0.0                 !
 ! D39   D(6,11,12,13)          28.4161         -DE/DX =    0.0                 !
 ! D40   D(10,11,12,13)       -151.1331         -DE/DX =    0.0                 !
 ! D41   D(11,12,13,14)         50.5203         -DE/DX =    0.0                 !
 ! D42   D(11,12,13,23)        -75.2653         -DE/DX =    0.0                 !
 ! D43   D(11,12,13,24)        169.3947         -DE/DX =    0.0                 !
 ! D44   D(12,13,14,25)        -67.9243         -DE/DX =    0.0                 !
 ! D45   D(12,13,14,26)        172.6995         -DE/DX =    0.0                 !
 ! D46   D(12,13,14,27)         53.523          -DE/DX =    0.0                 !
 ! D47   D(23,13,14,25)         56.9314         -DE/DX =    0.0                 !
 ! D48   D(23,13,14,26)        -62.4447         -DE/DX =    0.0                 !
 ! D49   D(23,13,14,27)        178.3787         -DE/DX =    0.0                 !
 ! D50   D(24,13,14,25)        177.0407         -DE/DX =    0.0                 !
 ! D51   D(24,13,14,26)         57.6646         -DE/DX =    0.0                 !
 ! D52   D(24,13,14,27)        -61.512          -DE/DX =    0.0                 !
 --------------------------------------------------------------------------------
 GradGradGradGradGradGradGradGradGradGradGradGradGradGradGradGradGradGrad

                          Input orientation:                          
 ---------------------------------------------------------------------
 Center     Atomic      Atomic             Coordinates (Angstroms)
 Number     Number       Type             X           Y           Z
 ---------------------------------------------------------------------
      1          6           0        3.752720   -0.158120   -0.570690
      2          6           0        3.003300   -1.295520    0.094220
      3          8           0        1.606470   -1.243730   -0.205100
      4          6           0        0.845240   -0.441690    0.546930
      5          8           0        1.285870    0.237010    1.442610
      6          6           0       -0.591510   -0.535310    0.170210
      7          6           0       -1.090500   -1.800530   -0.195250
      8          7           0       -2.362530   -2.087190   -0.412150
      9          6           0       -3.233590   -1.081990   -0.276510
     10          6           0       -2.868440    0.213040    0.043490
     11          6           0       -1.515950    0.528360    0.259220
     12          8           0       -1.277740    1.815790    0.516370
     13          6           0       -0.070070    2.508370    0.207740
     14          6           0        0.380540    2.325290   -1.230040
     15          1           0        3.425440    0.809780   -0.165930
     16          1           0        3.588270   -0.165040   -1.658060
     17          1           0        4.831660   -0.260400   -0.383450
     18          1           0        3.335460   -2.269860   -0.287730
     19          1           0        3.139550   -1.272190    1.184990
     20          1           0       -0.376620   -2.624240   -0.291630
     21          1           0       -4.288000   -1.321800   -0.450930
     22          1           0       -3.604690    1.014460    0.112380
     23          1           0        0.716380    2.223010    0.917930
     24          1           0       -0.329530    3.560450    0.386190
     25          1           0        0.702580    1.296910   -1.449620
     26          1           0        1.236280    2.987960   -1.425640
     27          1           0       -0.426220    2.587290   -1.930430
 ---------------------------------------------------------------------
                    Distance matrix (angstroms):
                    1          2          3          4          5
     1  C    0.000000
     2  C    1.515722   0.000000
     3  O    2.432816   1.429478   0.000000
     4  C    3.127767   2.364571   1.337269   0.000000
     5  O    3.208559   2.667652   2.238375   1.207075   0.000000
     6  C    4.423069   3.675099   2.339622   1.488265   2.395837
     7  C    5.127889   4.134976   2.753865   2.478783   3.532887
     8  N    6.414260   5.447503   4.062912   3.730589   4.706683
     9  C    7.053269   6.251546   4.843288   4.210094   5.012051
    10  C    6.659935   6.062644   4.712621   3.804411   4.383652
    11  C    5.377629   4.876206   3.620138   2.568850   3.055404
    12  O    5.512127   5.309027   4.266128   3.099063   3.150010
    13  C    4.725447   4.891633   4.130312   3.107362   2.919341
    14  C    4.239536   4.662918   3.910410   3.321106   3.510498
    15  H    1.098987   2.162907   2.743554   2.954958   2.737376
    16  H    1.099757   2.165793   2.683691   3.530259   3.882891
    17  H    1.099833   2.154656   3.376477   4.097562   4.019271
    18  H    2.171087   1.097977   2.012257   3.200009   3.671416
    19  H    2.167843   1.099494   2.069660   2.522045   2.404201
    20  H    4.817787   3.652155   2.417838   2.638115   3.736069
    21  H    8.125372   7.311698   5.900110   5.302874   6.089615
    22  H    7.481511   7.000134   5.688269   4.702242   5.127525
    23  H    4.135835   4.276512   3.751232   2.693487   2.131620
    24  H    5.604297   5.896901   5.213239   4.174092   3.843279
    25  H    3.491845   3.794397   2.969966   2.651282   3.135061
    26  H    4.118401   4.876529   4.419724   3.975732   3.974549
    27  H    5.181670   5.562106   4.667473   4.114443   4.453366
                    6          7          8          9         10
     6  C    0.000000
     7  C    1.408309   0.000000
     8  N    2.425693   1.321847   0.000000
     9  C    2.734777   2.261800   1.337001   0.000000
    10  C    2.400103   2.696763   2.398877   1.383054   0.000000
    11  C    1.412057   2.410660   2.829936   2.414647   1.405416
    12  O    2.473542   3.690424   4.155980   3.584848   2.307108
    13  C    3.088251   4.446380   5.172892   4.809682   3.623036
    14  C    3.329957   4.500793   5.259597   5.057738   4.079136
    15  H    4.249488   5.216157   6.477164   6.923417   6.325574
    16  H    4.577142   5.167739   6.376439   7.020488   6.687849
    17  H    5.458286   6.122042   7.422557   8.107694   7.726446
    18  H    4.317345   4.451735   5.702275   6.675596   6.690506
    19  H    3.936188   4.480796   5.786879   6.541336   6.293240
    20  H    2.150140   1.094263   2.060773   3.246697   3.790993
    21  H    3.829937   3.243233   2.072380   1.095313   2.148333
    22  H    3.388862   3.786813   3.382059   2.164267   1.090451
    23  H    3.142927   4.548940   5.461376   5.286963   4.201852
    24  H    4.109809   5.445847   6.055268   5.515885   4.215289
    25  H    2.766866   3.792455   4.682241   4.746450   4.019494
    26  H    4.277965   5.464193   6.303629   6.153432   5.167906
    27  H    3.767047   4.764985   5.282540   4.907178   3.936732
                   11         12         13         14         15
    11  C    0.000000
    12  O    1.334296   0.000000
    13  C    2.452276   1.425969   0.000000
    14  C    3.007246   2.461591   1.517820   0.000000
    15  H    4.967624   4.857725   3.904283   3.563778   0.000000
    16  H    5.496347   5.685938   4.900182   4.083439   1.789760
    17  H    6.428633   6.514983   5.660614   5.216798   1.780465
    18  H    5.627199   6.214558   5.888515   5.543907   3.083361
    19  H    5.076683   5.430941   5.054633   5.136766   2.498263
    20  H    3.397116   4.602037   5.165949   5.094286   5.124837
    21  H    3.407590   4.454414   5.735415   5.975244   8.007622
    22  H    2.149579   2.494000   3.838541   4.404818   7.038613
    23  H    2.879068   2.074510   1.097408   2.176471   3.242064
    24  H    3.258417   1.989947   1.098197   2.154535   4.687304
    25  H    2.903907   2.838313   2.193505   1.099768   3.049446
    26  H    4.057481   3.386101   2.145807   1.099855   3.335230
    27  H    3.197072   2.703170   2.169065   1.100024   4.594376
                   16         17         18         19         20
    16  H    0.000000
    17  H    1.783183   0.000000
    18  H    2.524279   2.507131   0.000000
    19  H    3.083839   2.519317   1.789589   0.000000
    20  H    4.861599   5.720345   3.728959   4.046220   0.000000
    21  H    8.051763   9.181466   7.683918   7.605734   4.125605
    22  H    7.500957   8.546527   7.688467   7.201669   4.880963
    23  H    4.537208   4.979603   5.338453   4.261396   5.114051
    24  H    5.779913   6.467544   6.919453   6.002250   6.221901
    25  H    3.241597   4.539960   4.583001   4.413646   4.228597
    26  H    3.940468   4.956285   5.774605   5.346654   5.948463
    27  H    4.875001   6.176390   6.359293   6.108694   5.463348
                   21         22         23         24         25
    21  H    0.000000
[...]
 Alpha virt. eigenvalues --    6.03317   6.09822   6.12486   6.15594   6.20323
 Alpha virt. eigenvalues --    6.31260   6.36979   6.44062   6.49163   6.51913
 Alpha virt. eigenvalues --    6.63729   6.69159   6.76158   6.76654   6.80925
 Alpha virt. eigenvalues --    6.85558   6.92279   7.00577   7.04974   7.07442
 Alpha virt. eigenvalues --    7.13991   7.24586   7.29788   7.40787   7.50973
 Alpha virt. eigenvalues --    7.53073  22.40937  22.43927  22.52297  22.56166
 Alpha virt. eigenvalues --   22.58545  22.83004  22.92661  23.01362  23.32352
 Alpha virt. eigenvalues --   23.61158  32.53689  44.08606  44.34786  44.45615
          Condensed to atoms (all electrons):
               1          2          3          4          5          6
     1  C    4.970196   0.320482  -0.041926   0.007490  -0.011954  -0.003231
     2  C    0.320482   4.789113   0.222450  -0.044089   0.006090   0.002871
     3  O   -0.041926   0.222450   7.989955   0.352794  -0.080787  -0.142773
     4  C    0.007490  -0.044089   0.352794   4.657771   0.586494   0.185052
     5  O   -0.011954   0.006090  -0.080787   0.586494   7.953701  -0.097793
     6  C   -0.003231   0.002871  -0.142773   0.185052  -0.097793   5.766198
     7  C    0.000430  -0.000041   0.019321  -0.036628  -0.000429   0.376086
     8  N   -0.000000   0.000024   0.000178   0.003438  -0.000268  -0.058644
     9  C    0.000003  -0.000015   0.000242  -0.001148   0.000201  -0.021235
    10  C    0.000003  -0.000047  -0.000577   0.008662   0.000202  -0.050204
    11  C    0.000230  -0.000597   0.001409  -0.068394   0.025028   0.154991
    12  O    0.000003   0.000076  -0.000071  -0.000241   0.000183  -0.080442
    13  C   -0.001271   0.000127  -0.000161  -0.002324  -0.020886   0.014710
    14  C    0.001483  -0.000072  -0.006232   0.018911  -0.000233  -0.007061
    15  H    0.417055  -0.043975  -0.002798   0.006798   0.004954   0.002041
    16  H    0.397096  -0.029466   0.002075  -0.002640   0.000607  -0.000656
    17  H    0.397808  -0.029923   0.004016   0.000170   0.000194   0.000046
    18  H   -0.028272   0.393700  -0.031659   0.005658   0.001111   0.002256
    19  H   -0.047575   0.433212  -0.034524  -0.015509   0.011249   0.001367
    20  H    0.000207  -0.000373   0.012491  -0.003517   0.000088  -0.074879
    21  H   -0.000000   0.000000  -0.000001  -0.000008  -0.000001  -0.001676
    22  H    0.000000  -0.000001   0.000006  -0.000207  -0.000032   0.020655
    23  H   -0.000050  -0.000473   0.000293  -0.016701   0.006557   0.019069
    24  H   -0.000003   0.000013  -0.000028   0.001087   0.001010  -0.004861
    25  H    0.000019  -0.001411   0.008356   0.004355  -0.002902  -0.012141
    26  H   -0.000234   0.000015   0.000138  -0.000820   0.000071  -0.000150
    27  H    0.000027  -0.000040   0.000155  -0.002164  -0.000021   0.004232
               7          8          9         10         11         12
     1  C    0.000430  -0.000000   0.000003   0.000003   0.000230   0.000003
     2  C   -0.000041   0.000024  -0.000015  -0.000047  -0.000597   0.000076
     3  O    0.019321   0.000178   0.000242  -0.000577   0.001409  -0.000071
     4  C   -0.036628   0.003438  -0.001148   0.008662  -0.068394  -0.000241
     5  O   -0.000429  -0.000268   0.000201   0.000202   0.025028   0.000183
     6  C    0.376086  -0.058644  -0.021235  -0.050204   0.154991  -0.080442
     7  C    4.834701   0.547331  -0.103454  -0.037001   0.028657   0.002702
     8  N    0.547331   6.443789   0.494374  -0.054230  -0.054716  -0.000019
     9  C   -0.103454   0.494374   4.727345   0.500002  -0.000624   0.002075
    10  C   -0.037001  -0.054230   0.500002   5.052104   0.460084  -0.055239
    11  C    0.028657  -0.054716  -0.000624   0.460084   4.988864   0.379619
    12  O    0.002702  -0.000019   0.002075  -0.055239   0.379619   7.898049
    13  C   -0.000814   0.000121  -0.000211  -0.002496  -0.064968   0.249779
    14  C    0.001962  -0.000060   0.000127   0.006490   0.010981  -0.060251
    15  H   -0.000103   0.000001   0.000000  -0.000002  -0.000088   0.000005
    16  H    0.000073   0.000000   0.000000  -0.000004  -0.000085   0.000000
    17  H   -0.000010  -0.000000   0.000000   0.000000  -0.000000  -0.000000
    18  H   -0.000529  -0.000002  -0.000001   0.000003   0.000060   0.000000
    19  H    0.000237   0.000004  -0.000004   0.000004  -0.000516  -0.000007
    20  H    0.437366  -0.024619   0.005053   0.000061   0.001602  -0.000096
    21  H    0.004763  -0.030558   0.432733  -0.066614   0.006055  -0.000161
    22  H   -0.002976   0.006624  -0.032053   0.410832  -0.064739   0.008210
    23  H   -0.000395   0.000003   0.000115  -0.000851  -0.019222  -0.034000
    24  H    0.000172  -0.000004   0.000011   0.000688   0.004317  -0.036639
    25  H    0.002232  -0.000088   0.000042   0.001015   0.000624   0.000708
    26  H   -0.000030   0.000003  -0.000009  -0.000153   0.000842   0.004096
    27  H   -0.000366   0.000028   0.000159  -0.002422  -0.003351   0.004981
              13         14         15         16         17         18
     1  C   -0.001271   0.001483   0.417055   0.397096   0.397808  -0.028272
     2  C    0.000127  -0.000072  -0.043975  -0.029466  -0.029923   0.393700
     3  O   -0.000161  -0.006232  -0.002798   0.002075   0.004016  -0.031659
     4  C   -0.002324   0.018911   0.006798  -0.002640   0.000170   0.005658
     5  O   -0.020886  -0.000233   0.004954   0.000607   0.000194   0.001111
     6  C    0.014710  -0.007061   0.002041  -0.000656   0.000046   0.002256
     7  C   -0.000814   0.001962  -0.000103   0.000073  -0.000010  -0.000529
     8  N    0.000121  -0.000060   0.000001   0.000000  -0.000000  -0.000002
     9  C   -0.000211   0.000127   0.000000   0.000000   0.000000  -0.000001
    10  C   -0.002496   0.006490  -0.000002  -0.000004   0.000000   0.000003
    11  C   -0.064968   0.010981  -0.000088  -0.000085  -0.000000   0.000060
    12  O    0.249779  -0.060251   0.000005   0.000000  -0.000000   0.000000
    13  C    4.868024   0.267151  -0.000561   0.000226   0.000023  -0.000022
    14  C    0.267151   5.041619   0.000515  -0.000764  -0.000059   0.000014
    15  H   -0.000561   0.000515   0.519163  -0.024558  -0.019806   0.005089
    16  H    0.000226  -0.000764  -0.024558   0.552387  -0.017906  -0.005476
    17  H    0.000023  -0.000059  -0.019806  -0.017906   0.541575  -0.002489
    18  H   -0.000022   0.000014   0.005089  -0.005476  -0.002489   0.572270
    19  H    0.000217  -0.000224  -0.004668   0.006666   0.000355  -0.029801
    20  H   -0.000038   0.000030  -0.000004   0.000004  -0.000006  -0.000302
    21  H    0.000009   0.000007   0.000000   0.000000  -0.000000   0.000000
    22  H   -0.000097  -0.000137   0.000000   0.000000  -0.000000   0.000000
    23  H    0.440096  -0.059617   0.000886   0.000023   0.000003   0.000008
    24  H    0.397858  -0.020628  -0.000054   0.000001   0.000000  -0.000000
    25  H   -0.043977   0.415482  -0.001702   0.000885   0.000117  -0.000047
    26  H   -0.025270   0.389001   0.000186   0.000064   0.000005   0.000000
    27  H   -0.023089   0.386929   0.000078   0.000011   0.000001   0.000000
              19         20         21         22         23         24
     1  C   -0.047575   0.000207  -0.000000   0.000000  -0.000050  -0.000003
     2  C    0.433212  -0.000373   0.000000  -0.000001  -0.000473   0.000013
     3  O   -0.034524   0.012491  -0.000001   0.000006   0.000293  -0.000028
     4  C   -0.015509  -0.003517  -0.000008  -0.000207  -0.016701   0.001087
     5  O    0.011249   0.000088  -0.000001  -0.000032   0.006557   0.001010
     6  C    0.001367  -0.074879  -0.001676   0.020655   0.019069  -0.004861
     7  C    0.000237   0.437366   0.004763  -0.002976  -0.000395   0.000172
     8  N    0.000004  -0.024619  -0.030558   0.006624   0.000003  -0.000004
     9  C   -0.000004   0.005053   0.432733  -0.032053   0.000115   0.000011
    10  C    0.000004   0.000061  -0.066614   0.410832  -0.000851   0.000688
    11  C   -0.000516   0.001602   0.006055  -0.064739  -0.019222   0.004317
    12  O   -0.000007  -0.000096  -0.000161   0.008210  -0.034000  -0.036639
    13  C    0.000217  -0.000038   0.000009  -0.000097   0.440096   0.397858
    14  C   -0.000224   0.000030   0.000007  -0.000137  -0.059617  -0.020628
    15  H   -0.004668  -0.000004   0.000000   0.000000   0.000886  -0.000054
    16  H    0.006666   0.000004   0.000000   0.000000   0.000023   0.000001
    17  H    0.000355  -0.000006  -0.000000  -0.000000   0.000003   0.000000
    18  H   -0.029801  -0.000302   0.000000   0.000000   0.000008  -0.000000
    19  H    0.554386  -0.000058   0.000000   0.000000   0.000109  -0.000001
    20  H   -0.000058   0.501422  -0.000151   0.000073  -0.000008   0.000001
    21  H    0.000000  -0.000151   0.528088  -0.003066  -0.000002  -0.000001
    22  H    0.000000   0.000073  -0.003066   0.519700   0.000159  -0.000346
    23  H    0.000109  -0.000008  -0.000002   0.000159   0.541286  -0.028976
    24  H   -0.000001   0.000001  -0.000001  -0.000346  -0.028976   0.572142
    25  H    0.000289  -0.000044  -0.000001  -0.000054  -0.004002   0.004838
    26  H    0.000008   0.000001   0.000000   0.000002   0.000359  -0.004317
    27  H    0.000003  -0.000003  -0.000002   0.000245   0.006689  -0.006973
              25         26         27
     1  C    0.000019  -0.000234   0.000027
     2  C   -0.001411   0.000015  -0.000040
     3  O    0.008356   0.000138   0.000155
     4  C    0.004355  -0.000820  -0.002164
     5  O   -0.002902   0.000071  -0.000021
     6  C   -0.012141  -0.000150   0.004232
     7  C    0.002232  -0.000030  -0.000366
     8  N   -0.000088   0.000003   0.000028
     9  C    0.000042  -0.000009   0.000159
    10  C    0.001015  -0.000153  -0.002422
    11  C    0.000624   0.000842  -0.003351
    12  O    0.000708   0.004096   0.004981
    13  C   -0.043977  -0.025270  -0.023089
    14  C    0.415482   0.389001   0.386929
    15  H   -0.001702   0.000186   0.000078
    16  H    0.000885   0.000064   0.000011
    17  H    0.000117   0.000005   0.000001
    18  H   -0.000047   0.000000   0.000000
    19  H    0.000289   0.000008   0.000003
    20  H   -0.000044   0.000001  -0.000003
    21  H   -0.000001   0.000000  -0.000002
    22  H   -0.000054   0.000002   0.000245
    23  H   -0.004002   0.000359   0.006689
    24  H    0.004838  -0.004317  -0.006973
    25  H    0.527898  -0.018165  -0.025649
    26  H   -0.018165   0.540043  -0.014087
    27  H   -0.025649  -0.014087   0.545792
 Mulliken charges:
               1
     1  C   -0.378015
     2  C   -0.017649
     3  O   -0.272340
     4  C    0.355711
     5  O   -0.382436
     6  C    0.006174
     7  C   -0.073258
     8  N   -0.272708
     9  C   -0.003728
    10  C   -0.170311
    11  C    0.213940
    12  O   -0.283319
    13  C   -0.052154
    14  C   -0.385366
    15  H    0.141547
    16  H    0.121436
    17  H    0.125886
    18  H    0.118430
    19  H    0.124781
    20  H    0.145698
    21  H    0.130585
    22  H    0.137202
    23  H    0.148641
    24  H    0.120695
    25  H    0.143322
    26  H    0.128401
    27  H    0.128836
 Sum of Mulliken charges =  -0.00000
 Mulliken charges with hydrogens summed into heavy atoms:
               1
     1  C    0.010854
     2  C    0.225562
     3  O   -0.272340
     4  C    0.355711
     5  O   -0.382436
     6  C    0.006174
     7  C    0.072440
     8  N   -0.272708
     9  C    0.126857
    10  C   -0.033110
    11  C    0.213940
    12  O   -0.283319
    13  C    0.217182
    14  C    0.015193
 Electronic spatial extent (au):  <R**2>=           2858.8286
 Charge=              0.0000 electrons
 Dipole moment (field-independent basis, Debye):
    X=             -2.0795    Y=              1.6531    Z=              1.3692  Tot=              2.9886
 Quadrupole moment (field-independent basis, Debye-Ang):
   XX=            -73.0161   YY=            -82.0283   ZZ=            -87.6116
   XY=              6.9254   XZ=             -2.0072   YZ=              3.7970
 Traceless Quadrupole moment (field-independent basis, Debye-Ang):
   XX=              7.8693   YY=             -1.1430   ZZ=             -6.7263
   XY=              6.9254   XZ=             -2.0072   YZ=              3.7970
 Octapole moment (field-independent basis, Debye-Ang**2):
  XXX=            -15.8639  YYY=             32.2111  ZZZ=             -0.2065  XYY=            -29.8062
  XXY=              0.3996  XXZ=              1.6289  XZZ=             -4.3815  YZZ=              1.3163
  YYZ=             -4.3825  XYZ=              2.0293
 Hexadecapole moment (field-independent basis, Debye-Ang**3):
 XXXX=          -2059.4778 YYYY=          -1162.4780 ZZZZ=           -314.9803 XXXY=             75.2427
 XXXZ=             11.3443 YYYX=             76.0271 YYYZ=              4.7377 ZZZX=             -4.2323
 ZZZY=             -0.4164 XXYY=           -612.0589 XXZZ=           -457.4057 YYZZ=           -251.2880
 XXYZ=              6.7864 YYXZ=             -6.0324 ZZXY=             13.5494
 N-N= 9.223850677394D+02 E-N=-3.407219671124D+03  KE= 6.660368145476D+02
 Breneman (CHELPG) radii used.
 Read replacement radii for each type of atom:
 Atom Element Radius
    1     6    1.50
    2     6    1.50
    3     8    1.70
    4     6    1.50
    5     8    1.70
    6     6    1.50
    7     6    1.50
    8     7    1.70
    9     6    1.50
   10     6    1.50
   11     6    1.50
   12     8    1.70
   13     6    1.50
   14     6    1.50
   15     1    1.45
   16     1    1.45
   17     1    1.45
   18     1    1.45
   19     1    1.45
   20     1    1.45
   21     1    1.45
   22     1    1.45
   23     1    1.45
   24     1    1.45
   25     1    1.45
   26     1    1.45
   27     1    1.45
 Generate Potential Derived Charges using the Breneman model, NDens= 1.
 Grid spacing= 0.300 Box extension= 2.800
 NStep X,Y,Z=   51     41     31   Total possible points=       64821
 Number of Points to Fit=   16177

 **********************************************************************

            Electrostatic Properties Using The SCF Density.

 **********************************************************************

       Atomic Center    1 is at  -3.752719 -0.158117  0.570690
       Atomic Center    2 is at  -3.003300 -1.295517 -0.094220
       Atomic Center    3 is at  -1.606470 -1.243728  0.205100
       Atomic Center    4 is at  -0.845239 -0.441689 -0.546930
       Atomic Center    5 is at  -1.285869  0.237011 -1.442610
       Atomic Center    6 is at   0.591510 -0.535310 -0.170210
       Atomic Center    7 is at   1.090499 -1.800530  0.195250
       Atomic Center    8 is at   2.362529 -2.087191  0.412150
       Atomic Center    9 is at   3.233590 -1.081992  0.276510
       Atomic Center   10 is at   2.868441  0.213038 -0.043490
       Atomic Center   11 is at   1.515951  0.528359 -0.259220
       Atomic Center   12 is at   1.277742  1.815789 -0.516370
       Atomic Center   13 is at   0.070073  2.508370 -0.207740
       Atomic Center   14 is at  -0.380537  2.325291  1.230040
       Atomic Center   15 is at  -3.425439  0.809783  0.165930
       Atomic Center   16 is at  -3.588269 -0.165037  1.658060
       Atomic Center   17 is at  -4.831659 -0.260396  0.383450
       Atomic Center   18 is at  -3.335461 -2.269857  0.287730
       Atomic Center   19 is at  -3.139550 -1.272187 -1.184990
       Atomic Center   20 is at   0.376619 -2.624240  0.291630
       Atomic Center   21 is at   4.288000 -1.321803  0.450930
       Atomic Center   22 is at   3.604692  1.014458 -0.112380
       Atomic Center   23 is at  -0.716377  2.223011 -0.917930
       Atomic Center   24 is at   0.329534  3.560450 -0.386190
       Atomic Center   25 is at  -0.702578  1.296911  1.449620
       Atomic Center   26 is at  -1.236277  2.987961  1.425640
       Atomic Center   27 is at   0.426223  2.587290  1.930430
   16177 points will be used for fitting atomic charges
 Fitting point charges to electrostatic potential
 Charges from ESP fit, RMS=   0.00296 RRMS=   0.22570:
 ESP charges:
               1
     1  C   -0.266209
     2  C    0.332304
     3  O   -0.417414
     4  C    0.748649
     5  O   -0.505035
     6  C   -0.568651
     7  C    0.481775
     8  N   -0.659625
     9  C    0.425476
    10  C   -0.510012
    11  C    0.685491
    12  O   -0.457354
    13  C    0.293419
    14  C   -0.191498
    15  H    0.093673
    16  H    0.075181
    17  H    0.058879
    18  H    0.014132
    19  H   -0.012934
    20  H    0.010056
    21  H    0.031039
    22  H    0.167030
    23  H    0.001179
    24  H    0.028928
    25  H    0.034630
    26  H    0.050408
    27  H    0.056485
 Sum of ESP charges =   0.00000
 ESP charges with hydrogens summed into heavy atoms:
               1
     1  C   -0.038476
     2  C    0.333502
     3  O   -0.417414
     4  C    0.748649
     5  O   -0.505035
     6  C   -0.568651
     7  C    0.491831
     8  N   -0.659625
     9  C    0.456515
    10  C   -0.342982
    11  C    0.685491
    12  O   -0.457354
    13  C    0.323526
    14  C   -0.049975
 Charge=   0.00000 Dipole=    -2.0013     1.5818     1.2980 Tot=     2.8622
 -----------------------------------------------------------------

              Electrostatic Properties (Atomic Units)

 -----------------------------------------------------------------
    Center     Electric         -------- Electric Field --------
               Potential          X             Y             Z
 -----------------------------------------------------------------
    1 Atom    -14.764680
    2 Atom    -14.702366
    3 Atom    -22.306396
    4 Atom    -14.630596
    5 Atom    -22.372960
    6 Atom    -14.743308
    7 Atom    -14.727644
    8 Atom    -18.403209
    9 Atom    -14.730871
   10 Atom    -14.763702
   11 Atom    -14.675661
   12 Atom    -22.314714
   13 Atom    -14.708770
   14 Atom    -14.763808
   15 Atom     -1.110426
   16 Atom     -1.108983
   17 Atom     -1.102869
   18 Atom     -1.103048
   19 Atom     -1.105018
   20 Atom     -1.102385
   21 Atom     -1.102147
   22 Atom     -1.090973
   23 Atom     -1.116574
   24 Atom     -1.110833
   25 Atom     -1.107354
   26 Atom     -1.101990
   27 Atom     -1.109016
 -----------------------------------------------------------------
 Unable to Open any file for archive entry.
 1\1\GINC-NOTCH280\SP\RwB97XD\def2TZVP\C10H13N1O3\U6053008\14-Jul-2024\
 0\\#N Guess=Read Geom=Check Integral(Ultrafine) Density Pop=(ChelpG,Re
 adRadii) NMR wB97XD def2TZVP\\12326824_14\\0,1\C,0,3.75272,-0.15812,-0
 .57069\C,0,3.0033,-1.29552,0.09422\O,0,1.60647,-1.24373,-0.2051\C,0,0.
 84524,-0.44169,0.54693\O,0,1.28587,0.23701,1.44261\C,0,-0.59151,-0.535
 31,0.17021\C,0,-1.0905,-1.80053,-0.19525\N,0,-2.36253,-2.08719,-0.4121
 5\C,0,-3.23359,-1.08199,-0.27651\C,0,-2.86844,0.21304,0.04349\C,0,-1.5
 1595,0.52836,0.25922\O,0,-1.27774,1.81579,0.51637\C,0,-0.07007,2.50837
 ,0.20774\C,0,0.38054,2.32529,-1.23004\H,0,3.42544,0.80978,-0.16593\H,0
 ,3.58827,-0.16504,-1.65806\H,0,4.83166,-0.2604,-0.38345\H,0,3.33546,-2
 .26986,-0.28773\H,0,3.13955,-1.27219,1.18499\H,0,-0.37662,-2.62424,-0.
 29163\H,0,-4.288,-1.3218,-0.45093\H,0,-3.60469,1.01446,0.11238\H,0,0.7
 1638,2.22301,0.91793\H,0,-0.32953,3.56045,0.38619\H,0,0.70258,1.29691,
 -1.44962\H,0,1.23628,2.98796,-1.42564\H,0,-0.42622,2.58729,-1.93043\\V
 ersion=ES64L-G16RevC.01\State=1-A\HF=-669.3501714\RMSD=1.777e-09\Dipol
 e=0.8181236,0.6503867,-0.5387043\Quadrupole=5.850602,-0.8497593,-5.000
 8426,-5.1488673,-1.4923157,-2.8229688\PG=C01 [X(C10H13N1O3)]\\@
 The archive entry for this job was punched.


 GOOD SENSE ABOUT TRIVIALITIES IS BETTER THAN NONSENSE
 ABOUT THINGS THAT MATTER

                                       -- MAX BEERBOHM
 Job cpu time:       0 days  1 hours  7 minutes  9.8 seconds.
 Elapsed time:       0 days  0 hours  4 minutes 24.0 seconds.
 File lengths (MBytes):  RWF=    165 Int=      0 D2E=      0 Chk=     25 Scr=      2
 Normal termination of Gaussian 16 at Sun Jul 14 10:15:31 2024.
