 Entering Gaussian System, Link 0=g16
 Input=12326192_3.com
 Output=12326192_3.log
 Initial command:
 /uufs/chpc.utah.edu/sys/installdir/gaussian16/C01/AVX/g16/l1.exe "/scratch/general/vast/u6053008/1287107-notchpeak.peaks/Gau-3649329.inp" -scrdir="/scratch/general/vast/u6053008/1287107-notchpeak.peaks/"
 Entering Link 1 = /uufs/chpc.utah.edu/sys/installdir/gaussian16/C01/AVX/g16/l1.exe PID=   3649333.
  
 Copyright (c) 1988-2019, Gaussian, Inc.  All Rights Reserved.
  
 This is part of the Gaussian(R) 16 program.  It is based on
 the Gaussian(R) 09 system (copyright 2009, Gaussian, Inc.),
 the Gaussian(R) 03 system (copyright 2003, Gaussian, Inc.),
 the Gaussian(R) 98 system (copyright 1998, Gaussian, Inc.),
 the Gaussian(R) 94 system (copyright 1995, Gaussian, Inc.),
 the Gaussian 92(TM) system (copyright 1992, Gaussian, Inc.),
 the Gaussian 90(TM) system (copyright 1990, Gaussian, Inc.),
 the Gaussian 88(TM) system (copyright 1988, Gaussian, Inc.),
 the Gaussian 86(TM) system (copyright 1986, Carnegie Mellon
 University), and the Gaussian 82(TM) system (copyright 1983,
 Carnegie Mellon University). Gaussian is a federally registered
 trademark of Gaussian, Inc.
  
 This software contains proprietary and confidential information,
 including trade secrets, belonging to Gaussian, Inc.
  
 This software is provided under written license and may be
 used, copied, transmitted, or stored only in accord with that
 written license.
  
 The following legend is applicable only to US Government
 contracts under FAR:
  
                    RESTRICTED RIGHTS LEGEND
  
 Use, reproduction and disclosure by the US Government is
 subject to restrictions as set forth in subparagraphs (a)
 and (c) of the Commercial Computer Software - Restricted
 Rights clause in FAR 52.227-19.
  
 Gaussian, Inc.
 340 Quinnipiac St., Bldg. 40, Wallingford CT 06492
  
  
 ---------------------------------------------------------------
 Warning -- This program may not be used in any manner that
 competes with the business of Gaussian, Inc. or will provide
 assistance to any competitor of Gaussian, Inc.  The licensee
 of this program is prohibited from giving any competitor of
 Gaussian, Inc. access to this program.  By using this program,
 the user acknowledges that Gaussian, Inc. is engaged in the
 business of creating and licensing software in the field of
 computational chemistry and represents and warrants to the
 licensee that it is not a competitor of Gaussian, Inc. and that
 it will not use this program in any manner prohibited above.
 ---------------------------------------------------------------
  

 Cite this work as:
 Gaussian 16, Revision C.01,
 M. J. Frisch, G. W. Trucks, H. B. Schlegel, G. E. Scuseria, 
 M. A. Robb, J. R. Cheeseman, G. Scalmani, V. Barone, 
 G. A. Petersson, H. Nakatsuji, X. Li, M. Caricato, A. V. Marenich, 
 J. Bloino, B. G. Janesko, R. Gomperts, B. Mennucci, H. P. Hratchian, 
 J. V. Ortiz, A. F. Izmaylov, J. L. Sonnenberg, D. Williams-Young, 
 F. Ding, F. Lipparini, F. Egidi, J. Goings, B. Peng, A. Petrone, 
 T. Henderson, D. Ranasinghe, V. G. Zakrzewski, J. Gao, N. Rega, 
 G. Zheng, W. Liang, M. Hada, M. Ehara, K. Toyota, R. Fukuda, 
 J. Hasegawa, M. Ishida, T. Nakajima, Y. Honda, O. Kitao, H. Nakai, 
 T. Vreven, K. Throssell, J. A. Montgomery, Jr., J. E. Peralta, 
 F. Ogliaro, M. J. Bearpark, J. J. Heyd, E. N. Brothers, K. N. Kudin, 
 V. N. Staroverov, T. A. Keith, R. Kobayashi, J. Normand, 
 K. Raghavachari, A. P. Rendell, J. C. Burant, S. S. Iyengar, 
 J. Tomasi, M. Cossi, J. M. Millam, M. Klene, C. Adamo, R. Cammi, 
 J. W. Ochterski, R. L. Martin, K. Morokuma, O. Farkas, 
 J. B. Foresman, and D. J. Fox, Gaussian, Inc., Wallingford CT, 2019.
 
 ******************************************
 Gaussian 16:  ES64L-G16RevC.01  3-Jul-2019
                12-Jul-2024 
 ******************************************
 %NProcShared=16
 Will use up to   16 processors via shared memory.
 %Mem=32GB
 %chk=12326192_3.chk
 ------------------------------------------------------
 #N OPT FREQ=NORAMAN Integral(Ultrafine) wB97XD def2SVP
 ------------------------------------------------------
 1/18=20,19=15,26=4,38=1/1,3;
 2/9=110,12=2,17=6,18=5,40=1/2;
 3/5=43,7=101,11=2,25=1,30=1,71=1,74=-58,75=-5/1,2,3;
 4//1;
 5/5=2,38=5/2;
 6/7=2,8=2,9=2,10=2,28=1/1;
 7//1,2,3,16;
 1/18=20,19=15,26=4/3(2);
 2/9=110/2;
 99//99;
 2/9=110/2;
 3/5=43,7=101,11=2,25=1,30=1,71=1,74=-58,75=-5/1,2,3;
 4/5=5,16=3,69=1/1;
 5/5=2,38=5/2;
 7//1,2,3,16;
 1/18=20,19=15,26=4/3(-5);
 2/9=110/2;
 6/7=2,8=2,9=2,10=2,19=2,28=1/1;
 99/9=1/99;
 ----------
 12326192_3
 ----------
 Symbolic Z-matrix:
 Charge =  0 Multiplicity = 1
 C                    -3.67478   0.07886   0.89347 
 C                    -3.01749   0.27521  -0.45647 
 O                    -1.59781   0.45315  -0.33087 
 C                    -0.82931  -0.65589  -0.22904 
 O                    -1.28678  -1.76577  -0.26071 
 C                     0.61662  -0.3361   -0.08034 
 C                     1.51009  -1.41304   0.02072 
 C                     2.86528  -1.16866   0.16247 
 N                     3.3698    0.07039   0.20907 
 C                     2.54453   1.09413   0.11616 
 C                     1.14669   0.96676  -0.03154 
 O                     0.43554   2.0915   -0.11237 
 H                    -3.45434   0.92107   1.56522 
 H                    -4.76533   0.0148    0.76721 
 H                    -3.32882  -0.85285   1.36152 
 H                    -3.20265  -0.58141  -1.11881 
 H                    -3.36811   1.19134  -0.94945 
 H                     1.11298  -2.4287   -0.0151 
 H                     3.57736  -1.99502   0.24237 
 H                     2.96376   2.10532   0.15514 
 H                    -0.50084   1.85407  -0.21256 
 

 GradGradGradGradGradGradGradGradGradGradGradGradGradGradGradGradGradGrad
 Berny optimization.
 Initialization pass.
                           ----------------------------
                           !    Initial Parameters    !
                           ! (Angstroms and Degrees)  !
 --------------------------                            --------------------------
 ! Name  Definition              Value          Derivative Info.                !
 --------------------------------------------------------------------------------
 ! R1    R(1,2)                  1.5142         estimate D2E/DX2                !
 ! R2    R(1,13)                 1.0996         estimate D2E/DX2                !
 ! R3    R(1,14)                 1.0997         estimate D2E/DX2                !
 ! R4    R(1,15)                 1.0986         estimate D2E/DX2                !
 ! R5    R(2,3)                  1.4363         estimate D2E/DX2                !
 ! R6    R(2,16)                 1.0985         estimate D2E/DX2                !
 ! R7    R(2,17)                 1.0978         estimate D2E/DX2                !
 ! R8    R(3,4)                  1.3531         estimate D2E/DX2                !
 ! R9    R(4,5)                  1.2009         estimate D2E/DX2                !
 ! R10   R(4,6)                  1.4883         estimate D2E/DX2                !
 ! R11   R(6,7)                  1.403          estimate D2E/DX2                !
 ! R12   R(6,11)                 1.4074         estimate D2E/DX2                !
 ! R13   R(7,8)                  1.3843         estimate D2E/DX2                !
 ! R14   R(7,18)                 1.0911         estimate D2E/DX2                !
 ! R15   R(8,9)                  1.3386         estimate D2E/DX2                !
 ! R16   R(8,19)                 1.0938         estimate D2E/DX2                !
 ! R17   R(9,10)                 1.3182         estimate D2E/DX2                !
 ! R18   R(10,11)                1.4114         estimate D2E/DX2                !
 ! R19   R(10,20)                1.0953         estimate D2E/DX2                !
 ! R20   R(11,12)                1.3332         estimate D2E/DX2                !
 ! R21   R(12,21)                0.9712         estimate D2E/DX2                !
 ! A1    A(2,1,13)             110.9944         estimate D2E/DX2                !
 ! A2    A(2,1,14)             109.6126         estimate D2E/DX2                !
 ! A3    A(2,1,15)             110.6773         estimate D2E/DX2                !
 ! A4    A(13,1,14)            108.2736         estimate D2E/DX2                !
 ! A5    A(13,1,15)            109.0368         estimate D2E/DX2                !
 ! A6    A(14,1,15)            108.1684         estimate D2E/DX2                !
 ! A7    A(1,2,3)              111.5405         estimate D2E/DX2                !
 ! A8    A(1,2,16)             111.2989         estimate D2E/DX2                !
 ! A9    A(1,2,17)             111.7093         estimate D2E/DX2                !
 ! A10   A(3,2,16)             108.4172         estimate D2E/DX2                !
 ! A11   A(3,2,17)             104.57           estimate D2E/DX2                !
 ! A12   A(16,2,17)            109.0348         estimate D2E/DX2                !
 ! A13   A(2,3,4)              117.8021         estimate D2E/DX2                !
 ! A14   A(3,4,5)              122.6269         estimate D2E/DX2                !
 ! A15   A(3,4,6)              112.5309         estimate D2E/DX2                !
 ! A16   A(5,4,6)              124.842          estimate D2E/DX2                !
 ! A17   A(4,6,7)              117.4497         estimate D2E/DX2                !
 ! A18   A(4,6,11)             124.6298         estimate D2E/DX2                !
 ! A19   A(7,6,11)             117.9204         estimate D2E/DX2                !
 ! A20   A(6,7,8)              119.6901         estimate D2E/DX2                !
 ! A21   A(6,7,18)             118.7108         estimate D2E/DX2                !
 ! A22   A(8,7,18)             121.5992         estimate D2E/DX2                !
 ! A23   A(7,8,9)              122.4065         estimate D2E/DX2                !
 ! A24   A(7,8,19)             120.7599         estimate D2E/DX2                !
 ! A25   A(9,8,19)             116.8336         estimate D2E/DX2                !
 ! A26   A(8,9,10)             118.7128         estimate D2E/DX2                !
 ! A27   A(9,10,11)            123.8711         estimate D2E/DX2                !
 ! A28   A(9,10,20)            118.3473         estimate D2E/DX2                !
 ! A29   A(11,10,20)           117.7816         estimate D2E/DX2                !
 ! A30   A(6,11,10)            117.399          estimate D2E/DX2                !
 ! A31   A(6,11,12)            125.3091         estimate D2E/DX2                !
 ! A32   A(10,11,12)           117.2919         estimate D2E/DX2                !
 ! A33   A(11,12,21)           108.3193         estimate D2E/DX2                !
 ! D1    D(13,1,2,3)            56.6031         estimate D2E/DX2                !
 ! D2    D(13,1,2,16)          177.831          estimate D2E/DX2                !
 ! D3    D(13,1,2,17)          -60.0287         estimate D2E/DX2                !
 ! D4    D(14,1,2,3)           176.1594         estimate D2E/DX2                !
 ! D5    D(14,1,2,16)          -62.6126         estimate D2E/DX2                !
 ! D6    D(14,1,2,17)           59.5277         estimate D2E/DX2                !
 ! D7    D(15,1,2,3)           -64.6123         estimate D2E/DX2                !
 ! D8    D(15,1,2,16)           56.6157         estimate D2E/DX2                !
 ! D9    D(15,1,2,17)          178.756          estimate D2E/DX2                !
 ! D10   D(1,2,3,4)             83.1532         estimate D2E/DX2                !
 ! D11   D(16,2,3,4)           -39.7368         estimate D2E/DX2                !
 ! D12   D(17,2,3,4)          -155.9507         estimate D2E/DX2                !
 ! D13   D(2,3,4,5)              1.17           estimate D2E/DX2                !
 ! D14   D(2,3,4,6)           -178.9766         estimate D2E/DX2                !
 ! D15   D(3,4,6,7)           -179.3804         estimate D2E/DX2                !
 ! D16   D(3,4,6,11)             0.7585         estimate D2E/DX2                !
 ! D17   D(5,4,6,7)              0.4692         estimate D2E/DX2                !
 ! D18   D(5,4,6,11)          -179.3919         estimate D2E/DX2                !
 ! D19   D(4,6,7,8)           -179.906          estimate D2E/DX2                !
 ! D20   D(4,6,7,18)             0.0989         estimate D2E/DX2                !
 ! D21   D(11,6,7,8)            -0.0354         estimate D2E/DX2                !
 ! D22   D(11,6,7,18)          179.9695         estimate D2E/DX2                !
 ! D23   D(4,6,11,10)          179.8604         estimate D2E/DX2                !
 ! D24   D(4,6,11,12)           -0.0795         estimate D2E/DX2                !
 ! D25   D(7,6,11,10)           -0.0001         estimate D2E/DX2                !
 ! D26   D(7,6,11,12)         -179.94           estimate D2E/DX2                !
 ! D27   D(6,7,8,9)              0.0444         estimate D2E/DX2                !
 ! D28   D(6,7,8,19)          -179.9729         estimate D2E/DX2                !
 ! D29   D(18,7,8,9)          -179.9606         estimate D2E/DX2                !
 ! D30   D(18,7,8,19)            0.0221         estimate D2E/DX2                !
 ! D31   D(7,8,9,10)            -0.0141         estimate D2E/DX2                !
 ! D32   D(19,8,9,10)         -179.9974         estimate D2E/DX2                !
 ! D33   D(8,9,10,11)           -0.0248         estimate D2E/DX2                !
 ! D34   D(8,9,10,20)          179.9907         estimate D2E/DX2                !
 ! D35   D(9,10,11,6)            0.0315         estimate D2E/DX2                !
 ! D36   D(9,10,11,12)         179.9763         estimate D2E/DX2                !
 ! D37   D(20,10,11,6)        -179.9839         estimate D2E/DX2                !
 ! D38   D(20,10,11,12)         -0.0391         estimate D2E/DX2                !
 ! D39   D(6,11,12,21)          -0.1822         estimate D2E/DX2                !
 ! D40   D(10,11,12,21)        179.8779         estimate D2E/DX2                !
 --------------------------------------------------------------------------------
 Trust Radius=3.00D-01 FncErr=1.00D-07 GrdErr=1.00D-06 EigMax=2.50D+02 EigMin=1.00D-04
 Number of steps in this run=    104 maximum allowed number of steps=    126.
 GradGradGradGradGradGradGradGradGradGradGradGradGradGradGradGradGradGrad

                          Input orientation:                          
 ---------------------------------------------------------------------
 Center     Atomic      Atomic             Coordinates (Angstroms)
 Number     Number       Type             X           Y           Z
 ---------------------------------------------------------------------
      1          6           0       -3.674780    0.078860    0.893470
      2          6           0       -3.017490    0.275210   -0.456470
      3          8           0       -1.597810    0.453150   -0.330870
      4          6           0       -0.829310   -0.655890   -0.229040
      5          8           0       -1.286780   -1.765770   -0.260710
      6          6           0        0.616620   -0.336100   -0.080340
      7          6           0        1.510090   -1.413040    0.020720
      8          6           0        2.865280   -1.168660    0.162470
      9          7           0        3.369800    0.070390    0.209070
     10          6           0        2.544530    1.094130    0.116160
     11          6           0        1.146690    0.966760   -0.031540
     12          8           0        0.435540    2.091500   -0.112370
     13          1           0       -3.454340    0.921070    1.565220
     14          1           0       -4.765330    0.014800    0.767210
     15          1           0       -3.328820   -0.852850    1.361520
     16          1           0       -3.202650   -0.581410   -1.118810
     17          1           0       -3.368110    1.191340   -0.949450
     18          1           0        1.112980   -2.428700   -0.015100
     19          1           0        3.577360   -1.995020    0.242370
     20          1           0        2.963760    2.105320    0.155140
     21          1           0       -0.500840    1.854070   -0.212560
 ---------------------------------------------------------------------
                    Distance matrix (angstroms):
                    1          2          3          4          5
     1  C    0.000000
     2  C    1.514240   0.000000
     3  O    2.439858   1.436290   0.000000
     4  C    3.145884   2.388892   1.353119   0.000000
     5  O    3.230687   2.683147   2.241711   1.200881   0.000000
     6  C    4.420024   3.704312   2.364187   1.488318   2.387346
     7  C    5.465376   4.855603   3.642159   2.471528   2.833038
     8  C    6.697989   6.088910   4.774183   3.750494   4.216067
     9  N    7.077753   6.425136   5.011506   4.283917   5.027516
    10  C    6.349394   5.651071   4.215409   3.816350   4.795831
    11  C    4.989046   4.242547   2.808144   2.564483   3.666199
    12  O    4.685847   3.916724   2.620390   3.026815   4.226928
    13  H    1.099618   2.166842   2.694589   3.549219   3.905310
    14  H    1.099702   2.149454   3.380993   4.115166   4.040713
    15  H    1.098564   2.162067   2.750675   2.969213   2.763147
    16  H    2.169823   1.098534   2.065593   2.535741   2.410312
    17  H    2.174399   1.097842   2.015323   3.221297   3.681141
    18  H    5.480511   4.956483   3.969024   2.638393   2.501729
    19  H    7.570895   7.009591   5.753653   4.629712   4.895457
    20  H    6.980106   6.284801   4.875838   4.707362   5.764144
    21  H    3.801127   2.980909   1.783232   2.531415   3.704492
                    6          7          8          9         10
     6  C    0.000000
     7  C    1.402962   0.000000
     8  C    2.410101   1.384325   0.000000
     9  N    2.798034   2.386328   1.338640   0.000000
    10  C    2.408528   2.713867   2.285879   1.318236   0.000000
    11  C    1.407409   2.407953   2.747947   2.409064   1.411381
    12  O    2.434555   3.667993   4.075269   3.577442   2.344101
    13  H    4.567391   5.699045   6.802373   7.009400   6.173829
    14  H    5.459566   6.478956   7.745482   8.154444   7.417740
    15  H    4.232315   5.052386   6.316988   6.859448   6.311727
    16  H    3.965529   4.919355   6.229472   6.736854   6.112501
    17  H    4.355054   5.614344   6.757301   6.928068   6.008684
    18  H    2.151652   1.091121   2.165592   3.374750   3.804852
    19  H    3.409126   2.159036   1.093761   2.076080   3.259680
    20  H    3.394856   3.809210   3.275469   2.075745   1.095344
    21  H    2.462325   3.843471   4.539637   4.282656   3.155922
                   11         12         13         14         15
    11  C    0.000000
    12  O    1.333157   0.000000
    13  H    4.870442   4.394927   0.000000
    14  H    6.041209   5.668809   1.782369   0.000000
    15  H    5.028100   5.001195   1.789984   1.780332   0.000000
    16  H    4.742968   4.625343   3.086229   2.520815   2.498327
    17  H    4.612636   3.997342   2.530622   2.506669   3.085586
    18  H    3.395667   4.571717   5.880373   6.413831   4.909987
    19  H    3.841266   5.166867   7.726469   8.597401   7.088891
    20  H    2.152420   2.542371   6.677034   8.030177   7.057102
    21  H    1.880011   0.971194   3.571296   4.746445   4.219314
                   16         17         18         19         20
    16  H    0.000000
    17  H    1.788492   0.000000
    18  H    4.822377   5.835912   0.000000
    19  H    7.058303   7.733879   2.515460   0.000000
    20  H    6.845880   6.492153   4.900174   4.146915   0.000000
    21  H    3.748684   3.033720   4.580996   5.626204   3.493105
                   21
    21  H    0.000000
 Stoichiometry    C8H9NO3
 Framework group  C1[X(C8H9NO3)]
 Deg. of freedom    57
 Full point group                 C1      NOp   1
 Largest Abelian subgroup         C1      NOp   1
 Largest concise Abelian subgroup C1      NOp   1
                         Standard orientation:                         
 ---------------------------------------------------------------------
 Center     Atomic      Atomic             Coordinates (Angstroms)
 Number     Number       Type             X           Y           Z
 ---------------------------------------------------------------------
      1          6           0       -3.674780    0.078864    0.893470
      2          6           0       -3.017490    0.275213   -0.456470
      3          8           0       -1.597809    0.453152   -0.330870
      4          6           0       -0.829311   -0.655889   -0.229040
      5          8           0       -1.286782   -1.765769   -0.260710
      6          6           0        0.616620   -0.336101   -0.080340
      7          6           0        1.510089   -1.413042    0.020720
      8          6           0        2.865279   -1.168663    0.162470
      9          7           0        3.369800    0.070386    0.209070
     10          6           0        2.544531    1.094127    0.116160
     11          6           0        1.146691    0.966759   -0.031540
     12          8           0        0.435542    2.091499   -0.112370
     13          1           0       -3.454339    0.921074    1.565220
     14          1           0       -4.765330    0.014805    0.767210
     15          1           0       -3.328821   -0.852846    1.361520
     16          1           0       -3.202651   -0.581407   -1.118810
     17          1           0       -3.368109    1.191344   -0.949450
     18          1           0        1.112977   -2.428701   -0.015100
     19          1           0        3.577358   -1.995024    0.242370
     20          1           0        2.963762    2.105317    0.155140
     21          1           0       -0.500838    1.854070   -0.212560
 ---------------------------------------------------------------------
 Rotational constants (GHZ):           2.0892290           0.5963420           0.4854046
 Standard basis: def2SVP (5D, 7F)
 There are   225 symmetry adapted cartesian basis functions of A   symmetry.
 There are   213 symmetry adapted basis functions of A   symmetry.
   213 basis functions,   363 primitive gaussians,   225 cartesian basis functions
    44 alpha electrons       44 beta electrons
       nuclear repulsion energy       692.8992670373 Hartrees.
 NAtoms=   21 NActive=   21 NUniq=   21 SFac= 1.00D+00 NAtFMM=   60 NAOKFM=F Big=F
 Integral buffers will be    131072 words long.
 Raffenetti 2 integral format.
 Two-electron integral symmetry is turned on.
 Nuclear repulsion after empirical dispersion term =      692.8887843300 Hartrees.
 One-electron integrals computed using PRISM.
   1 Symmetry operations used in ECPInt.
 ECPInt:  NShTT=    4950 NPrTT=   18138 LenC2=    4751 LenP2D=   12954.
 LDataN:  DoStor=T MaxTD1= 4 Len=   56
 NBasis=   213 RedAO= T EigKep=  5.56D-04  NBF=   213
 NBsUse=   213 1.00D-06 EigRej= -1.00D+00 NBFU=   213
 ExpMin= 1.22D-01 ExpMax= 2.27D+03 ExpMxC= 3.41D+02 IAcc=3 IRadAn=         5 AccDes= 0.00D+00
 Harris functional with IExCor= 4639 and IRadAn=       5 diagonalized for initial guess.
 HarFok:  IExCor= 4639 AccDes= 0.00D+00 IRadAn=         5 IDoV= 1 UseB2=F ITyADJ=14
 ICtDFT=  3500011 ScaDFX=  1.000000  1.000000  1.000000  1.000000
 FoFCou: FMM=F IPFlag=           0 FMFlag=      100000 FMFlg1=           0
         NFxFlg=           0 DoJE=T BraDBF=F KetDBF=T FulRan=T
         wScrn=  0.000000 ICntrl=       500 IOpCl=  0 I1Cent=   200000004 NGrid=           0
         NMat0=    1 NMatS0=      1 NMatT0=    0 NMatD0=    1 NMtDS0=    0 NMtDT0=    0
 Petite list used in FoFCou.
 Requested convergence on RMS density matrix=1.00D-08 within 128 cycles.
 Requested convergence on MAX density matrix=1.00D-06.
 Requested convergence on             energy=1.00D-06.
 No special actions if energy rises.
 Integral accuracy reduced to 1.0D-05 until final iterations.
 Initial convergence to 1.0D-05 achieved.  Increase integral accuracy.
 SCF Done:  E(RwB97XD) =  -590.086257604     A.U. after   16 cycles
            NFock= 16  Conv=0.62D-08     -V/T= 2.0094

 **********************************************************************

            Population analysis using the SCF Density.

 **********************************************************************

 Orbital symmetries:
       Occupied  (A) (A) (A) (A) (A) (A) (A) (A) (A) (A) (A) (A)
                 (A) (A) (A) (A) (A) (A) (A) (A) (A) (A) (A) (A)
                 (A) (A) (A) (A) (A) (A) (A) (A) (A) (A) (A) (A)
                 (A) (A) (A) (A) (A) (A) (A) (A)
       Virtual   (A) (A) (A) (A) (A) (A) (A) (A) (A) (A) (A) (A)
                 (A) (A) (A) (A) (A) (A) (A) (A) (A) (A) (A) (A)
                 (A) (A) (A) (A) (A) (A) (A) (A) (A) (A) (A) (A)
                 (A) (A) (A) (A) (A) (A) (A) (A) (A) (A) (A) (A)
                 (A) (A) (A) (A) (A) (A) (A) (A) (A) (A) (A) (A)
                 (A) (A) (A) (A) (A) (A) (A) (A) (A) (A) (A) (A)
                 (A) (A) (A) (A) (A) (A) (A) (A) (A) (A) (A) (A)
                 (A) (A) (A) (A) (A) (A) (A) (A) (A) (A) (A) (A)
                 (A) (A) (A) (A) (A) (A) (A) (A) (A) (A) (A) (A)
                 (A) (A) (A) (A) (A) (A) (A) (A) (A) (A) (A) (A)
                 (A) (A) (A) (A) (A) (A) (A) (A) (A) (A) (A) (A)
                 (A) (A) (A) (A) (A) (A) (A) (A) (A) (A) (A) (A)
                 (A) (A) (A) (A) (A) (A) (A) (A) (A) (A) (A) (A)
                 (A) (A) (A) (A) (A) (A) (A) (A) (A) (A) (A) (A)
                 (A)
 The electronic state is 1-A.
 Alpha  occ. eigenvalues --  -19.33337 -19.29650 -19.26467 -14.44982 -10.45300
 Alpha  occ. eigenvalues --  -10.38639 -10.37832 -10.33580 -10.33369 -10.33155
 Alpha  occ. eigenvalues --  -10.32159 -10.31261  -1.22851  -1.17336  -1.13330
 Alpha  occ. eigenvalues --   -1.04505  -0.92280  -0.88345  -0.85681  -0.79417
 Alpha  occ. eigenvalues --   -0.74696  -0.72504  -0.68679  -0.65664  -0.63121
 Alpha  occ. eigenvalues --   -0.60298  -0.59295  -0.57592  -0.56702  -0.53365
 Alpha  occ. eigenvalues --   -0.53211  -0.53081  -0.51525  -0.50131  -0.49081
 Alpha  occ. eigenvalues --   -0.47343  -0.46415  -0.45776  -0.44019  -0.41422
 Alpha  occ. eigenvalues --   -0.38871  -0.37340  -0.34322  -0.31808
 Alpha virt. eigenvalues --   -0.00089   0.05887   0.11509   0.13205   0.16277
 Alpha virt. eigenvalues --    0.16548   0.17928   0.18980   0.19844   0.20073
 Alpha virt. eigenvalues --    0.22073   0.22379   0.23824   0.24297   0.27180
 Alpha virt. eigenvalues --    0.28380   0.29880   0.32853   0.33453   0.34854
 Alpha virt. eigenvalues --    0.38496   0.41516   0.42705   0.43522   0.46774
 Alpha virt. eigenvalues --    0.48082   0.49151   0.49455   0.50003   0.52145
 Alpha virt. eigenvalues --    0.53364   0.54787   0.56542   0.58058   0.60446
 Alpha virt. eigenvalues --    0.61075   0.61183   0.65345   0.66813   0.67481
 Alpha virt. eigenvalues --    0.67691   0.69243   0.69956   0.71298   0.71567
 Alpha virt. eigenvalues --    0.72797   0.73565   0.74885   0.75152   0.75867
 Alpha virt. eigenvalues --    0.76480   0.77068   0.78224   0.79008   0.81076
 Alpha virt. eigenvalues --    0.83174   0.85137   0.88412   0.89688   0.92946
 Alpha virt. eigenvalues --    0.94652   0.97930   0.98667   0.99663   1.01792
 Alpha virt. eigenvalues --    1.06454   1.09451   1.12189   1.13782   1.16531
 Alpha virt. eigenvalues --    1.17334   1.22582   1.23438   1.24514   1.26071
 Alpha virt. eigenvalues --    1.29807   1.31833   1.33130   1.34276   1.38144
 Alpha virt. eigenvalues --    1.39056   1.40175   1.40909   1.44890   1.46449
 Alpha virt. eigenvalues --    1.49808   1.52568   1.56367   1.56810   1.59885
 Alpha virt. eigenvalues --    1.62624   1.67034   1.68485   1.71430   1.74539
 Alpha virt. eigenvalues --    1.75418   1.77344   1.80922   1.81329   1.82299
 Alpha virt. eigenvalues --    1.84187   1.84525   1.84939   1.86074   1.86325
 Alpha virt. eigenvalues --    1.87907   1.89868   1.91179   1.92734   1.92996
 Alpha virt. eigenvalues --    1.96249   1.96461   1.97888   2.02192   2.02723
 Alpha virt. eigenvalues --    2.04667   2.08928   2.09736   2.13276   2.16555
 Alpha virt. eigenvalues --    2.18767   2.20972   2.26118   2.27144   2.28320
 Alpha virt. eigenvalues --    2.34066   2.35683   2.37891   2.42059   2.43385
 Alpha virt. eigenvalues --    2.46178   2.47074   2.48214   2.51154   2.56209
 Alpha virt. eigenvalues --    2.58862   2.62417   2.64788   2.68191   2.68475
 Alpha virt. eigenvalues --    2.70054   2.71203   2.75448   2.80404   2.80810
 Alpha virt. eigenvalues --    2.83209   2.89192   2.92403   2.93080   2.97778
 Alpha virt. eigenvalues --    2.98487   3.00677   3.02761   3.02818   3.07357
 Alpha virt. eigenvalues --    3.08735   3.09662   3.13733   3.16854   3.26561
 Alpha virt. eigenvalues --    3.27688   3.28348   3.41847   3.50617   3.54351
 Alpha virt. eigenvalues --    3.64313   3.73580   3.77552   3.93598
          Condensed to atoms (all electrons):
               1          2          3          4          5          6
     1  C    4.591634   0.445305  -0.034660  -0.007755  -0.008276  -0.002127
     2  C    0.445305   4.475241   0.222076  -0.025315   0.003730   0.010715
     3  O   -0.034660   0.222076   8.093357   0.354053  -0.080117  -0.130955
     4  C   -0.007755  -0.025315   0.354053   4.533154   0.746597   0.187899
     5  O   -0.008276   0.003730  -0.080117   0.746597   7.634948  -0.126443
     6  C   -0.002127   0.010715  -0.130955   0.187899  -0.126443   5.871499
     7  C    0.000022  -0.000227   0.003213  -0.041749   0.012268   0.394712
     8  C    0.000001   0.000001   0.000004   0.014418   0.001127  -0.017852
     9  N   -0.000000  -0.000000  -0.000001   0.000252  -0.000001  -0.050740
    10  C   -0.000000   0.000014   0.000206   0.003918  -0.000045  -0.080472
    11  C    0.000053  -0.000514   0.004868  -0.061810   0.001853   0.218037
    12  O   -0.000059   0.000227  -0.021137  -0.001871  -0.000011  -0.088495
    13  H    0.390492  -0.021455   0.001118  -0.000206   0.000160  -0.000050
    14  H    0.386589  -0.016917   0.003487   0.000261  -0.000045   0.000031
    15  H    0.393770  -0.014149  -0.005534   0.004123   0.007819   0.000221
    16  H   -0.024978   0.391734  -0.024477  -0.006436   0.015398   0.002335
    17  H   -0.027724   0.394366  -0.023944   0.004897   0.000420   0.000001
    18  H    0.000009  -0.000050   0.000544  -0.015340   0.012920  -0.050715
    19  H    0.000000  -0.000000   0.000000  -0.000311  -0.000014   0.007400
    20  H    0.000000  -0.000001   0.000004  -0.000131   0.000001   0.012987
    21  H   -0.000188  -0.001196   0.038922   0.003185   0.000473  -0.028288
               7          8          9         10         11         12
     1  C    0.000022   0.000001  -0.000000  -0.000000   0.000053  -0.000059
     2  C   -0.000227   0.000001  -0.000000   0.000014  -0.000514   0.000227
     3  O    0.003213   0.000004  -0.000001   0.000206   0.004868  -0.021137
     4  C   -0.041749   0.014418   0.000252   0.003918  -0.061810  -0.001871
     5  O    0.012268   0.001127  -0.000001  -0.000045   0.001853  -0.000011
     6  C    0.394712  -0.017852  -0.050740  -0.080472   0.218037  -0.088495
     7  C    4.921015   0.451799  -0.035615  -0.036097  -0.004325   0.003079
     8  C    0.451799   4.770047   0.501199  -0.074606  -0.061660   0.000284
     9  N   -0.035615   0.501199   6.240406   0.548511  -0.025191   0.001795
    10  C   -0.036097  -0.074606   0.548511   4.816671   0.466901  -0.062570
    11  C   -0.004325  -0.061660  -0.025191   0.466901   4.955448   0.458851
    12  O    0.003079   0.000284   0.001795  -0.062570   0.458851   7.557750
    13  H   -0.000006   0.000000   0.000000   0.000001   0.000030  -0.000002
    14  H   -0.000000   0.000000   0.000000  -0.000000   0.000000   0.000001
    15  H    0.000014  -0.000001   0.000000   0.000001  -0.000078   0.000006
    16  H   -0.000023  -0.000001   0.000000   0.000002  -0.000042  -0.000048
    17  H    0.000014  -0.000000  -0.000000  -0.000001  -0.000101   0.000189
    18  H    0.420763  -0.040157   0.005441  -0.000036   0.011408  -0.000029
    19  H   -0.066290   0.426976  -0.038385   0.003354   0.001546   0.000010
    20  H    0.000147   0.004458  -0.035756   0.412899  -0.066209   0.004547
    21  H   -0.000300  -0.000060  -0.000168   0.006083  -0.007148   0.342900
              13         14         15         16         17         18
     1  C    0.390492   0.386589   0.393770  -0.024978  -0.027724   0.000009
     2  C   -0.021455  -0.016917  -0.014149   0.391734   0.394366  -0.000050
     3  O    0.001118   0.003487  -0.005534  -0.024477  -0.023944   0.000544
     4  C   -0.000206   0.000261   0.004123  -0.006436   0.004897  -0.015340
     5  O    0.000160  -0.000045   0.007819   0.015398   0.000420   0.012920
     6  C   -0.000050   0.000031   0.000221   0.002335   0.000001  -0.050715
     7  C   -0.000006  -0.000000   0.000014  -0.000023   0.000014   0.420763
     8  C    0.000000   0.000000  -0.000001  -0.000001  -0.000000  -0.040157
     9  N    0.000000   0.000000   0.000000   0.000000  -0.000000   0.005441
    10  C    0.000001  -0.000000   0.000001   0.000002  -0.000001  -0.000036
    11  C    0.000030   0.000000  -0.000078  -0.000042  -0.000101   0.011408
    12  O   -0.000002   0.000001   0.000006  -0.000048   0.000189  -0.000029
    13  H    0.617619  -0.016348  -0.023020   0.006961  -0.008811  -0.000000
    14  H   -0.016348   0.608079  -0.016227  -0.001503  -0.003254   0.000000
    15  H   -0.023020  -0.016227   0.588526  -0.009780   0.006380  -0.000009
    16  H    0.006961  -0.001503  -0.009780   0.613960  -0.027209  -0.000011
    17  H   -0.008811  -0.003254   0.006380  -0.027209   0.634050  -0.000000
    18  H   -0.000000   0.000000  -0.000009  -0.000011  -0.000000   0.615924
    19  H    0.000000  -0.000000   0.000000   0.000000   0.000000  -0.005329
    20  H   -0.000000  -0.000000  -0.000000  -0.000000  -0.000000   0.000056
    21  H    0.000446  -0.000005  -0.000087   0.000700  -0.001499  -0.000042
              19         20         21
     1  C    0.000000   0.000000  -0.000188
     2  C   -0.000000  -0.000001  -0.001196
     3  O    0.000000   0.000004   0.038922
     4  C   -0.000311  -0.000131   0.003185
     5  O   -0.000014   0.000001   0.000473
     6  C    0.007400   0.012987  -0.028288
     7  C   -0.066290   0.000147  -0.000300
     8  C    0.426976   0.004458  -0.000060
     9  N   -0.038385  -0.035756  -0.000168
    10  C    0.003354   0.412899   0.006083
    11  C    0.001546  -0.066209  -0.007148
    12  O    0.000010   0.004547   0.342900
    13  H    0.000000  -0.000000   0.000446
    14  H   -0.000000  -0.000000  -0.000005
    15  H    0.000000  -0.000000  -0.000087
    16  H    0.000000  -0.000000   0.000700
    17  H    0.000000  -0.000000  -0.001499
    18  H   -0.005329   0.000056  -0.000042
    19  H    0.633409  -0.000208  -0.000001
    20  H   -0.000208   0.629302  -0.000399
    21  H   -0.000001  -0.000399   0.446841
 Mulliken charges:
               1
     1  C   -0.102106
     2  C    0.136414
     3  O   -0.401027
     4  C    0.308166
     5  O   -0.222760
     6  C   -0.129697
     7  C   -0.022412
     8  C    0.024023
     9  N   -0.111746
    10  C   -0.004732
    11  C    0.108079
    12  O   -0.195419
    13  H    0.053072
    14  H    0.055851
    15  H    0.068024
    16  H    0.063417
    17  H    0.052226
    18  H    0.044654
    19  H    0.037843
    20  H    0.038303
    21  H    0.199829
 Sum of Mulliken charges =  -0.00000
 Mulliken charges with hydrogens summed into heavy atoms:
               1
     1  C    0.074840
     2  C    0.252058
     3  O   -0.401027
     4  C    0.308166
     5  O   -0.222760
     6  C   -0.129697
     7  C    0.022242
     8  C    0.061865
     9  N   -0.111746
    10  C    0.033570
    11  C    0.108079
    12  O    0.004411
 Electronic spatial extent (au):  <R**2>=           2268.8376
 Charge=             -0.0000 electrons
 Dipole moment (field-independent basis, Debye):
    X=             -3.8215    Y=              0.6513    Z=             -0.1846  Tot=              3.8810
 Quadrupole moment (field-independent basis, Debye-Ang):
   XX=            -67.9614   YY=            -71.4054   ZZ=            -69.4356
   XY=             -6.7087   XZ=             -0.0117   YZ=             -0.7979
 Traceless Quadrupole moment (field-independent basis, Debye-Ang):
   XX=              1.6394   YY=             -1.8046   ZZ=              0.1652
   XY=             -6.7087   XZ=             -0.0117   YZ=             -0.7979
 Octapole moment (field-independent basis, Debye-Ang**2):
  XXX=            -93.8450  YYY=              2.5714  ZZZ=             -3.6846  XYY=              8.5250
  XXY=              3.6195  XXZ=             -5.5538  XZZ=            -10.8110  YZZ=              2.1577
  YYZ=              1.0351  XYZ=              1.1875
 Hexadecapole moment (field-independent basis, Debye-Ang**3):
 XXXX=          -2294.8877 YYYY=           -600.1356 ZZZZ=           -139.8523 XXXY=            -28.7854
 XXXZ=              0.7924 YYYX=            -26.6042 YYYZ=             -3.8588 ZZZX=              4.7870
 ZZZY=              0.7727 XXYY=           -434.0683 XXZZ=           -401.6294 YYZZ=           -122.1934
 XXYZ=             -5.7358 YYXZ=              4.0054 ZZXY=              3.8902
 N-N= 6.928887843300D+02 E-N=-2.761655833377D+03  KE= 5.846146813210D+02
   1 Symmetry operations used in ECPInt.
 ECPInt:  NShTT=    4950 NPrTT=   18138 LenC2=    4751 LenP2D=   12954.
 LDataN:  DoStor=T MaxTD1= 5 Len=  102
 Calling FoFJK, ICntrl=      2127 FMM=F ISym2X=0 I1Cent= 0 IOpClX= 0 NMat=1 NMatS=1 NMatT=0.
 ***** Axes restored to original set *****
 -------------------------------------------------------------------
 Center     Atomic                   Forces (Hartrees/Bohr)
 Number     Number              X              Y              Z
 -------------------------------------------------------------------
      1        6          -0.000000538    0.000000364   -0.000001371
      2        6           0.000007270    0.000018080    0.000002674
      3        8           0.000003471   -0.000020035    0.000003929
      4        6          -0.000009309    0.000009967   -0.000011342
      5        8           0.000006725    0.000003645    0.000004665
      6        6          -0.000002351   -0.000005718    0.000000057
      7        6           0.000009924   -0.000004770    0.000002089
      8        6          -0.000002506    0.000000008   -0.000000046
      9        7           0.000005345   -0.000004765    0.000002573
     10        6          -0.000009108   -0.000007100   -0.000005011
     11        6           0.000011514    0.000004463    0.000002894
     12        8          -0.000004656   -0.000001652   -0.000003423
     13        1           0.000001163    0.000002190    0.000000644
     14        1          -0.000001407    0.000000177    0.000000566
     15        1          -0.000001547    0.000000154    0.000000502
     16        1          -0.000002081   -0.000002962   -0.000003279
     17        1          -0.000000890   -0.000002063    0.000001116
     18        1          -0.000002625    0.000002096   -0.000000709
     19        1          -0.000002724   -0.000003110   -0.000001741
     20        1           0.000000218    0.000003552    0.000002137
     21        1          -0.000005887    0.000007482    0.000003076
 -------------------------------------------------------------------
 Cartesian Forces:  Max     0.000020035 RMS     0.000005617

 GradGradGradGradGradGradGradGradGradGradGradGradGradGradGradGradGradGrad
 Berny optimization.
 FormGI is forming the generalized inverse of G from B-inverse, IUseBI=4.
 Internal  Forces:  Max     0.000023722 RMS     0.000004336
 Search for a local minimum.
 Step number   1 out of a maximum of  104
 All quantities printed in internal units (Hartrees-Bohrs-Radians)
 Mixed Optimization -- En-DIIS/RFO-DIIS
 Second derivative matrix not updated -- first step.
 ITU=  0
     Eigenvalues ---    0.00578   0.00920   0.01212   0.01368   0.01675
     Eigenvalues ---    0.01991   0.02086   0.02177   0.02194   0.02215
     Eigenvalues ---    0.02312   0.02362   0.02524   0.02576   0.05025
     Eigenvalues ---    0.05637   0.05677   0.05857   0.11739   0.13882
     Eigenvalues ---    0.16000   0.16000   0.16000   0.16000   0.16000
     Eigenvalues ---    0.16000   0.16000   0.22049   0.22338   0.23254
     Eigenvalues ---    0.24574   0.25000   0.25000   0.25000   0.25000
     Eigenvalues ---    0.25000   0.30928   0.33634   0.33715   0.33724
     Eigenvalues ---    0.33841   0.33845   0.33922   0.34202   0.34382
     Eigenvalues ---    0.34683   0.40099   0.41246   0.42831   0.44540
     Eigenvalues ---    0.47305   0.53134   0.54363   0.55864   0.58766
     Eigenvalues ---    0.60636   1.04382
 RFO step:  Lambda= 0.00000000D+00 EMin= 5.77585336D-03
 Linear search not attempted -- first point.
 Iteration  1 RMS(Cart)=  0.00012292 RMS(Int)=  0.00000001
 Iteration  2 RMS(Cart)=  0.00000002 RMS(Int)=  0.00000000
 Variable       Old X    -DE/DX   Delta X   Delta X   Delta X     New X
                                 (Linear)    (Quad)   (Total)
    R1        2.86150   0.00000   0.00000   0.00000   0.00000   2.86150
    R2        2.07798   0.00000   0.00000   0.00000   0.00000   2.07798
    R3        2.07814   0.00000   0.00000   0.00000   0.00000   2.07814
    R4        2.07598   0.00000   0.00000   0.00000   0.00000   2.07599
    R5        2.71419  -0.00000   0.00000  -0.00001  -0.00001   2.71419
    R6        2.07593   0.00001   0.00000   0.00002   0.00002   2.07594
    R7        2.07462  -0.00000   0.00000  -0.00001  -0.00001   2.07461
    R8        2.55702  -0.00001   0.00000  -0.00002  -0.00002   2.55700
    R9        2.26934  -0.00001   0.00000  -0.00001  -0.00001   2.26933
   R10        2.81251  -0.00000   0.00000  -0.00001  -0.00001   2.81250
   R11        2.65121   0.00000   0.00000   0.00001   0.00001   2.65122
   R12        2.65962   0.00000   0.00000   0.00001   0.00001   2.65962
   R13        2.61599  -0.00000   0.00000  -0.00001  -0.00001   2.61598
   R14        2.06192  -0.00000   0.00000  -0.00000  -0.00000   2.06191
   R15        2.52966   0.00000   0.00000   0.00000   0.00000   2.52966
   R16        2.06691  -0.00000   0.00000  -0.00000  -0.00000   2.06691
   R17        2.49111   0.00001   0.00000   0.00001   0.00001   2.49112
   R18        2.66712  -0.00000   0.00000  -0.00001  -0.00001   2.66711
   R19        2.06990   0.00000   0.00000   0.00001   0.00001   2.06991
   R20        2.51930   0.00001   0.00000   0.00002   0.00002   2.51932
   R21        1.83529   0.00000   0.00000   0.00001   0.00001   1.83530
    A1        1.93722  -0.00000   0.00000  -0.00001  -0.00001   1.93721
    A2        1.91310   0.00000   0.00000   0.00000   0.00000   1.91311
    A3        1.93168   0.00000   0.00000   0.00001   0.00001   1.93169
    A4        1.88973   0.00000   0.00000   0.00000   0.00000   1.88973
    A5        1.90305   0.00000   0.00000   0.00000   0.00000   1.90305
    A6        1.88790  -0.00000   0.00000  -0.00001  -0.00001   1.88788
    A7        1.94675   0.00000   0.00000   0.00002   0.00002   1.94676
    A8        1.94253  -0.00000   0.00000  -0.00001  -0.00001   1.94253
    A9        1.94970  -0.00000   0.00000  -0.00001  -0.00001   1.94968
   A10        1.89224  -0.00000   0.00000   0.00000   0.00000   1.89224
   A11        1.82509   0.00000   0.00000   0.00001   0.00001   1.82511
   A12        1.90302  -0.00000   0.00000  -0.00001  -0.00001   1.90300
   A13        2.05603   0.00002   0.00000   0.00009   0.00009   2.05613
   A14        2.14024   0.00001   0.00000   0.00004   0.00004   2.14029
   A15        1.96404  -0.00001   0.00000  -0.00003  -0.00003   1.96400
   A16        2.17890  -0.00000   0.00000  -0.00001  -0.00001   2.17889
   A17        2.04988   0.00000   0.00000   0.00001   0.00001   2.04990
   A18        2.17520  -0.00001   0.00000  -0.00002  -0.00002   2.17518
   A19        2.05810   0.00000   0.00000   0.00001   0.00001   2.05811
   A20        2.08899   0.00000   0.00000   0.00000   0.00000   2.08899
   A21        2.07189  -0.00000   0.00000  -0.00002  -0.00002   2.07188
   A22        2.12231   0.00000   0.00000   0.00002   0.00002   2.12232
   A23        2.13640  -0.00000   0.00000  -0.00000  -0.00000   2.13639
   A24        2.10766  -0.00000   0.00000  -0.00002  -0.00002   2.10764
   A25        2.03913   0.00000   0.00000   0.00002   0.00002   2.03915
   A26        2.07193  -0.00000   0.00000  -0.00001  -0.00001   2.07192
   A27        2.16196   0.00000   0.00000   0.00002   0.00002   2.16198
   A28        2.06555   0.00000   0.00000   0.00000   0.00000   2.06555
   A29        2.05568  -0.00000   0.00000  -0.00002  -0.00002   2.05565
   A30        2.04900  -0.00000   0.00000  -0.00002  -0.00002   2.04898
   A31        2.18706   0.00000   0.00000   0.00001   0.00001   2.18706
   A32        2.04713   0.00000   0.00000   0.00001   0.00001   2.04714
   A33        1.89053   0.00002   0.00000   0.00010   0.00010   1.89063
    D1        0.98791   0.00000   0.00000  -0.00000  -0.00000   0.98791
    D2        3.10374   0.00000   0.00000   0.00001   0.00001   3.10374
    D3       -1.04770  -0.00000   0.00000  -0.00002  -0.00002  -1.04772
    D4        3.07456   0.00000   0.00000  -0.00000  -0.00000   3.07456
    D5       -1.09280   0.00000   0.00000   0.00001   0.00001  -1.09279
    D6        1.03895  -0.00000   0.00000  -0.00002  -0.00002   1.03893
    D7       -1.12770   0.00000   0.00000  -0.00001  -0.00001  -1.12770
    D8        0.98813   0.00000   0.00000   0.00000   0.00000   0.98813
    D9        3.11988  -0.00000   0.00000  -0.00003  -0.00003   3.11985
   D10        1.45130   0.00000   0.00000   0.00006   0.00006   1.45136
   D11       -0.69354   0.00000   0.00000   0.00006   0.00006  -0.69348
   D12       -2.72185   0.00000   0.00000   0.00006   0.00006  -2.72179
   D13        0.02042  -0.00000   0.00000  -0.00016  -0.00016   0.02026
   D14       -3.12373   0.00000   0.00000   0.00012   0.00012  -3.12361
   D15       -3.13078  -0.00000   0.00000  -0.00005  -0.00005  -3.13083
   D16        0.01324  -0.00000   0.00000  -0.00005  -0.00005   0.01319
   D17        0.00819   0.00000   0.00000   0.00023   0.00023   0.00842
   D18       -3.13098   0.00000   0.00000   0.00023   0.00023  -3.13075
   D19       -3.13995  -0.00000   0.00000  -0.00001  -0.00001  -3.13997
   D20        0.00173   0.00000   0.00000   0.00001   0.00001   0.00173
   D21       -0.00062  -0.00000   0.00000  -0.00002  -0.00002  -0.00064
   D22        3.14106   0.00000   0.00000   0.00000   0.00000   3.14106
   D23        3.13916   0.00000   0.00000   0.00002   0.00002   3.13918
   D24       -0.00139   0.00000   0.00000   0.00005   0.00005  -0.00134
   D25       -0.00000   0.00000   0.00000   0.00003   0.00003   0.00003
   D26       -3.14055   0.00000   0.00000   0.00005   0.00005  -3.14049
   D27        0.00077   0.00000   0.00000   0.00001   0.00001   0.00079
   D28       -3.14112   0.00000   0.00000   0.00003   0.00003  -3.14109
   D29       -3.14091  -0.00000   0.00000  -0.00001  -0.00001  -3.14091
   D30        0.00038   0.00000   0.00000   0.00001   0.00001   0.00040
   D31       -0.00025  -0.00000   0.00000  -0.00002  -0.00002  -0.00027
   D32       -3.14155  -0.00000   0.00000  -0.00004  -0.00004  -3.14158
   D33       -0.00043   0.00000   0.00000   0.00003   0.00003  -0.00040
   D34        3.14143  -0.00000   0.00000  -0.00006  -0.00006   3.14137
   D35        0.00055  -0.00000   0.00000  -0.00004  -0.00004   0.00051
   D36        3.14118  -0.00000   0.00000  -0.00006  -0.00006   3.14112
   D37       -3.14131   0.00000   0.00000   0.00006   0.00006  -3.14126
   D38       -0.00068   0.00000   0.00000   0.00004   0.00004  -0.00065
   D39       -0.00318   0.00000   0.00000   0.00011   0.00011  -0.00307
   D40        3.13946   0.00000   0.00000   0.00013   0.00013   3.13959
         Item               Value     Threshold  Converged?
 Maximum Force            0.000024     0.000450     YES
 RMS     Force            0.000004     0.000300     YES
 Maximum Displacement     0.000413     0.001800     YES
 RMS     Displacement     0.000123     0.001200     YES
 Predicted change in Energy=-4.917935D-09
 Optimization completed.
    -- Stationary point found.
                           ----------------------------
                           !   Optimized Parameters   !
                           ! (Angstroms and Degrees)  !
 --------------------------                            --------------------------
 ! Name  Definition              Value          Derivative Info.                !
 --------------------------------------------------------------------------------
 ! R1    R(1,2)                  1.5142         -DE/DX =    0.0                 !
 ! R2    R(1,13)                 1.0996         -DE/DX =    0.0                 !
 ! R3    R(1,14)                 1.0997         -DE/DX =    0.0                 !
 ! R4    R(1,15)                 1.0986         -DE/DX =    0.0                 !
 ! R5    R(2,3)                  1.4363         -DE/DX =    0.0                 !
 ! R6    R(2,16)                 1.0985         -DE/DX =    0.0                 !
 ! R7    R(2,17)                 1.0978         -DE/DX =    0.0                 !
 ! R8    R(3,4)                  1.3531         -DE/DX =    0.0                 !
 ! R9    R(4,5)                  1.2009         -DE/DX =    0.0                 !
 ! R10   R(4,6)                  1.4883         -DE/DX =    0.0                 !
 ! R11   R(6,7)                  1.403          -DE/DX =    0.0                 !
 ! R12   R(6,11)                 1.4074         -DE/DX =    0.0                 !
 ! R13   R(7,8)                  1.3843         -DE/DX =    0.0                 !
 ! R14   R(7,18)                 1.0911         -DE/DX =    0.0                 !
 ! R15   R(8,9)                  1.3386         -DE/DX =    0.0                 !
 ! R16   R(8,19)                 1.0938         -DE/DX =    0.0                 !
 ! R17   R(9,10)                 1.3182         -DE/DX =    0.0                 !
 ! R18   R(10,11)                1.4114         -DE/DX =    0.0                 !
 ! R19   R(10,20)                1.0953         -DE/DX =    0.0                 !
 ! R20   R(11,12)                1.3332         -DE/DX =    0.0                 !
 ! R21   R(12,21)                0.9712         -DE/DX =    0.0                 !
 ! A1    A(2,1,13)             110.9944         -DE/DX =    0.0                 !
 ! A2    A(2,1,14)             109.6126         -DE/DX =    0.0                 !
 ! A3    A(2,1,15)             110.6773         -DE/DX =    0.0                 !
 ! A4    A(13,1,14)            108.2736         -DE/DX =    0.0                 !
 ! A5    A(13,1,15)            109.0368         -DE/DX =    0.0                 !
 ! A6    A(14,1,15)            108.1684         -DE/DX =    0.0                 !
 ! A7    A(1,2,3)              111.5405         -DE/DX =    0.0                 !
 ! A8    A(1,2,16)             111.2989         -DE/DX =    0.0                 !
 ! A9    A(1,2,17)             111.7093         -DE/DX =    0.0                 !
 ! A10   A(3,2,16)             108.4172         -DE/DX =    0.0                 !
 ! A11   A(3,2,17)             104.57           -DE/DX =    0.0                 !
 ! A12   A(16,2,17)            109.0348         -DE/DX =    0.0                 !
 ! A13   A(2,3,4)              117.8021         -DE/DX =    0.0                 !
 ! A14   A(3,4,5)              122.6269         -DE/DX =    0.0                 !
 ! A15   A(3,4,6)              112.5309         -DE/DX =    0.0                 !
 ! A16   A(5,4,6)              124.842          -DE/DX =    0.0                 !
 ! A17   A(4,6,7)              117.4497         -DE/DX =    0.0                 !
 ! A18   A(4,6,11)             124.6298         -DE/DX =    0.0                 !
 ! A19   A(7,6,11)             117.9204         -DE/DX =    0.0                 !
 ! A20   A(6,7,8)              119.6901         -DE/DX =    0.0                 !
 ! A21   A(6,7,18)             118.7108         -DE/DX =    0.0                 !
 ! A22   A(8,7,18)             121.5992         -DE/DX =    0.0                 !
 ! A23   A(7,8,9)              122.4065         -DE/DX =    0.0                 !
 ! A24   A(7,8,19)             120.7599         -DE/DX =    0.0                 !
 ! A25   A(9,8,19)             116.8336         -DE/DX =    0.0                 !
 ! A26   A(8,9,10)             118.7128         -DE/DX =    0.0                 !
 ! A27   A(9,10,11)            123.8711         -DE/DX =    0.0                 !
 ! A28   A(9,10,20)            118.3473         -DE/DX =    0.0                 !
 ! A29   A(11,10,20)           117.7816         -DE/DX =    0.0                 !
 ! A30   A(6,11,10)            117.399          -DE/DX =    0.0                 !
 ! A31   A(6,11,12)            125.3091         -DE/DX =    0.0                 !
 ! A32   A(10,11,12)           117.2919         -DE/DX =    0.0                 !
 ! A33   A(11,12,21)           108.3193         -DE/DX =    0.0                 !
 ! D1    D(13,1,2,3)            56.6031         -DE/DX =    0.0                 !
 ! D2    D(13,1,2,16)          177.831          -DE/DX =    0.0                 !
 ! D3    D(13,1,2,17)          -60.0287         -DE/DX =    0.0                 !
 ! D4    D(14,1,2,3)           176.1594         -DE/DX =    0.0                 !
 ! D5    D(14,1,2,16)          -62.6126         -DE/DX =    0.0                 !
 ! D6    D(14,1,2,17)           59.5277         -DE/DX =    0.0                 !
 ! D7    D(15,1,2,3)           -64.6123         -DE/DX =    0.0                 !
 ! D8    D(15,1,2,16)           56.6157         -DE/DX =    0.0                 !
 ! D9    D(15,1,2,17)          178.756          -DE/DX =    0.0                 !
 ! D10   D(1,2,3,4)             83.1532         -DE/DX =    0.0                 !
 ! D11   D(16,2,3,4)           -39.7368         -DE/DX =    0.0                 !
 ! D12   D(17,2,3,4)          -155.9507         -DE/DX =    0.0                 !
 ! D13   D(2,3,4,5)              1.17           -DE/DX =    0.0                 !
 ! D14   D(2,3,4,6)           -178.9766         -DE/DX =    0.0                 !
 ! D15   D(3,4,6,7)           -179.3804         -DE/DX =    0.0                 !
 ! D16   D(3,4,6,11)             0.7585         -DE/DX =    0.0                 !
 ! D17   D(5,4,6,7)              0.4692         -DE/DX =    0.0                 !
 ! D18   D(5,4,6,11)          -179.3919         -DE/DX =    0.0                 !
 ! D19   D(4,6,7,8)           -179.906          -DE/DX =    0.0                 !
 ! D20   D(4,6,7,18)             0.0989         -DE/DX =    0.0                 !
 ! D21   D(11,6,7,8)            -0.0354         -DE/DX =    0.0                 !
 ! D22   D(11,6,7,18)          179.9695         -DE/DX =    0.0                 !
 ! D23   D(4,6,11,10)          179.8604         -DE/DX =    0.0                 !
 ! D24   D(4,6,11,12)           -0.0795         -DE/DX =    0.0                 !
 ! D25   D(7,6,11,10)           -0.0001         -DE/DX =    0.0                 !
 ! D26   D(7,6,11,12)         -179.94           -DE/DX =    0.0                 !
 ! D27   D(6,7,8,9)              0.0444         -DE/DX =    0.0                 !
 ! D28   D(6,7,8,19)          -179.9729         -DE/DX =    0.0                 !
 ! D29   D(18,7,8,9)          -179.9606         -DE/DX =    0.0                 !
 ! D30   D(18,7,8,19)            0.0221         -DE/DX =    0.0                 !
 ! D31   D(7,8,9,10)            -0.0141         -DE/DX =    0.0                 !
 ! D32   D(19,8,9,10)         -179.9974         -DE/DX =    0.0                 !
 ! D33   D(8,9,10,11)           -0.0248         -DE/DX =    0.0                 !
 ! D34   D(8,9,10,20)          179.9907         -DE/DX =    0.0                 !
 ! D35   D(9,10,11,6)            0.0315         -DE/DX =    0.0                 !
 ! D36   D(9,10,11,12)         179.9763         -DE/DX =    0.0                 !
 ! D37   D(20,10,11,6)        -179.9839         -DE/DX =    0.0                 !
 ! D38   D(20,10,11,12)         -0.0391         -DE/DX =    0.0                 !
 ! D39   D(6,11,12,21)          -0.1822         -DE/DX =    0.0                 !
 ! D40   D(10,11,12,21)        179.8779         -DE/DX =    0.0                 !
 --------------------------------------------------------------------------------
 GradGradGradGradGradGradGradGradGradGradGradGradGradGradGradGradGradGrad

                          Input orientation:                          
 ---------------------------------------------------------------------
 Center     Atomic      Atomic             Coordinates (Angstroms)
 Number     Number       Type             X           Y           Z
 ---------------------------------------------------------------------
      1          6           0       -3.674780    0.078860    0.893470
      2          6           0       -3.017490    0.275210   -0.456470
      3          8           0       -1.597810    0.453150   -0.330870
      4          6           0       -0.829310   -0.655890   -0.229040
      5          8           0       -1.286780   -1.765770   -0.260710
      6          6           0        0.616620   -0.336100   -0.080340
      7          6           0        1.510090   -1.413040    0.020720
      8          6           0        2.865280   -1.168660    0.162470
      9          7           0        3.369800    0.070390    0.209070
     10          6           0        2.544530    1.094130    0.116160
     11          6           0        1.146690    0.966760   -0.031540
     12          8           0        0.435540    2.091500   -0.112370
     13          1           0       -3.454340    0.921070    1.565220
     14          1           0       -4.765330    0.014800    0.767210
     15          1           0       -3.328820   -0.852850    1.361520
     16          1           0       -3.202650   -0.581410   -1.118810
     17          1           0       -3.368110    1.191340   -0.949450
     18          1           0        1.112980   -2.428700   -0.015100
     19          1           0        3.577360   -1.995020    0.242370
     20          1           0        2.963760    2.105320    0.155140
     21          1           0       -0.500840    1.854070   -0.212560
 ---------------------------------------------------------------------
                    Distance matrix (angstroms):
                    1          2          3          4          5
     1  C    0.000000
     2  C    1.514240   0.000000
     3  O    2.439858   1.436290   0.000000
     4  C    3.145884   2.388892   1.353119   0.000000
     5  O    3.230687   2.683147   2.241711   1.200881   0.000000
     6  C    4.420024   3.704312   2.364187   1.488318   2.387346
     7  C    5.465376   4.855603   3.642159   2.471528   2.833038
     8  C    6.697989   6.088910   4.774183   3.750494   4.216067
     9  N    7.077753   6.425136   5.011506   4.283917   5.027516
    10  C    6.349394   5.651071   4.215409   3.816350   4.795831
    11  C    4.989046   4.242547   2.808144   2.564483   3.666199
    12  O    4.685847   3.916724   2.620390   3.026815   4.226928
    13  H    1.099618   2.166842   2.694589   3.549219   3.905310
    14  H    1.099702   2.149454   3.380993   4.115166   4.040713
    15  H    1.098564   2.162067   2.750675   2.969213   2.763147
    16  H    2.169823   1.098534   2.065593   2.535741   2.410312
    17  H    2.174399   1.097842   2.015323   3.221297   3.681141
    18  H    5.480511   4.956483   3.969024   2.638393   2.501729
    19  H    7.570895   7.009591   5.753653   4.629712   4.895457
    20  H    6.980106   6.284801   4.875838   4.707362   5.764144
    21  H    3.801127   2.980909   1.783232   2.531415   3.704492
                    6          7          8          9         10
     6  C    0.000000
     7  C    1.402962   0.000000
     8  C    2.410101   1.384325   0.000000
     9  N    2.798034   2.386328   1.338640   0.000000
    10  C    2.408528   2.713867   2.285879   1.318236   0.000000
    11  C    1.407409   2.407953   2.747947   2.409064   1.411381
    12  O    2.434555   3.667993   4.075269   3.577442   2.344101
    13  H    4.567391   5.699045   6.802373   7.009400   6.173829
    14  H    5.459566   6.478956   7.745482   8.154444   7.417740
    15  H    4.232315   5.052386   6.316988   6.859448   6.311727
    16  H    3.965529   4.919355   6.229472   6.736854   6.112501
    17  H    4.355054   5.614344   6.757301   6.928068   6.008684
    18  H    2.151652   1.091121   2.165592   3.374750   3.804852
    19  H    3.409126   2.159036   1.093761   2.076080   3.259680
    20  H    3.394856   3.809210   3.275469   2.075745   1.095344
    21  H    2.462325   3.843471   4.539637   4.282656   3.155922
                   11         12         13         14         15
    11  C    0.000000
    12  O    1.333157   0.000000
    13  H    4.870442   4.394927   0.000000
    14  H    6.041209   5.668809   1.782369   0.000000
    15  H    5.028100   5.001195   1.789984   1.780332   0.000000
    16  H    4.742968   4.625343   3.086229   2.520815   2.498327
    17  H    4.612636   3.997342   2.530622   2.506669   3.085586
    18  H    3.395667   4.571717   5.880373   6.413831   4.909987
    19  H    3.841266   5.166867   7.726469   8.597401   7.088891
    20  H    2.152420   2.542371   6.677034   8.030177   7.057102
    21  H    1.880011   0.971194   3.571296   4.746445   4.219314
                   16         17         18         19         20
    16  H    0.000000
    17  H    1.788492   0.000000
    18  H    4.822377   5.835912   0.000000
    19  H    7.058303   7.733879   2.515460   0.000000
    20  H    6.845880   6.492153   4.900174   4.146915   0.000000
    21  H    3.748684   3.033720   4.580996   5.626204   3.493105
                   21
    21  H    0.000000
 Stoichiometry    C8H9NO3
 Framework group  C1[X(C8H9NO3)]
 Deg. of freedom    57
 Full point group                 C1      NOp   1
 Largest Abelian subgroup         C1      NOp   1
 Largest concise Abelian subgroup C1      NOp   1
                         Standard orientation:                         
 ---------------------------------------------------------------------
 Center     Atomic      Atomic             Coordinates (Angstroms)
 Number     Number       Type             X           Y           Z
 ---------------------------------------------------------------------
      1          6           0       -3.674780    0.078864    0.893470
      2          6           0       -3.017490    0.275213   -0.456470
      3          8           0       -1.597809    0.453152   -0.330870
      4          6           0       -0.829311   -0.655889   -0.229040
      5          8           0       -1.286782   -1.765769   -0.260710
      6          6           0        0.616620   -0.336101   -0.080340
      7          6           0        1.510089   -1.413042    0.020720
      8          6           0        2.865279   -1.168663    0.162470
      9          7           0        3.369800    0.070386    0.209070
     10          6           0        2.544531    1.094127    0.116160
     11          6           0        1.146691    0.966759   -0.031540
     12          8           0        0.435542    2.091499   -0.112370
     13          1           0       -3.454339    0.921074    1.565220
     14          1           0       -4.765330    0.014805    0.767210
     15          1           0       -3.328821   -0.852846    1.361520
     16          1           0       -3.202651   -0.581407   -1.118810
     17          1           0       -3.368109    1.191344   -0.949450
     18          1           0        1.112977   -2.428701   -0.015100
     19          1           0        3.577358   -1.995024    0.242370
     20          1           0        2.963762    2.105317    0.155140
     21          1           0       -0.500838    1.854070   -0.212560
 ---------------------------------------------------------------------
 Rotational constants (GHZ):           2.0892290           0.5963420           0.4854046
 Unable to Open any file for archive entry.
 1\1\GINC-NOTCH432\FOpt\RwB97XD\def2SVP\C8H9N1O3\U6053008\12-Jul-2024\0
 \\#N OPT FREQ=NORAMAN Integral(Ultrafine) wB97XD def2SVP\\12326192_3\\
 0,1\C,-3.67478,0.07886,0.89347\C,-3.01749,0.27521,-0.45647\O,-1.59781,
 0.45315,-0.33087\C,-0.82931,-0.65589,-0.22904\O,-1.28678,-1.76577,-0.2
 6071\C,0.61662,-0.3361,-0.08034\C,1.51009,-1.41304,0.02072\C,2.86528,-
 1.16866,0.16247\N,3.3698,0.07039,0.20907\C,2.54453,1.09413,0.11616\C,1
 .14669,0.96676,-0.03154\O,0.43554,2.0915,-0.11237\H,-3.45434,0.92107,1
 .56522\H,-4.76533,0.0148,0.76721\H,-3.32882,-0.85285,1.36152\H,-3.2026
 5,-0.58141,-1.11881\H,-3.36811,1.19134,-0.94945\H,1.11298,-2.4287,-0.0
 151\H,3.57736,-1.99502,0.24237\H,2.96376,2.10532,0.15514\H,-0.50084,1.
 85407,-0.21256\\Version=ES64L-G16RevC.01\State=1-A\HF=-590.0862576\RMS
 D=6.205e-09\RMSF=5.617e-06\Dipole=-1.5035104,0.2562424,-0.0726462\Quad
 rupole=1.2188732,-1.3416786,0.1228054,-4.9877725,-0.0086962,-0.5932328
 \PG=C01 [X(C8H9N1O3)]\\@
 The archive entry for this job was punched.


 IT IS WELL TO REMEMBER THAT MAN IS A PART OF NATURE AND THAT HIS WORKS,
 WHATEVER THEY MAY BE, ARE NO MORE "UNNATURAL" THAN 
 THE FLIGHT OF AN EAGLE OR THE PASSAGE OF A TORNADO.

                                    -- CHARLES MCCARRY IN "THE GREAT SOUTHWEST"
 Job cpu time:       0 days  0 hours  4 minutes 19.1 seconds.
 Elapsed time:       0 days  0 hours  0 minutes 16.8 seconds.
 File lengths (MBytes):  RWF=     44 Int=      0 D2E=      0 Chk=      5 Scr=      2
 Normal termination of Gaussian 16 at Fri Jul 12 13:08:25 2024.
 Link1:  Proceeding to internal job step number  2.
 --------------------------------------------------------------------
 #N Geom=AllCheck Guess=TCheck SCRF=Check GenChk RwB97XD/def2SVP Freq
 --------------------------------------------------------------------
 1/10=4,29=7,30=1,38=1,40=1/1,3;
 2/12=2,40=1/2;
 3/5=43,7=101,11=2,14=-4,25=1,30=1,70=2,71=2,74=-58,75=-5,116=1,140=1/1,2,3;
 4/5=101/1;
 5/5=2,38=6,98=1/2;
 8/6=4,10=90,11=11/1;
 11/6=1,8=1,9=11,15=111,16=1/1,2,10;
 10/6=1/2;
 6/7=2,8=2,9=2,10=2,28=1/1;
 7/8=1,10=1,25=1/1,2,3,16;
 1/10=4,30=1/3;
 99//99;
 Structure from the checkpoint file:  "12326192_3.chk"
 ----------
 12326192_3
 ----------
 Charge =  0 Multiplicity = 1
 Redundant internal coordinates found in file.  (old form).
 C,0,-3.67478,0.07886,0.89347
 C,0,-3.01749,0.27521,-0.45647
 O,0,-1.59781,0.45315,-0.33087
 C,0,-0.82931,-0.65589,-0.22904
 O,0,-1.28678,-1.76577,-0.26071
 C,0,0.61662,-0.3361,-0.08034
 C,0,1.51009,-1.41304,0.02072
 C,0,2.86528,-1.16866,0.16247
 N,0,3.3698,0.07039,0.20907
 C,0,2.54453,1.09413,0.11616
 C,0,1.14669,0.96676,-0.03154
 O,0,0.43554,2.0915,-0.11237
 H,0,-3.45434,0.92107,1.56522
 H,0,-4.76533,0.0148,0.76721
 H,0,-3.32882,-0.85285,1.36152
 H,0,-3.20265,-0.58141,-1.11881
 H,0,-3.36811,1.19134,-0.94945
 H,0,1.11298,-2.4287,-0.0151
 H,0,3.57736,-1.99502,0.24237
 H,0,2.96376,2.10532,0.15514
 H,0,-0.50084,1.85407,-0.21256
 Recover connectivity data from disk.

 GradGradGradGradGradGradGradGradGradGradGradGradGradGradGradGradGradGrad
 Berny optimization.
 Initialization pass.
                           ----------------------------
                           !    Initial Parameters    !
                           ! (Angstroms and Degrees)  !
 --------------------------                            --------------------------
 ! Name  Definition              Value          Derivative Info.                !
 --------------------------------------------------------------------------------
 ! R1    R(1,2)                  1.5142         calculate D2E/DX2 analytically  !
 ! R2    R(1,13)                 1.0996         calculate D2E/DX2 analytically  !
 ! R3    R(1,14)                 1.0997         calculate D2E/DX2 analytically  !
 ! R4    R(1,15)                 1.0986         calculate D2E/DX2 analytically  !
 ! R5    R(2,3)                  1.4363         calculate D2E/DX2 analytically  !
 ! R6    R(2,16)                 1.0985         calculate D2E/DX2 analytically  !
 ! R7    R(2,17)                 1.0978         calculate D2E/DX2 analytically  !
 ! R8    R(3,4)                  1.3531         calculate D2E/DX2 analytically  !
 ! R9    R(4,5)                  1.2009         calculate D2E/DX2 analytically  !
 ! R10   R(4,6)                  1.4883         calculate D2E/DX2 analytically  !
 ! R11   R(6,7)                  1.403          calculate D2E/DX2 analytically  !
 ! R12   R(6,11)                 1.4074         calculate D2E/DX2 analytically  !
 ! R13   R(7,8)                  1.3843         calculate D2E/DX2 analytically  !
 ! R14   R(7,18)                 1.0911         calculate D2E/DX2 analytically  !
 ! R15   R(8,9)                  1.3386         calculate D2E/DX2 analytically  !
 ! R16   R(8,19)                 1.0938         calculate D2E/DX2 analytically  !
 ! R17   R(9,10)                 1.3182         calculate D2E/DX2 analytically  !
 ! R18   R(10,11)                1.4114         calculate D2E/DX2 analytically  !
 ! R19   R(10,20)                1.0953         calculate D2E/DX2 analytically  !
 ! R20   R(11,12)                1.3332         calculate D2E/DX2 analytically  !
 ! R21   R(12,21)                0.9712         calculate D2E/DX2 analytically  !
 ! A1    A(2,1,13)             110.9944         calculate D2E/DX2 analytically  !
 ! A2    A(2,1,14)             109.6126         calculate D2E/DX2 analytically  !
 ! A3    A(2,1,15)             110.6773         calculate D2E/DX2 analytically  !
 ! A4    A(13,1,14)            108.2736         calculate D2E/DX2 analytically  !
 ! A5    A(13,1,15)            109.0368         calculate D2E/DX2 analytically  !
 ! A6    A(14,1,15)            108.1684         calculate D2E/DX2 analytically  !
 ! A7    A(1,2,3)              111.5405         calculate D2E/DX2 analytically  !
 ! A8    A(1,2,16)             111.2989         calculate D2E/DX2 analytically  !
 ! A9    A(1,2,17)             111.7093         calculate D2E/DX2 analytically  !
 ! A10   A(3,2,16)             108.4172         calculate D2E/DX2 analytically  !
 ! A11   A(3,2,17)             104.57           calculate D2E/DX2 analytically  !
 ! A12   A(16,2,17)            109.0348         calculate D2E/DX2 analytically  !
 ! A13   A(2,3,4)              117.8021         calculate D2E/DX2 analytically  !
 ! A14   A(3,4,5)              122.6269         calculate D2E/DX2 analytically  !
 ! A15   A(3,4,6)              112.5309         calculate D2E/DX2 analytically  !
 ! A16   A(5,4,6)              124.842          calculate D2E/DX2 analytically  !
 ! A17   A(4,6,7)              117.4497         calculate D2E/DX2 analytically  !
 ! A18   A(4,6,11)             124.6298         calculate D2E/DX2 analytically  !
 ! A19   A(7,6,11)             117.9204         calculate D2E/DX2 analytically  !
 ! A20   A(6,7,8)              119.6901         calculate D2E/DX2 analytically  !
 ! A21   A(6,7,18)             118.7108         calculate D2E/DX2 analytically  !
 ! A22   A(8,7,18)             121.5992         calculate D2E/DX2 analytically  !
 ! A23   A(7,8,9)              122.4065         calculate D2E/DX2 analytically  !
 ! A24   A(7,8,19)             120.7599         calculate D2E/DX2 analytically  !
 ! A25   A(9,8,19)             116.8336         calculate D2E/DX2 analytically  !
 ! A26   A(8,9,10)             118.7128         calculate D2E/DX2 analytically  !
 ! A27   A(9,10,11)            123.8711         calculate D2E/DX2 analytically  !
 ! A28   A(9,10,20)            118.3473         calculate D2E/DX2 analytically  !
 ! A29   A(11,10,20)           117.7816         calculate D2E/DX2 analytically  !
 ! A30   A(6,11,10)            117.399          calculate D2E/DX2 analytically  !
 ! A31   A(6,11,12)            125.3091         calculate D2E/DX2 analytically  !
 ! A32   A(10,11,12)           117.2919         calculate D2E/DX2 analytically  !
 ! A33   A(11,12,21)           108.3193         calculate D2E/DX2 analytically  !
 ! D1    D(13,1,2,3)            56.6031         calculate D2E/DX2 analytically  !
 ! D2    D(13,1,2,16)          177.831          calculate D2E/DX2 analytically  !
 ! D3    D(13,1,2,17)          -60.0287         calculate D2E/DX2 analytically  !
 ! D4    D(14,1,2,3)           176.1594         calculate D2E/DX2 analytically  !
 ! D5    D(14,1,2,16)          -62.6126         calculate D2E/DX2 analytically  !
 ! D6    D(14,1,2,17)           59.5277         calculate D2E/DX2 analytically  !
 ! D7    D(15,1,2,3)           -64.6123         calculate D2E/DX2 analytically  !
 ! D8    D(15,1,2,16)           56.6157         calculate D2E/DX2 analytically  !
 ! D9    D(15,1,2,17)          178.756          calculate D2E/DX2 analytically  !
 ! D10   D(1,2,3,4)             83.1532         calculate D2E/DX2 analytically  !
 ! D11   D(16,2,3,4)           -39.7368         calculate D2E/DX2 analytically  !
 ! D12   D(17,2,3,4)          -155.9507         calculate D2E/DX2 analytically  !
 ! D13   D(2,3,4,5)              1.17           calculate D2E/DX2 analytically  !
 ! D14   D(2,3,4,6)           -178.9766         calculate D2E/DX2 analytically  !
 ! D15   D(3,4,6,7)           -179.3804         calculate D2E/DX2 analytically  !
 ! D16   D(3,4,6,11)             0.7585         calculate D2E/DX2 analytically  !
 ! D17   D(5,4,6,7)              0.4692         calculate D2E/DX2 analytically  !
 ! D18   D(5,4,6,11)          -179.3919         calculate D2E/DX2 analytically  !
 ! D19   D(4,6,7,8)           -179.906          calculate D2E/DX2 analytically  !
 ! D20   D(4,6,7,18)             0.0989         calculate D2E/DX2 analytically  !
 ! D21   D(11,6,7,8)            -0.0354         calculate D2E/DX2 analytically  !
 ! D22   D(11,6,7,18)          179.9695         calculate D2E/DX2 analytically  !
 ! D23   D(4,6,11,10)          179.8604         calculate D2E/DX2 analytically  !
 ! D24   D(4,6,11,12)           -0.0795         calculate D2E/DX2 analytically  !
 ! D25   D(7,6,11,10)           -0.0001         calculate D2E/DX2 analytically  !
 ! D26   D(7,6,11,12)         -179.94           calculate D2E/DX2 analytically  !
 ! D27   D(6,7,8,9)              0.0444         calculate D2E/DX2 analytically  !
 ! D28   D(6,7,8,19)          -179.9729         calculate D2E/DX2 analytically  !
 ! D29   D(18,7,8,9)          -179.9606         calculate D2E/DX2 analytically  !
 ! D30   D(18,7,8,19)            0.0221         calculate D2E/DX2 analytically  !
 ! D31   D(7,8,9,10)            -0.0141         calculate D2E/DX2 analytically  !
 ! D32   D(19,8,9,10)         -179.9974         calculate D2E/DX2 analytically  !
 ! D33   D(8,9,10,11)           -0.0248         calculate D2E/DX2 analytically  !
 ! D34   D(8,9,10,20)          179.9907         calculate D2E/DX2 analytically  !
 ! D35   D(9,10,11,6)            0.0315         calculate D2E/DX2 analytically  !
 ! D36   D(9,10,11,12)         179.9763         calculate D2E/DX2 analytically  !
 ! D37   D(20,10,11,6)        -179.9839         calculate D2E/DX2 analytically  !
 ! D38   D(20,10,11,12)         -0.0391         calculate D2E/DX2 analytically  !
 ! D39   D(6,11,12,21)          -0.1822         calculate D2E/DX2 analytically  !
 ! D40   D(10,11,12,21)        179.8779         calculate D2E/DX2 analytically  !
 --------------------------------------------------------------------------------
 Trust Radius=3.00D-01 FncErr=1.00D-07 GrdErr=1.00D-07 EigMax=2.50D+02 EigMin=1.00D-04
 Number of steps in this run=      2 maximum allowed number of steps=      2.
 GradGradGradGradGradGradGradGradGradGradGradGradGradGradGradGradGradGrad

                          Input orientation:                          
 ---------------------------------------------------------------------
 Center     Atomic      Atomic             Coordinates (Angstroms)
 Number     Number       Type             X           Y           Z
 ---------------------------------------------------------------------
      1          6           0       -3.674780    0.078860    0.893470
      2          6           0       -3.017490    0.275210   -0.456470
      3          8           0       -1.597810    0.453150   -0.330870
      4          6           0       -0.829310   -0.655890   -0.229040
      5          8           0       -1.286780   -1.765770   -0.260710
      6          6           0        0.616620   -0.336100   -0.080340
      7          6           0        1.510090   -1.413040    0.020720
      8          6           0        2.865280   -1.168660    0.162470
      9          7           0        3.369800    0.070390    0.209070
     10          6           0        2.544530    1.094130    0.116160
     11          6           0        1.146690    0.966760   -0.031540
     12          8           0        0.435540    2.091500   -0.112370
     13          1           0       -3.454340    0.921070    1.565220
     14          1           0       -4.765330    0.014800    0.767210
     15          1           0       -3.328820   -0.852850    1.361520
     16          1           0       -3.202650   -0.581410   -1.118810
     17          1           0       -3.368110    1.191340   -0.949450
     18          1           0        1.112980   -2.428700   -0.015100
     19          1           0        3.577360   -1.995020    0.242370
     20          1           0        2.963760    2.105320    0.155140
     21          1           0       -0.500840    1.854070   -0.212560
 ---------------------------------------------------------------------
                    Distance matrix (angstroms):
                    1          2          3          4          5
     1  C    0.000000
     2  C    1.514240   0.000000
     3  O    2.439858   1.436290   0.000000
     4  C    3.145884   2.388892   1.353119   0.000000
     5  O    3.230687   2.683147   2.241711   1.200881   0.000000
     6  C    4.420024   3.704312   2.364187   1.488318   2.387346
     7  C    5.465376   4.855603   3.642159   2.471528   2.833038
     8  C    6.697989   6.088910   4.774183   3.750494   4.216067
     9  N    7.077753   6.425136   5.011506   4.283917   5.027516
    10  C    6.349394   5.651071   4.215409   3.816350   4.795831
    11  C    4.989046   4.242547   2.808144   2.564483   3.666199
    12  O    4.685847   3.916724   2.620390   3.026815   4.226928
    13  H    1.099618   2.166842   2.694589   3.549219   3.905310
    14  H    1.099702   2.149454   3.380993   4.115166   4.040713
    15  H    1.098564   2.162067   2.750675   2.969213   2.763147
    16  H    2.169823   1.098534   2.065593   2.535741   2.410312
    17  H    2.174399   1.097842   2.015323   3.221297   3.681141
    18  H    5.480511   4.956483   3.969024   2.638393   2.501729
    19  H    7.570895   7.009591   5.753653   4.629712   4.895457
    20  H    6.980106   6.284801   4.875838   4.707362   5.764144
    21  H    3.801127   2.980909   1.783232   2.531415   3.704492
                    6          7          8          9         10
     6  C    0.000000
     7  C    1.402962   0.000000
     8  C    2.410101   1.384325   0.000000
     9  N    2.798034   2.386328   1.338640   0.000000
    10  C    2.408528   2.713867   2.285879   1.318236   0.000000
    11  C    1.407409   2.407953   2.747947   2.409064   1.411381
    12  O    2.434555   3.667993   4.075269   3.577442   2.344101
    13  H    4.567391   5.699045   6.802373   7.009400   6.173829
    14  H    5.459566   6.478956   7.745482   8.154444   7.417740
    15  H    4.232315   5.052386   6.316988   6.859448   6.311727
    16  H    3.965529   4.919355   6.229472   6.736854   6.112501
    17  H    4.355054   5.614344   6.757301   6.928068   6.008684
    18  H    2.151652   1.091121   2.165592   3.374750   3.804852
    19  H    3.409126   2.159036   1.093761   2.076080   3.259680
[...]
 Alpha virt. eigenvalues --    0.32092   0.32748   0.34243   0.34992   0.35537
 Alpha virt. eigenvalues --    0.36794   0.37543   0.37768   0.39242   0.40345
 Alpha virt. eigenvalues --    0.40815   0.42589   0.42996   0.43876   0.44947
 Alpha virt. eigenvalues --    0.45123   0.45481   0.46235   0.47189   0.47582
 Alpha virt. eigenvalues --    0.48601   0.49606   0.50470   0.51269   0.51616
 Alpha virt. eigenvalues --    0.52469   0.53371   0.54236   0.55358   0.56310
 Alpha virt. eigenvalues --    0.57030   0.58852   0.59221   0.59711   0.61258
 Alpha virt. eigenvalues --    0.61734   0.63460   0.64210   0.64501   0.65535
 Alpha virt. eigenvalues --    0.67163   0.68489   0.69887   0.70577   0.71653
 Alpha virt. eigenvalues --    0.72438   0.73442   0.74926   0.75442   0.77435
 Alpha virt. eigenvalues --    0.77925   0.80265   0.82377   0.82878   0.83580
 Alpha virt. eigenvalues --    0.84331   0.86275   0.87337   0.88628   0.89907
 Alpha virt. eigenvalues --    0.90584   0.91472   0.92912   0.93418   0.95644
 Alpha virt. eigenvalues --    0.96202   0.97113   0.99871   1.00473   1.02629
 Alpha virt. eigenvalues --    1.04018   1.06115   1.08862   1.11756   1.12600
 Alpha virt. eigenvalues --    1.14161   1.14456   1.16265   1.16851   1.19282
 Alpha virt. eigenvalues --    1.20990   1.22390   1.25472   1.27375   1.28458
 Alpha virt. eigenvalues --    1.30059   1.31569   1.33870   1.34892   1.37420
 Alpha virt. eigenvalues --    1.40097   1.40235   1.43306   1.45080   1.46257
 Alpha virt. eigenvalues --    1.46692   1.50488   1.50962   1.51501   1.55556
 Alpha virt. eigenvalues --    1.55914   1.57509   1.58594   1.60063   1.60199
 Alpha virt. eigenvalues --    1.60750   1.62144   1.62957   1.63782   1.65695
 Alpha virt. eigenvalues --    1.66683   1.67670   1.68813   1.72373   1.74316
 Alpha virt. eigenvalues --    1.76150   1.76624   1.79102   1.79469   1.80623
 Alpha virt. eigenvalues --    1.82005   1.83299   1.86102   1.87219   1.87641
 Alpha virt. eigenvalues --    1.88010   1.90361   1.90895   1.95152   1.96741
 Alpha virt. eigenvalues --    1.98228   1.98368   1.99884   2.01099   2.03445
 Alpha virt. eigenvalues --    2.03914   2.05389   2.07371   2.08079   2.09982
 Alpha virt. eigenvalues --    2.12454   2.13925   2.15788   2.17024   2.19617
 Alpha virt. eigenvalues --    2.23387   2.25309   2.26706   2.27149   2.30132
 Alpha virt. eigenvalues --    2.32351   2.35051   2.36352   2.36889   2.38139
 Alpha virt. eigenvalues --    2.39570   2.40800   2.43426   2.43654   2.46147
 Alpha virt. eigenvalues --    2.47345   2.48445   2.49504   2.50480   2.51120
 Alpha virt. eigenvalues --    2.54491   2.55566   2.56835   2.57943   2.60295
 Alpha virt. eigenvalues --    2.63598   2.64425   2.64984   2.66586   2.67602
 Alpha virt. eigenvalues --    2.69139   2.69983   2.70516   2.72161   2.73761
 Alpha virt. eigenvalues --    2.75120   2.76858   2.79190   2.81959   2.84061
 Alpha virt. eigenvalues --    2.84469   2.86027   2.87350   2.88798   2.89038
 Alpha virt. eigenvalues --    2.92149   2.92871   2.95739   2.97097   2.98240
 Alpha virt. eigenvalues --    2.99598   2.99753   3.00954   3.03526   3.03652
 Alpha virt. eigenvalues --    3.04582   3.06447   3.07809   3.08582   3.09234
 Alpha virt. eigenvalues --    3.11765   3.12900   3.14810   3.15555   3.16322
 Alpha virt. eigenvalues --    3.17892   3.18461   3.20164   3.21502   3.22537
 Alpha virt. eigenvalues --    3.24184   3.24769   3.28209   3.29450   3.30198
 Alpha virt. eigenvalues --    3.32697   3.33099   3.33235   3.34668   3.36792
 Alpha virt. eigenvalues --    3.37311   3.38254   3.39167   3.42058   3.42374
 Alpha virt. eigenvalues --    3.42709   3.44452   3.46319   3.47032   3.48881
 Alpha virt. eigenvalues --    3.49843   3.51212   3.51863   3.53066   3.53305
 Alpha virt. eigenvalues --    3.54360   3.55677   3.57874   3.60396   3.61901
 Alpha virt. eigenvalues --    3.63011   3.64629   3.68437   3.70333   3.72015
 Alpha virt. eigenvalues --    3.74241   3.74588   3.81156   3.84765   3.87360
 Alpha virt. eigenvalues --    3.91140   3.92950   3.95234   3.96200   3.96756
 Alpha virt. eigenvalues --    4.00406   4.04123   4.05736   4.08842   4.10319
 Alpha virt. eigenvalues --    4.14526   4.14925   4.18416   4.22537   4.24416
 Alpha virt. eigenvalues --    4.27643   4.29123   4.30440   4.35228   4.38618
 Alpha virt. eigenvalues --    4.38650   4.41714   4.44139   4.48683   4.49806
 Alpha virt. eigenvalues --    4.50612   4.51149   4.54572   4.56043   4.59203
 Alpha virt. eigenvalues --    4.60085   4.60788   4.67237   4.76219   4.80131
 Alpha virt. eigenvalues --    4.82134   4.83736   4.89596   4.94145   4.97998
 Alpha virt. eigenvalues --    4.98992   5.10787   5.15328   5.16510   5.19741
 Alpha virt. eigenvalues --    5.23059   5.25665   5.31503   5.32177   5.32911
 Alpha virt. eigenvalues --    5.35408   5.38855   5.42359   5.50078   5.54621
 Alpha virt. eigenvalues --    5.57061   5.57189   5.60534   5.69068   5.71807
 Alpha virt. eigenvalues --    5.74924   5.77395   5.84452   5.93448   5.95556
 Alpha virt. eigenvalues --    6.03297   6.05301   6.15823   6.22525   6.27952
 Alpha virt. eigenvalues --    6.30136   6.43172   6.44782   6.50407   6.51318
 Alpha virt. eigenvalues --    6.57547   6.66989   6.71970   6.81444   6.85483
 Alpha virt. eigenvalues --    6.87453   6.91282   6.99682   7.03544   7.12393
 Alpha virt. eigenvalues --    7.15435   7.22880   7.41823   7.44479   7.58063
 Alpha virt. eigenvalues --   22.39968  22.51076  22.56750  22.82878  22.92639
 Alpha virt. eigenvalues --   23.00125  23.28309  23.58755  32.51433  44.04233
 Alpha virt. eigenvalues --   44.08985  44.32673
          Condensed to atoms (all electrons):
               1          2          3          4          5          6
     1  C    4.968619   0.313072  -0.040199   0.001352  -0.013140  -0.001611
     2  C    0.313072   4.827766   0.181926  -0.030903   0.012621   0.008365
     3  O   -0.040199   0.181926   8.093520   0.333604  -0.084947  -0.131231
     4  C    0.001352  -0.030903   0.333604   4.495086   0.636518   0.267547
     5  O   -0.013140   0.012621  -0.084947   0.636518   7.875786  -0.131839
     6  C   -0.001611   0.008365  -0.131231   0.267547  -0.131839   5.642723
     7  C    0.000167  -0.001247   0.005209  -0.053323   0.028263   0.379003
     8  C   -0.000002  -0.000008  -0.000156   0.004481   0.001767  -0.019863
     9  N   -0.000000  -0.000005   0.000047  -0.001535   0.000018  -0.051378
    10  C    0.000025  -0.000090   0.000996  -0.000913   0.000050  -0.039188
    11  C    0.000188  -0.001547   0.036113  -0.062320   0.002054   0.317282
    12  O   -0.000533   0.001845  -0.032733  -0.002668  -0.000216  -0.094952
    13  H    0.395377  -0.028941   0.003721  -0.003075   0.000381  -0.000933
    14  H    0.398880  -0.032450   0.003941   0.000693   0.000202   0.000008
    15  H    0.416019  -0.038089  -0.002297   0.003963   0.005272   0.002530
    16  H   -0.038940   0.422557  -0.026990  -0.014657   0.008859  -0.000280
    17  H   -0.032754   0.402391  -0.032417   0.004585   0.001226   0.002969
    18  H    0.000027  -0.000103   0.000752  -0.010344   0.014096  -0.043425
    19  H   -0.000000  -0.000001   0.000001  -0.000567  -0.000086   0.005626
    20  H    0.000001  -0.000005  -0.000002  -0.000086   0.000005   0.006843
    21  H   -0.000224  -0.000619   0.038236  -0.011639   0.000412  -0.011406
               7          8          9         10         11         12
     1  C    0.000167  -0.000002  -0.000000   0.000025   0.000188  -0.000533
     2  C   -0.001247  -0.000008  -0.000005  -0.000090  -0.001547   0.001845
     3  O    0.005209  -0.000156   0.000047   0.000996   0.036113  -0.032733
     4  C   -0.053323   0.004481  -0.001535  -0.000913  -0.062320  -0.002668
     5  O    0.028263   0.001767   0.000018   0.000050   0.002054  -0.000216
     6  C    0.379003  -0.019863  -0.051378  -0.039188   0.317282  -0.094952
     7  C    5.040607   0.507260  -0.052158  -0.019877  -0.050684   0.007121
     8  C    0.507260   4.780805   0.488452  -0.109585  -0.024035  -0.001090
     9  N   -0.052158   0.488452   6.410393   0.539415  -0.041871   0.003465
    10  C   -0.019877  -0.109585   0.539415   4.840372   0.488135  -0.056125
    11  C   -0.050684  -0.024035  -0.041871   0.488135   4.816706   0.376855
    12  O    0.007121  -0.001090   0.003465  -0.056125   0.376855   7.895344
    13  H   -0.000018  -0.000000   0.000000   0.000000  -0.000008   0.000104
    14  H   -0.000002   0.000000  -0.000000  -0.000000  -0.000001   0.000004
    15  H    0.000015  -0.000001   0.000000   0.000000  -0.000132   0.000033
    16  H   -0.000210  -0.000003   0.000000   0.000010   0.000224  -0.000132
    17  H    0.000031  -0.000002  -0.000000  -0.000013  -0.000563   0.000337
    18  H    0.406784  -0.032962   0.006541  -0.000943   0.008266  -0.000022
    19  H   -0.071311   0.440155  -0.030627   0.003506   0.000848   0.000013
    20  H    0.000228   0.002830  -0.025353   0.433207  -0.079915   0.007079
    21  H   -0.002269   0.000329  -0.000635   0.003593  -0.015572   0.308305
              13         14         15         16         17         18
     1  C    0.395377   0.398880   0.416019  -0.038940  -0.032754   0.000027
     2  C   -0.028941  -0.032450  -0.038089   0.422557   0.402391  -0.000103
     3  O    0.003721   0.003941  -0.002297  -0.026990  -0.032417   0.000752
     4  C   -0.003075   0.000693   0.003963  -0.014657   0.004585  -0.010344
     5  O    0.000381   0.000202   0.005272   0.008859   0.001226   0.014096
     6  C   -0.000933   0.000008   0.002530  -0.000280   0.002969  -0.043425
     7  C   -0.000018  -0.000002   0.000015  -0.000210   0.000031   0.406784
     8  C   -0.000000   0.000000  -0.000001  -0.000003  -0.000002  -0.032962
     9  N    0.000000  -0.000000   0.000000   0.000000  -0.000000   0.006541
    10  C    0.000000  -0.000000   0.000000   0.000010  -0.000013  -0.000943
    11  C   -0.000008  -0.000001  -0.000132   0.000224  -0.000563   0.008266
    12  O    0.000104   0.000004   0.000033  -0.000132   0.000337  -0.000022
    13  H    0.551534  -0.017746  -0.022139   0.006284  -0.005269  -0.000002
    14  H   -0.017746   0.541152  -0.019048   0.000152  -0.002509  -0.000000
    15  H   -0.022139  -0.019048   0.503081  -0.004954   0.004715   0.000014
    16  H    0.006284   0.000152  -0.004954   0.541644  -0.028553  -0.000015
    17  H   -0.005269  -0.002509   0.004715  -0.028553   0.562499   0.000001
    18  H   -0.000002  -0.000000   0.000014  -0.000015   0.000001   0.489418
    19  H    0.000000  -0.000000   0.000000   0.000000   0.000000  -0.001135
    20  H   -0.000000  -0.000000  -0.000000  -0.000000   0.000000   0.000111
    21  H    0.000422   0.000014  -0.000044   0.000655  -0.001256  -0.000087
              19         20         21
     1  C   -0.000000   0.000001  -0.000224
     2  C   -0.000001  -0.000005  -0.000619
     3  O    0.000001  -0.000002   0.038236
     4  C   -0.000567  -0.000086  -0.011639
     5  O   -0.000086   0.000005   0.000412
     6  C    0.005626   0.006843  -0.011406
     7  C   -0.071311   0.000228  -0.002269
     8  C    0.440155   0.002830   0.000329
     9  N   -0.030627  -0.025353  -0.000635
    10  C    0.003506   0.433207   0.003593
    11  C    0.000848  -0.079915  -0.015572
    12  O    0.000013   0.007079   0.308305
    13  H    0.000000  -0.000000   0.000422
    14  H   -0.000000  -0.000000   0.000014
    15  H    0.000000  -0.000000  -0.000044
    16  H    0.000000  -0.000000   0.000655
    17  H    0.000000   0.000000  -0.001256
    18  H   -0.001135   0.000111  -0.000087
    19  H    0.522105  -0.000116  -0.000002
    20  H   -0.000116   0.515287  -0.000712
    21  H   -0.000002  -0.000712   0.343525
 Mulliken charges:
               1
     1  C   -0.366323
     2  C   -0.036536
     3  O   -0.347092
     4  C    0.444202
     5  O   -0.357303
     6  C   -0.106791
     7  C   -0.123589
     8  C   -0.038372
     9  N   -0.244768
    10  C   -0.082574
    11  C    0.229977
    12  O   -0.412034
    13  H    0.120310
    14  H    0.126712
    15  H    0.151064
    16  H    0.134349
    17  H    0.124582
    18  H    0.163028
    19  H    0.131590
    20  H    0.140596
    21  H    0.348974
 Sum of Mulliken charges =  -0.00000
 Mulliken charges with hydrogens summed into heavy atoms:
               1
     1  C    0.031763
     2  C    0.222394
     3  O   -0.347092
     4  C    0.444202
     5  O   -0.357303
     6  C   -0.106791
     7  C    0.039439
     8  C    0.093219
     9  N   -0.244768
    10  C    0.058022
    11  C    0.229977
    12  O   -0.063060
 Electronic spatial extent (au):  <R**2>=           2269.5446
 Charge=              0.0000 electrons
 Dipole moment (field-independent basis, Debye):
    X=             -3.7221    Y=              0.7057    Z=             -0.1742  Tot=              3.7924
 Quadrupole moment (field-independent basis, Debye-Ang):
   XX=            -68.1662   YY=            -71.5910   ZZ=            -69.9960
   XY=             -6.7912   XZ=              0.0102   YZ=             -0.8321
 Traceless Quadrupole moment (field-independent basis, Debye-Ang):
   XX=              1.7515   YY=             -1.6733   ZZ=             -0.0783
   XY=             -6.7912   XZ=              0.0102   YZ=             -0.8321
 Octapole moment (field-independent basis, Debye-Ang**2):
  XXX=            -93.0937  YYY=              2.4760  ZZZ=             -3.8123  XYY=              9.8593
  XXY=              3.8706  XXZ=             -5.5353  XZZ=            -11.0201  YZZ=              2.1863
  YYZ=              1.1302  XYZ=              1.2626
 Hexadecapole moment (field-independent basis, Debye-Ang**3):
 XXXX=          -2317.5192 YYYY=           -610.0723 ZZZZ=           -145.2335 XXXY=            -30.9336
 XXXZ=              1.6140 YYYX=            -27.9394 YYYZ=             -4.0965 ZZZX=              4.7369
 ZZZY=              0.8774 XXYY=           -434.7875 XXZZ=           -407.8847 YYZZ=           -125.5126
 XXYZ=             -6.2061 YYXZ=              4.5581 ZZXY=              3.7597
 N-N= 6.928887843300D+02 E-N=-2.766156689505D+03  KE= 5.879288143769D+02
 Breneman (CHELPG) radii used.
 Read replacement radii for each type of atom:
 Atom Element Radius
    1     6    1.50
    2     6    1.50
    3     8    1.70
    4     6    1.50
    5     8    1.70
    6     6    1.50
    7     6    1.50
    8     6    1.50
    9     7    1.70
   10     6    1.50
   11     6    1.50
   12     8    1.70
   13     1    1.45
   14     1    1.45
   15     1    1.45
   16     1    1.45
   17     1    1.45
   18     1    1.45
   19     1    1.45
   20     1    1.45
   21     1    1.45
 Generate Potential Derived Charges using the Breneman model, NDens= 1.
 Grid spacing= 0.300 Box extension= 2.800
 NStep X,Y,Z=   48     35     29   Total possible points=       48720
 Number of Points to Fit=   13664

 **********************************************************************

            Electrostatic Properties Using The SCF Density.

 **********************************************************************

       Atomic Center    1 is at  -3.674780  0.078864  0.893470
       Atomic Center    2 is at  -3.017490  0.275213 -0.456470
       Atomic Center    3 is at  -1.597809  0.453152 -0.330870
       Atomic Center    4 is at  -0.829311 -0.655889 -0.229040
       Atomic Center    5 is at  -1.286782 -1.765769 -0.260710
       Atomic Center    6 is at   0.616620 -0.336101 -0.080340
       Atomic Center    7 is at   1.510089 -1.413042  0.020720
       Atomic Center    8 is at   2.865279 -1.168663  0.162470
       Atomic Center    9 is at   3.369800  0.070386  0.209070
       Atomic Center   10 is at   2.544531  1.094127  0.116160
       Atomic Center   11 is at   1.146691  0.966759 -0.031540
       Atomic Center   12 is at   0.435542  2.091499 -0.112370
       Atomic Center   13 is at  -3.454339  0.921074  1.565220
       Atomic Center   14 is at  -4.765330  0.014805  0.767210
       Atomic Center   15 is at  -3.328821 -0.852846  1.361520
       Atomic Center   16 is at  -3.202651 -0.581407 -1.118810
       Atomic Center   17 is at  -3.368109  1.191344 -0.949450
       Atomic Center   18 is at   1.112977 -2.428701 -0.015100
       Atomic Center   19 is at   3.577358 -1.995024  0.242370
       Atomic Center   20 is at   2.963762  2.105317  0.155140
       Atomic Center   21 is at  -0.500838  1.854070 -0.212560
   13664 points will be used for fitting atomic charges
 Fitting point charges to electrostatic potential
 Charges from ESP fit, RMS=   0.00311 RRMS=   0.20597:
 ESP charges:
               1
     1  C   -0.212745
     2  C    0.298008
     3  O   -0.456037
     4  C    0.652849
     5  O   -0.467133
     6  C   -0.078572
     7  C   -0.260001
     8  C    0.308081
     9  N   -0.567752
    10  C    0.269265
    11  C    0.195710
    12  O   -0.583458
    13  H    0.063989
    14  H    0.057450
    15  H    0.075608
    16  H    0.008378
    17  H    0.019382
    18  H    0.119106
    19  H    0.036936
    20  H    0.066739
    21  H    0.454199
 Sum of ESP charges =   0.00000
 ESP charges with hydrogens summed into heavy atoms:
               1
     1  C   -0.015698
     2  C    0.325768
     3  O   -0.456037
     4  C    0.652849
     5  O   -0.467133
     6  C   -0.078572
     7  C   -0.140894
     8  C    0.345017
     9  N   -0.567752
    10  C    0.336004
    11  C    0.195710
    12  O   -0.129260
 Charge=   0.00000 Dipole=    -3.5966     0.7000    -0.1905 Tot=     3.6690
 -----------------------------------------------------------------

              Electrostatic Properties (Atomic Units)

 -----------------------------------------------------------------
    Center     Electric         -------- Electric Field --------
               Potential          X             Y             Z
 -----------------------------------------------------------------
    1 Atom    -14.756081
    2 Atom    -14.688160
    3 Atom    -22.283775
    4 Atom    -14.618931
    5 Atom    -22.361547
    6 Atom    -14.731982
    7 Atom    -14.750494
    8 Atom    -14.738348
    9 Atom    -18.389522
   10 Atom    -14.733765
   11 Atom    -14.681141
   12 Atom    -22.317326
   13 Atom     -1.100207
   14 Atom     -1.094204
   15 Atom     -1.102812
   16 Atom     -1.091875
   17 Atom     -1.088303
   18 Atom     -1.089108
   19 Atom     -1.105067
   20 Atom     -1.099337
   21 Atom     -0.966012
 -----------------------------------------------------------------
 Unable to Open any file for archive entry.
 1\1\GINC-NOTCH432\SP\RwB97XD\def2TZVP\C8H9N1O3\U6053008\12-Jul-2024\0\
 \#N Guess=Read Geom=Check Integral(Ultrafine) Density Pop=(ChelpG,Read
 Radii) NMR wB97XD def2TZVP\\12326192_3\\0,1\C,0,-3.67478,0.07886,0.893
 47\C,0,-3.01749,0.27521,-0.45647\O,0,-1.59781,0.45315,-0.33087\C,0,-0.
 82931,-0.65589,-0.22904\O,0,-1.28678,-1.76577,-0.26071\C,0,0.61662,-0.
 3361,-0.08034\C,0,1.51009,-1.41304,0.02072\C,0,2.86528,-1.16866,0.1624
 7\N,0,3.3698,0.07039,0.20907\C,0,2.54453,1.09413,0.11616\C,0,1.14669,0
 .96676,-0.03154\O,0,0.43554,2.0915,-0.11237\H,0,-3.45434,0.92107,1.565
 22\H,0,-4.76533,0.0148,0.76721\H,0,-3.32882,-0.85285,1.36152\H,0,-3.20
 265,-0.58141,-1.11881\H,0,-3.36811,1.19134,-0.94945\H,0,1.11298,-2.428
 7,-0.0151\H,0,3.57736,-1.99502,0.24237\H,0,2.96376,2.10532,0.15514\H,0
 ,-0.50084,1.85407,-0.21256\\Version=ES64L-G16RevC.01\State=1-A\HF=-590
 .738254\RMSD=1.780e-09\Dipole=-1.4643758,0.2776273,-0.0685256\Quadrupo
 le=1.3022245,-1.2440378,-0.0581867,-5.0490699,0.0075971,-0.618648\PG=C
 01 [X(C8H9N1O3)]\\@
 The archive entry for this job was punched.


 A MAN IS EXACTLY AS GREAT AS THE TIDE SURGING
 BENEATH HIM.      - BISMARCK
 Job cpu time:       0 days  0 hours 26 minutes 37.3 seconds.
 Elapsed time:       0 days  0 hours  1 minutes 44.5 seconds.
 File lengths (MBytes):  RWF=    119 Int=      0 D2E=      0 Chk=     18 Scr=      2
 Normal termination of Gaussian 16 at Fri Jul 12 13:16:23 2024.
