 Entering Gaussian System, Link 0=g16
 Input=12326824_16.com
 Output=12326824_16.log
 Initial command:
 /uufs/chpc.utah.edu/sys/installdir/gaussian16/C01/AVX/g16/l1.exe "/scratch/general/vast/u6053008/1287115-notchpeak.peaks/Gau-1992159.inp" -scrdir="/scratch/general/vast/u6053008/1287115-notchpeak.peaks/"
 Entering Link 1 = /uufs/chpc.utah.edu/sys/installdir/gaussian16/C01/AVX/g16/l1.exe PID=   1992160.
  
 Copyright (c) 1988-2019, Gaussian, Inc.  All Rights Reserved.
  
 This is part of the Gaussian(R) 16 program.  It is based on
 the Gaussian(R) 09 system (copyright 2009, Gaussian, Inc.),
 the Gaussian(R) 03 system (copyright 2003, Gaussian, Inc.),
 the Gaussian(R) 98 system (copyright 1998, Gaussian, Inc.),
 the Gaussian(R) 94 system (copyright 1995, Gaussian, Inc.),
 the Gaussian 92(TM) system (copyright 1992, Gaussian, Inc.),
 the Gaussian 90(TM) system (copyright 1990, Gaussian, Inc.),
 the Gaussian 88(TM) system (copyright 1988, Gaussian, Inc.),
 the Gaussian 86(TM) system (copyright 1986, Carnegie Mellon
 University), and the Gaussian 82(TM) system (copyright 1983,
 Carnegie Mellon University). Gaussian is a federally registered
 trademark of Gaussian, Inc.
  
 This software contains proprietary and confidential information,
 including trade secrets, belonging to Gaussian, Inc.
  
 This software is provided under written license and may be
 used, copied, transmitted, or stored only in accord with that
 written license.
  
 The following legend is applicable only to US Government
 contracts under FAR:
  
                    RESTRICTED RIGHTS LEGEND
  
 Use, reproduction and disclosure by the US Government is
 subject to restrictions as set forth in subparagraphs (a)
 and (c) of the Commercial Computer Software - Restricted
 Rights clause in FAR 52.227-19.
  
 Gaussian, Inc.
 340 Quinnipiac St., Bldg. 40, Wallingford CT 06492
  
  
 ---------------------------------------------------------------
 Warning -- This program may not be used in any manner that
 competes with the business of Gaussian, Inc. or will provide
 assistance to any competitor of Gaussian, Inc.  The licensee
 of this program is prohibited from giving any competitor of
 Gaussian, Inc. access to this program.  By using this program,
 the user acknowledges that Gaussian, Inc. is engaged in the
 business of creating and licensing software in the field of
 computational chemistry and represents and warrants to the
 licensee that it is not a competitor of Gaussian, Inc. and that
 it will not use this program in any manner prohibited above.
 ---------------------------------------------------------------
  

 Cite this work as:
 Gaussian 16, Revision C.01,
 M. J. Frisch, G. W. Trucks, H. B. Schlegel, G. E. Scuseria, 
 M. A. Robb, J. R. Cheeseman, G. Scalmani, V. Barone, 
 G. A. Petersson, H. Nakatsuji, X. Li, M. Caricato, A. V. Marenich, 
 J. Bloino, B. G. Janesko, R. Gomperts, B. Mennucci, H. P. Hratchian, 
 J. V. Ortiz, A. F. Izmaylov, J. L. Sonnenberg, D. Williams-Young, 
 F. Ding, F. Lipparini, F. Egidi, J. Goings, B. Peng, A. Petrone, 
 T. Henderson, D. Ranasinghe, V. G. Zakrzewski, J. Gao, N. Rega, 
 G. Zheng, W. Liang, M. Hada, M. Ehara, K. Toyota, R. Fukuda, 
 J. Hasegawa, M. Ishida, T. Nakajima, Y. Honda, O. Kitao, H. Nakai, 
 T. Vreven, K. Throssell, J. A. Montgomery, Jr., J. E. Peralta, 
 F. Ogliaro, M. J. Bearpark, J. J. Heyd, E. N. Brothers, K. N. Kudin, 
 V. N. Staroverov, T. A. Keith, R. Kobayashi, J. Normand, 
 K. Raghavachari, A. P. Rendell, J. C. Burant, S. S. Iyengar, 
 J. Tomasi, M. Cossi, J. M. Millam, M. Klene, C. Adamo, R. Cammi, 
 J. W. Ochterski, R. L. Martin, K. Morokuma, O. Farkas, 
 J. B. Foresman, and D. J. Fox, Gaussian, Inc., Wallingford CT, 2019.
 
 ******************************************
 Gaussian 16:  ES64L-G16RevC.01  3-Jul-2019
                12-Jul-2024 
 ******************************************
 %NProcShared=16
 Will use up to   16 processors via shared memory.
 %Mem=32GB
 %chk=12326824_16.chk
 ------------------------------------------------------
 #N OPT FREQ=NORAMAN Integral(Ultrafine) wB97XD def2SVP
 ------------------------------------------------------
 1/18=20,19=15,26=4,38=1/1,3;
 2/9=110,12=2,17=6,18=5,40=1/2;
 3/5=43,7=101,11=2,25=1,30=1,71=1,74=-58,75=-5/1,2,3;
 4//1;
 5/5=2,38=5/2;
 6/7=2,8=2,9=2,10=2,28=1/1;
 7//1,2,3,16;
 1/18=20,19=15,26=4/3(2);
 2/9=110/2;
 99//99;
 2/9=110/2;
 3/5=43,7=101,11=2,25=1,30=1,71=1,74=-58,75=-5/1,2,3;
 4/5=5,16=3,69=1/1;
 5/5=2,38=5/2;
 7//1,2,3,16;
 1/18=20,19=15,26=4/3(-5);
 2/9=110/2;
 6/7=2,8=2,9=2,10=2,19=2,28=1/1;
 99/9=1/99;
 -----------
 12326824_16
 -----------
 Symbolic Z-matrix:
 Charge =  0 Multiplicity = 1
 C                     3.94277  -0.822    -0.52446 
 C                     3.22677   0.00358   0.52574 
 O                     1.85979  -0.39083   0.66629 
 C                     0.98311   0.09523  -0.21906 
 O                     1.28182   0.89758  -1.07014 
 C                    -0.36588  -0.51031  -0.04754 
 C                    -0.42965  -1.86299   0.3395 
 N                    -1.5298   -2.59466   0.38551 
 C                    -2.66804  -1.98569   0.03829 
 C                    -2.74563  -0.65445  -0.32925 
 C                    -1.58278   0.13367  -0.36366 
 O                    -1.78344   1.41105  -0.69266 
 C                    -1.00309   2.5109   -0.22744 
 C                    -0.81929   2.52204   1.27896 
 H                     3.50983  -0.64522  -1.51878 
 H                     3.87725  -1.89472  -0.29139 
 H                     5.00551  -0.54071  -0.55868 
 H                     3.66283  -0.14973   1.52157 
 H                     3.26658   1.07424   0.27868 
 H                     0.50574  -2.36348   0.60678 
 H                    -3.57813  -2.5943    0.07145 
 H                    -3.6979   -0.18338  -0.57495 
 H                    -1.58833   3.38616  -0.53963 
 H                    -0.04025   2.53505  -0.75309 
 H                    -1.79027   2.46808   1.79321 
 H                    -0.32359   3.45824   1.57432 
 H                    -0.19581   1.69003   1.63761 
 

 GradGradGradGradGradGradGradGradGradGradGradGradGradGradGradGradGradGrad
 Berny optimization.
 Initialization pass.
                           ----------------------------
                           !    Initial Parameters    !
                           ! (Angstroms and Degrees)  !
 --------------------------                            --------------------------
 ! Name  Definition              Value          Derivative Info.                !
 --------------------------------------------------------------------------------
 ! R1    R(1,2)                  1.5156         estimate D2E/DX2                !
 ! R2    R(1,15)                 1.0988         estimate D2E/DX2                !
 ! R3    R(1,16)                 1.0997         estimate D2E/DX2                !
 ! R4    R(1,17)                 1.0999         estimate D2E/DX2                !
 ! R5    R(2,3)                  1.4297         estimate D2E/DX2                !
 ! R6    R(2,18)                 1.0979         estimate D2E/DX2                !
 ! R7    R(2,19)                 1.0995         estimate D2E/DX2                !
 ! R8    R(3,4)                  1.3374         estimate D2E/DX2                !
 ! R9    R(4,5)                  1.2072         estimate D2E/DX2                !
 ! R10   R(4,6)                  1.4886         estimate D2E/DX2                !
 ! R11   R(6,7)                  1.4084         estimate D2E/DX2                !
 ! R12   R(6,11)                 1.4126         estimate D2E/DX2                !
 ! R13   R(7,8)                  1.322          estimate D2E/DX2                !
 ! R14   R(7,20)                 1.094          estimate D2E/DX2                !
 ! R15   R(8,9)                  1.3368         estimate D2E/DX2                !
 ! R16   R(9,10)                 1.3832         estimate D2E/DX2                !
 ! R17   R(9,21)                 1.0953         estimate D2E/DX2                !
 ! R18   R(10,11)                1.4052         estimate D2E/DX2                !
 ! R19   R(10,22)                1.0905         estimate D2E/DX2                !
 ! R20   R(11,12)                1.3342         estimate D2E/DX2                !
 ! R21   R(12,13)                1.4266         estimate D2E/DX2                !
 ! R22   R(13,14)                1.5176         estimate D2E/DX2                !
 ! R23   R(13,23)                1.0982         estimate D2E/DX2                !
 ! R24   R(13,24)                1.0972         estimate D2E/DX2                !
 ! R25   R(14,25)                1.1001         estimate D2E/DX2                !
 ! R26   R(14,26)                1.0997         estimate D2E/DX2                !
 ! R27   R(14,27)                1.0998         estimate D2E/DX2                !
 ! A1    A(2,1,15)             110.6865         estimate D2E/DX2                !
 ! A2    A(2,1,16)             110.8758         estimate D2E/DX2                !
 ! A3    A(2,1,17)             109.7984         estimate D2E/DX2                !
 ! A4    A(15,1,16)            108.9807         estimate D2E/DX2                !
 ! A5    A(15,1,17)            108.1443         estimate D2E/DX2                !
 ! A6    A(16,1,17)            108.2785         estimate D2E/DX2                !
 ! A7    A(1,2,3)              111.6874         estimate D2E/DX2                !
 ! A8    A(1,2,18)             111.3957         estimate D2E/DX2                !
 ! A9    A(1,2,19)             110.9536         estimate D2E/DX2                !
 ! A10   A(3,2,18)             104.6003         estimate D2E/DX2                !
 ! A11   A(3,2,19)             108.9864         estimate D2E/DX2                !
 ! A12   A(18,2,19)            108.9904         estimate D2E/DX2                !
 ! A13   A(2,3,4)              117.4789         estimate D2E/DX2                !
 ! A14   A(3,4,5)              123.0969         estimate D2E/DX2                !
 ! A15   A(3,4,6)              111.7106         estimate D2E/DX2                !
 ! A16   A(5,4,6)              125.1584         estimate D2E/DX2                !
 ! A17   A(4,6,7)              117.6062         estimate D2E/DX2                !
 ! A18   A(4,6,11)             124.711          estimate D2E/DX2                !
 ! A19   A(7,6,11)             117.4085         estimate D2E/DX2                !
 ! A20   A(6,7,8)              125.3651         estimate D2E/DX2                !
 ! A21   A(6,7,20)             117.8917         estimate D2E/DX2                !
 ! A22   A(8,7,20)             116.7315         estimate D2E/DX2                !
 ! A23   A(7,8,9)              116.5774         estimate D2E/DX2                !
 ! A24   A(8,9,10)             123.725          estimate D2E/DX2                !
 ! A25   A(8,9,21)             116.5185         estimate D2E/DX2                !
 ! A26   A(10,9,21)            119.7484         estimate D2E/DX2                !
 ! A27   A(9,10,11)            119.9918         estimate D2E/DX2                !
 ! A28   A(9,10,22)            121.6423         estimate D2E/DX2                !
 ! A29   A(11,10,22)           118.3507         estimate D2E/DX2                !
 ! A30   A(6,11,10)            116.8542         estimate D2E/DX2                !
 ! A31   A(6,11,12)            128.4027         estimate D2E/DX2                !
 ! A32   A(10,11,12)           114.7428         estimate D2E/DX2                !
 ! A33   A(11,12,13)           125.1309         estimate D2E/DX2                !
 ! A34   A(12,13,14)           113.3044         estimate D2E/DX2                !
 ! A35   A(12,13,23)           103.312          estimate D2E/DX2                !
 ! A36   A(12,13,24)           109.9227         estimate D2E/DX2                !
 ! A37   A(14,13,23)           109.9295         estimate D2E/DX2                !
 ! A38   A(14,13,24)           111.6592         estimate D2E/DX2                !
 ! A39   A(23,13,24)           108.2946         estimate D2E/DX2                !
 ! A40   A(13,14,25)           110.9011         estimate D2E/DX2                !
 ! A41   A(13,14,26)           109.1127         estimate D2E/DX2                !
 ! A42   A(13,14,27)           112.7552         estimate D2E/DX2                !
 ! A43   A(25,14,26)           108.3038         estimate D2E/DX2                !
 ! A44   A(25,14,27)           108.1087         estimate D2E/DX2                !
 ! A45   A(26,14,27)           107.5115         estimate D2E/DX2                !
 ! D1    D(15,1,2,3)            64.5229         estimate D2E/DX2                !
 ! D2    D(15,1,2,18)         -178.9145         estimate D2E/DX2                !
 ! D3    D(15,1,2,19)          -57.2945         estimate D2E/DX2                !
 ! D4    D(16,1,2,3)           -56.548          estimate D2E/DX2                !
 ! D5    D(16,1,2,18)           60.0147         estimate D2E/DX2                !
 ! D6    D(16,1,2,19)         -178.3654         estimate D2E/DX2                !
 ! D7    D(17,1,2,3)          -176.1552         estimate D2E/DX2                !
 ! D8    D(17,1,2,18)          -59.5926         estimate D2E/DX2                !
 ! D9    D(17,1,2,19)           62.0274         estimate D2E/DX2                !
 ! D10   D(1,2,3,4)            -81.519          estimate D2E/DX2                !
 ! D11   D(18,2,3,4)           157.8643         estimate D2E/DX2                !
 ! D12   D(19,2,3,4)            41.4257         estimate D2E/DX2                !
 ! D13   D(2,3,4,5)             -4.2202         estimate D2E/DX2                !
 ! D14   D(2,3,4,6)            173.7525         estimate D2E/DX2                !
 ! D15   D(3,4,6,7)            -35.205          estimate D2E/DX2                !
 ! D16   D(3,4,6,11)           150.9839         estimate D2E/DX2                !
 ! D17   D(5,4,6,7)            142.7176         estimate D2E/DX2                !
 ! D18   D(5,4,6,11)           -31.0935         estimate D2E/DX2                !
 ! D19   D(4,6,7,8)           -171.697          estimate D2E/DX2                !
 ! D20   D(4,6,7,20)             7.0138         estimate D2E/DX2                !
 ! D21   D(11,6,7,8)             2.5738         estimate D2E/DX2                !
 ! D22   D(11,6,7,20)         -178.7154         estimate D2E/DX2                !
 ! D23   D(4,6,11,10)          170.6736         estimate D2E/DX2                !
 ! D24   D(4,6,11,12)           -9.5336         estimate D2E/DX2                !
 ! D25   D(7,6,11,10)           -3.1487         estimate D2E/DX2                !
 ! D26   D(7,6,11,12)          176.6442         estimate D2E/DX2                !
 ! D27   D(6,7,8,9)             -0.268          estimate D2E/DX2                !
 ! D28   D(20,7,8,9)          -178.9922         estimate D2E/DX2                !
 ! D29   D(7,8,9,10)            -1.3693         estimate D2E/DX2                !
 ! D30   D(7,8,9,21)           179.6739         estimate D2E/DX2                !
 ! D31   D(8,9,10,11)            0.5901         estimate D2E/DX2                !
 ! D32   D(8,9,10,22)         -177.9641         estimate D2E/DX2                !
 ! D33   D(21,9,10,11)         179.515          estimate D2E/DX2                !
 ! D34   D(21,9,10,22)           0.9608         estimate D2E/DX2                !
 ! D35   D(9,10,11,6)            1.7559         estimate D2E/DX2                !
 ! D36   D(9,10,11,12)        -178.0653         estimate D2E/DX2                !
 ! D37   D(22,10,11,6)        -179.6427         estimate D2E/DX2                !
 ! D38   D(22,10,11,12)          0.536          estimate D2E/DX2                !
 ! D39   D(6,11,12,13)         -30.8567         estimate D2E/DX2                !
 ! D40   D(10,11,12,13)        148.9398         estimate D2E/DX2                !
 ! D41   D(11,12,13,14)        -49.921          estimate D2E/DX2                !
 ! D42   D(11,12,13,23)       -168.823          estimate D2E/DX2                !
 ! D43   D(11,12,13,24)         75.7816         estimate D2E/DX2                !
 ! D44   D(12,13,14,25)        -53.5843         estimate D2E/DX2                !
 ! D45   D(12,13,14,26)       -172.8016         estimate D2E/DX2                !
 ! D46   D(12,13,14,27)         67.8133         estimate D2E/DX2                !
 ! D47   D(23,13,14,25)         61.4311         estimate D2E/DX2                !
 ! D48   D(23,13,14,26)        -57.7861         estimate D2E/DX2                !
 ! D49   D(23,13,14,27)       -177.1713         estimate D2E/DX2                !
 ! D50   D(24,13,14,25)       -178.3534         estimate D2E/DX2                !
 ! D51   D(24,13,14,26)         62.4293         estimate D2E/DX2                !
 ! D52   D(24,13,14,27)        -56.9558         estimate D2E/DX2                !
 --------------------------------------------------------------------------------
 Trust Radius=3.00D-01 FncErr=1.00D-07 GrdErr=1.00D-06 EigMax=2.50D+02 EigMin=1.00D-04
 Number of steps in this run=    134 maximum allowed number of steps=    162.
 GradGradGradGradGradGradGradGradGradGradGradGradGradGradGradGradGradGrad

                          Input orientation:                          
 ---------------------------------------------------------------------
 Center     Atomic      Atomic             Coordinates (Angstroms)
 Number     Number       Type             X           Y           Z
 ---------------------------------------------------------------------
      1          6           0        3.942770   -0.822000   -0.524460
      2          6           0        3.226770    0.003580    0.525740
      3          8           0        1.859790   -0.390830    0.666290
      4          6           0        0.983110    0.095230   -0.219060
      5          8           0        1.281820    0.897580   -1.070140
      6          6           0       -0.365880   -0.510310   -0.047540
      7          6           0       -0.429650   -1.862990    0.339500
      8          7           0       -1.529800   -2.594660    0.385510
      9          6           0       -2.668040   -1.985690    0.038290
     10          6           0       -2.745630   -0.654450   -0.329250
     11          6           0       -1.582780    0.133670   -0.363660
     12          8           0       -1.783440    1.411050   -0.692660
     13          6           0       -1.003090    2.510900   -0.227440
     14          6           0       -0.819290    2.522040    1.278960
     15          1           0        3.509830   -0.645220   -1.518780
     16          1           0        3.877250   -1.894720   -0.291390
     17          1           0        5.005510   -0.540710   -0.558680
     18          1           0        3.662830   -0.149730    1.521570
     19          1           0        3.266580    1.074240    0.278680
     20          1           0        0.505740   -2.363480    0.606780
     21          1           0       -3.578130   -2.594300    0.071450
     22          1           0       -3.697900   -0.183380   -0.574950
     23          1           0       -1.588330    3.386160   -0.539630
     24          1           0       -0.040250    2.535050   -0.753090
     25          1           0       -1.790270    2.468080    1.793210
     26          1           0       -0.323590    3.458240    1.574320
     27          1           0       -0.195810    1.690030    1.637610
 ---------------------------------------------------------------------
                    Distance matrix (angstroms):
                    1          2          3          4          5
     1  C    0.000000
     2  C    1.515638   0.000000
     3  O    2.437745   1.429667   0.000000
     4  C    3.113546   2.365827   1.337410   0.000000
     5  O    3.214868   2.670000   2.238133   1.207199   0.000000
     6  C    4.346156   3.674217   2.340392   1.488580   2.396410
     7  C    4.576914   4.109523   2.741456   2.478408   3.540757
     8  N    5.824036   5.421759   4.052780   3.730379   4.713795
     9  C    6.735998   6.240480   4.841405   4.210386   5.014305
    10  C    6.693346   6.069067   4.719162   3.804953   4.379277
    11  C    5.609890   4.892824   3.631416   2.570249   3.047721
    12  O    6.148519   5.344874   4.285632   3.099916   3.130808
    13  C    5.971430   4.974500   4.173113   3.127383   2.921260
    14  C    6.091974   4.824996   4.004703   3.373739   3.545674
    15  H    1.098800   2.163591   2.749887   2.936299   2.746914
    16  H    1.099701   2.166649   2.692393   3.513001   3.890970
    17  H    1.099869   2.153168   3.379137   4.086498   4.024442
    18  H    2.171762   1.097875   2.010121   3.204793   3.671924
    19  H    2.167485   1.099516   2.067784   2.533859   2.406200
    20  H    3.933070   3.607429   2.393395   2.637262   3.748183
    21  H    7.749845   7.298084   5.897465   5.303101   6.092255
    22  H    7.667478   7.014095   5.698388   4.702780   5.119697
    23  H    6.949957   5.980138   5.254467   4.188710   3.835653
    24  H    5.214068   4.326334   3.766373   2.699106   2.128309
    25  H    7.004568   5.731573   4.771399   4.167887   4.483635
    26  H    6.397434   5.063522   4.517411   4.029083   4.015905
    27  H    5.302140   3.974220   3.082034   2.716701   3.184851
                    6          7          8          9         10
     6  C    0.000000
     7  C    1.408407   0.000000
     8  N    2.426264   1.322039   0.000000
     9  C    2.735700   2.261896   1.336786   0.000000
    10  C    2.400697   2.696583   2.398654   1.383223   0.000000
    11  C    1.412617   2.410559   2.829814   2.414755   1.405182
    12  O    2.473314   3.690182   4.156019   3.585338   2.307416
    13  C    3.092913   4.447603   5.169127   4.802290   3.614727
    14  C    3.340708   4.501432   5.242490   5.027601   4.048112
    15  H    4.147756   4.522795   5.729268   6.510561   6.367562
    16  H    4.469922   4.352978   5.494024   6.554219   6.738119
    17  H    5.395741   5.665343   6.915236   7.831201   7.755369
    18  H    4.338505   4.591399   5.850788   6.756536   6.689442
    19  H    3.976429   4.721561   6.039661   6.681368   6.285270
    20  H    2.149906   1.094022   2.060541   3.246350   3.790560
    21  H    3.830891   3.243392   2.072267   1.095340   2.148636
    22  H    3.389307   3.786656   3.381924   2.164485   1.090456
    23  H    4.113273   5.446924   6.052232   5.509677   4.208341
    24  H    3.142937   4.548422   5.461602   5.288540   4.203764
    25  H    3.779954   4.766836   5.261255   4.866856   3.894579
    26  H    4.287378   5.463654   6.285365   6.123088   5.138490
    27  H    2.776716   3.789950   4.658954   4.709635   3.983303
                   11         12         13         14         15
    11  C    0.000000
    12  O    1.334243   0.000000
    13  C    2.450677   1.426550   0.000000
    14  C    2.997570   2.459912   1.517612   0.000000
    15  H    5.279739   5.738417   5.656421   6.049807   0.000000
    16  H    5.825077   6.567537   6.575051   6.635605   1.789618
    17  H    6.625586   7.065208   6.747245   6.832690   1.780386
    18  H    5.581293   6.082821   5.648787   5.223659   3.084258
    19  H    4.981322   5.153605   4.533236   4.448710   2.499315
    20  H    3.396973   4.601735   5.170307   5.106450   4.061401
    21  H    3.407721   4.455065   5.725664   5.936852   7.521098
    22  H    2.149162   2.494237   3.826475   4.363791   7.283919
    23  H    3.257252   1.990614   1.098202   2.155318   6.572822
    24  H    2.880569   2.075028   1.097247   2.176304   4.827366
    25  H    3.185060   2.701279   2.168989   1.100076   6.982333
    26  H    4.048962   3.385461   2.146046   1.099739   6.410987
    27  H    2.889814   2.833471   2.191789   1.099817   5.398885
                   16         17         18         19         20
    16  H    0.000000
    17  H    1.782627   0.000000
    18  H    2.525429   2.506610   0.000000
    19  H    3.084254   2.516568   1.788824   0.000000
    20  H    3.520444   4.992867   3.962922   4.421290   0.000000
    21  H    7.496916   8.848343   7.778835   7.768603   4.125270
    22  H    7.771228   8.710757   7.653553   7.128413   4.880565
    23  H    7.604070   7.674594   6.657758   5.439187   6.225572
    24  H    5.931512   5.912511   5.108319   3.759473   5.113017
    25  H    7.449857   7.795308   6.054999   5.459700   5.479348
    26  H    7.055644   6.995756   5.376967   4.500162   5.959559
    27  H    5.758584   6.070718   4.276364   3.770150   4.240958
                   21         22         23         24         25
    21  H    0.000000
    22  H    2.498942   0.000000
    23  H    6.332347   4.146462   0.000000
    24  H    6.285435   4.560702   1.779468   0.000000
    25  H    5.638137   4.034535   2.515113   3.090420   0.000000
    26  H    7.034479   5.409873   2.464457   2.519801   1.783110
    27  H    5.678770   4.546397   3.091334   2.540414   1.780976
                   26         27
    26  H    0.000000
    27  H    1.773950   0.000000
 Stoichiometry    C10H13NO3
 Framework group  C1[X(C10H13NO3)]
 Deg. of freedom    75
 Full point group                 C1      NOp   1
 Largest Abelian subgroup         C1      NOp   1
 Largest concise Abelian subgroup C1      NOp   1
                         Standard orientation:                         
 ---------------------------------------------------------------------
 Center     Atomic      Atomic             Coordinates (Angstroms)
 Number     Number       Type             X           Y           Z
 ---------------------------------------------------------------------
      1          6           0        3.942770   -0.822000   -0.524461
      2          6           0        3.226770    0.003580    0.525739
      3          8           0        1.859790   -0.390830    0.666289
      4          6           0        0.983110    0.095231   -0.219061
      5          8           0        1.281821    0.897580   -1.070141
      6          6           0       -0.365880   -0.510309   -0.047541
      7          6           0       -0.429650   -1.862989    0.339499
      8          7           0       -1.529800   -2.594659    0.385509
      9          6           0       -2.668040   -1.985689    0.038289
     10          6           0       -2.745630   -0.654449   -0.329251
     11          6           0       -1.582780    0.133671   -0.363661
     12          8           0       -1.783439    1.411051   -0.692661
     13          6           0       -1.003089    2.510901   -0.227441
     14          6           0       -0.819289    2.522041    1.278959
     15          1           0        3.509830   -0.645220   -1.518781
     16          1           0        3.877250   -1.894720   -0.291391
     17          1           0        5.005510   -0.540710   -0.558681
     18          1           0        3.662830   -0.149730    1.521569
     19          1           0        3.266581    1.074240    0.278679
     20          1           0        0.505740   -2.363479    0.606779
     21          1           0       -3.578130   -2.594298    0.071449
     22          1           0       -3.697900   -0.183378   -0.574951
     23          1           0       -1.588329    3.386161   -0.539631
     24          1           0       -0.040249    2.535051   -0.753091
     25          1           0       -1.790269    2.468081    1.793209
     26          1           0       -0.323589    3.458241    1.574319
     27          1           0       -0.195809    1.690031    1.637609
 ---------------------------------------------------------------------
 Rotational constants (GHZ):           0.9400325           0.5553817           0.3935892
 Standard basis: def2SVP (5D, 7F)
 There are   275 symmetry adapted cartesian basis functions of A   symmetry.
 There are   261 symmetry adapted basis functions of A   symmetry.
   261 basis functions,   441 primitive gaussians,   275 cartesian basis functions
    52 alpha electrons       52 beta electrons
       nuclear repulsion energy       917.5949856381 Hartrees.
 NAtoms=   27 NActive=   27 NUniq=   27 SFac= 1.00D+00 NAtFMM=   60 NAOKFM=F Big=F
 Integral buffers will be    131072 words long.
 Raffenetti 2 integral format.
 Two-electron integral symmetry is turned on.
 Nuclear repulsion after empirical dispersion term =      917.5782695582 Hartrees.
 One-electron integrals computed using PRISM.
   1 Symmetry operations used in ECPInt.
 ECPInt:  NShTT=    7626 NPrTT=   27482 LenC2=    7301 LenP2D=   19261.
 LDataN:  DoStor=T MaxTD1= 4 Len=   56
 NBasis=   261 RedAO= T EigKep=  5.22D-04  NBF=   261
 NBsUse=   261 1.00D-06 EigRej= -1.00D+00 NBFU=   261
 ExpMin= 1.22D-01 ExpMax= 2.27D+03 ExpMxC= 3.41D+02 IAcc=3 IRadAn=         5 AccDes= 0.00D+00
 Harris functional with IExCor= 4639 and IRadAn=       5 diagonalized for initial guess.
 HarFok:  IExCor= 4639 AccDes= 0.00D+00 IRadAn=         5 IDoV= 1 UseB2=F ITyADJ=14
 ICtDFT=  3500011 ScaDFX=  1.000000  1.000000  1.000000  1.000000
 FoFCou: FMM=F IPFlag=           0 FMFlag=      100000 FMFlg1=           0
         NFxFlg=           0 DoJE=T BraDBF=F KetDBF=T FulRan=T
         wScrn=  0.000000 ICntrl=       500 IOpCl=  0 I1Cent=   200000004 NGrid=           0
         NMat0=    1 NMatS0=      1 NMatT0=    0 NMatD0=    1 NMtDS0=    0 NMtDT0=    0
 Petite list used in FoFCou.
 Requested convergence on RMS density matrix=1.00D-08 within 128 cycles.
 Requested convergence on MAX density matrix=1.00D-06.
 Requested convergence on             energy=1.00D-06.
 No special actions if energy rises.
 Integral accuracy reduced to 1.0D-05 until final iterations.
 Initial convergence to 1.0D-05 achieved.  Increase integral accuracy.
 SCF Done:  E(RwB97XD) =  -668.615099196     A.U. after   16 cycles
            NFock= 16  Conv=0.54D-08     -V/T= 2.0098

 **********************************************************************

            Population analysis using the SCF Density.

 **********************************************************************

 Orbital symmetries:
       Occupied  (A) (A) (A) (A) (A) (A) (A) (A) (A) (A) (A) (A)
                 (A) (A) (A) (A) (A) (A) (A) (A) (A) (A) (A) (A)
                 (A) (A) (A) (A) (A) (A) (A) (A) (A) (A) (A) (A)
                 (A) (A) (A) (A) (A) (A) (A) (A) (A) (A) (A) (A)
                 (A) (A) (A) (A)
       Virtual   (A) (A) (A) (A) (A) (A) (A) (A) (A) (A) (A) (A)
                 (A) (A) (A) (A) (A) (A) (A) (A) (A) (A) (A) (A)
                 (A) (A) (A) (A) (A) (A) (A) (A) (A) (A) (A) (A)
                 (A) (A) (A) (A) (A) (A) (A) (A) (A) (A) (A) (A)
                 (A) (A) (A) (A) (A) (A) (A) (A) (A) (A) (A) (A)
                 (A) (A) (A) (A) (A) (A) (A) (A) (A) (A) (A) (A)
                 (A) (A) (A) (A) (A) (A) (A) (A) (A) (A) (A) (A)
                 (A) (A) (A) (A) (A) (A) (A) (A) (A) (A) (A) (A)
                 (A) (A) (A) (A) (A) (A) (A) (A) (A) (A) (A) (A)
                 (A) (A) (A) (A) (A) (A) (A) (A) (A) (A) (A) (A)
                 (A) (A) (A) (A) (A) (A) (A) (A) (A) (A) (A) (A)
                 (A) (A) (A) (A) (A) (A) (A) (A) (A) (A) (A) (A)
                 (A) (A) (A) (A) (A) (A) (A) (A) (A) (A) (A) (A)
                 (A) (A) (A) (A) (A) (A) (A) (A) (A) (A) (A) (A)
                 (A) (A) (A) (A) (A) (A) (A) (A) (A) (A) (A) (A)
                 (A) (A) (A) (A) (A) (A) (A) (A) (A) (A) (A) (A)
                 (A) (A) (A) (A) (A) (A) (A) (A) (A) (A) (A) (A)
                 (A) (A) (A) (A) (A)
 The electronic state is 1-A.
 Alpha  occ. eigenvalues --  -19.31006 -19.29720 -19.25300 -14.43615 -10.44088
 Alpha  occ. eigenvalues --  -10.39205 -10.36308 -10.35571 -10.34400 -10.34076
 Alpha  occ. eigenvalues --  -10.32272 -10.30697 -10.30398 -10.30217  -1.21336
 Alpha  occ. eigenvalues --   -1.17512  -1.11817  -1.04288  -0.91553  -0.89148
 Alpha  occ. eigenvalues --   -0.85906  -0.85224  -0.77829  -0.75574  -0.73660
 Alpha  occ. eigenvalues --   -0.69385  -0.65347  -0.63728  -0.61367  -0.60989
 Alpha  occ. eigenvalues --   -0.58746  -0.56654  -0.55738  -0.55185  -0.54716
 Alpha  occ. eigenvalues --   -0.53657  -0.52414  -0.50656  -0.49258  -0.48227
 Alpha  occ. eigenvalues --   -0.47951  -0.47263  -0.46554  -0.45527  -0.44004
 Alpha  occ. eigenvalues --   -0.43006  -0.40526  -0.38894  -0.37744  -0.34806
 Alpha  occ. eigenvalues --   -0.33899  -0.33039
 Alpha virt. eigenvalues --    0.01949   0.04998   0.10651   0.13757   0.14998
 Alpha virt. eigenvalues --    0.16210   0.17380   0.18539   0.18712   0.19859
 Alpha virt. eigenvalues --    0.20179   0.20423   0.21606   0.22147   0.22528
 Alpha virt. eigenvalues --    0.23120   0.23854   0.24311   0.25274   0.28687
 Alpha virt. eigenvalues --    0.29587   0.29837   0.31659   0.34644   0.35870
 Alpha virt. eigenvalues --    0.37953   0.39442   0.41028   0.43278   0.46155
 Alpha virt. eigenvalues --    0.46699   0.48751   0.48825   0.49313   0.50685
 Alpha virt. eigenvalues --    0.51411   0.51892   0.52679   0.53654   0.56808
 Alpha virt. eigenvalues --    0.57118   0.59504   0.60118   0.61202   0.61798
 Alpha virt. eigenvalues --    0.62825   0.65199   0.66895   0.67378   0.67911
 Alpha virt. eigenvalues --    0.69119   0.69421   0.71136   0.71603   0.72295
 Alpha virt. eigenvalues --    0.73311   0.73585   0.74282   0.74606   0.74897
 Alpha virt. eigenvalues --    0.75321   0.76152   0.76706   0.77770   0.77846
 Alpha virt. eigenvalues --    0.78815   0.79465   0.79838   0.80493   0.81704
 Alpha virt. eigenvalues --    0.83879   0.84910   0.85236   0.87585   0.89333
 Alpha virt. eigenvalues --    0.95167   0.96478   0.99245   1.00246   1.01027
 Alpha virt. eigenvalues --    1.03218   1.05229   1.09066   1.10254   1.12203
 Alpha virt. eigenvalues --    1.14517   1.15391   1.17348   1.18682   1.20207
 Alpha virt. eigenvalues --    1.22081   1.26666   1.27158   1.30276   1.32897
 Alpha virt. eigenvalues --    1.33859   1.34430   1.36362   1.36894   1.41615
 Alpha virt. eigenvalues --    1.42128   1.43548   1.45986   1.46526   1.47769
 Alpha virt. eigenvalues --    1.52196   1.55501   1.59480   1.60534   1.60794
 Alpha virt. eigenvalues --    1.62809   1.63633   1.67884   1.69482   1.72872
 Alpha virt. eigenvalues --    1.76747   1.77812   1.78453   1.81443   1.82075
 Alpha virt. eigenvalues --    1.82569   1.83008   1.84480   1.85577   1.85731
 Alpha virt. eigenvalues --    1.86304   1.86657   1.87149   1.88133   1.88546
 Alpha virt. eigenvalues --    1.90024   1.91117   1.91821   1.93190   1.93629
 Alpha virt. eigenvalues --    1.94700   1.94946   1.95731   1.96901   1.98120
 Alpha virt. eigenvalues --    2.00546   2.01816   2.02046   2.03758   2.06041
 Alpha virt. eigenvalues --    2.08666   2.10587   2.12070   2.15561   2.16769
 Alpha virt. eigenvalues --    2.19706   2.21243   2.22656   2.26504   2.27644
 Alpha virt. eigenvalues --    2.29922   2.32062   2.35629   2.36293   2.42221
 Alpha virt. eigenvalues --    2.43469   2.44586   2.45961   2.46332   2.47745
 Alpha virt. eigenvalues --    2.48789   2.50707   2.57163   2.58317   2.58747
 Alpha virt. eigenvalues --    2.61205   2.63329   2.64891   2.69673   2.70490
 Alpha virt. eigenvalues --    2.72806   2.73308   2.76595   2.77215   2.79954
 Alpha virt. eigenvalues --    2.82307   2.85155   2.87357   2.88226   2.90673
 Alpha virt. eigenvalues --    2.94178   2.96092   2.98101   2.99506   3.02352
 Alpha virt. eigenvalues --    3.03406   3.05581   3.05900   3.07641   3.09113
 Alpha virt. eigenvalues --    3.10136   3.13241   3.15139   3.16338   3.23716
 Alpha virt. eigenvalues --    3.29897   3.30919   3.40922   3.50856   3.54205
 Alpha virt. eigenvalues --    3.60000   3.69359   3.77423   3.80883
          Condensed to atoms (all electrons):
               1          2          3          4          5          6
     1  C    4.599663   0.444728  -0.037008  -0.006962  -0.008018  -0.001498
     2  C    0.444728   4.465861   0.252979  -0.035684  -0.001034   0.010861
     3  O   -0.037008   0.252979   7.987110   0.385157  -0.081896  -0.147112
     4  C   -0.006962  -0.035684   0.385157   4.621700   0.691149   0.162489
     5  O   -0.008018  -0.001034  -0.081896   0.691149   7.710878  -0.102849
     6  C   -0.001498   0.010861  -0.147112   0.162489  -0.102849   5.952322
     7  C    0.000054  -0.000823   0.010584  -0.035121  -0.000385   0.373458
     8  N   -0.000002  -0.000001   0.000286   0.005917  -0.000011  -0.043461
     9  C   -0.000000   0.000001  -0.000035   0.000951  -0.000022  -0.053469
    10  C    0.000000   0.000005   0.000008   0.009854   0.000200  -0.063476
    11  C   -0.000027  -0.000203  -0.000988  -0.059546   0.006535   0.249461
    12  O   -0.000000   0.000004   0.000007  -0.003051  -0.001436  -0.083206
    13  C    0.000001  -0.000006  -0.000533   0.002236  -0.014410  -0.006137
    14  C   -0.000004  -0.000095  -0.001140   0.001535  -0.000878  -0.000463
    15  H    0.394173  -0.015567  -0.005951   0.004430   0.008410   0.000274
    16  H    0.391190  -0.021085   0.000594  -0.000221   0.000190  -0.000190
    17  H    0.383969  -0.015857   0.003604   0.000195  -0.000077   0.000005
    18  H   -0.025525   0.389859  -0.024241   0.005794   0.000461  -0.000174
    19  H   -0.028138   0.386687  -0.027001  -0.007194   0.017867   0.001558
    20  H   -0.000075  -0.000970   0.011832  -0.010134   0.000165  -0.068142
    21  H   -0.000000   0.000000   0.000000   0.000058  -0.000000   0.000552
    22  H   -0.000000  -0.000000   0.000001  -0.000139   0.000001   0.020030
    23  H    0.000000  -0.000002  -0.000003   0.000021   0.000471  -0.000717
    24  H   -0.000012  -0.000128   0.000290  -0.004731   0.024910   0.003913
    25  H   -0.000000   0.000000   0.000006  -0.000243  -0.000004   0.000930
    26  H    0.000000   0.000001   0.000014  -0.000145  -0.000001  -0.000082
    27  H    0.000044  -0.000072   0.004425   0.001664  -0.001262  -0.000612
               7          8          9         10         11         12
     1  C    0.000054  -0.000002  -0.000000   0.000000  -0.000027  -0.000000
     2  C   -0.000823  -0.000001   0.000001   0.000005  -0.000203   0.000004
     3  O    0.010584   0.000286  -0.000035   0.000008  -0.000988   0.000007
     4  C   -0.035121   0.005917   0.000951   0.009854  -0.059546  -0.003051
     5  O   -0.000385  -0.000011  -0.000022   0.000200   0.006535  -0.001436
     6  C    0.373458  -0.043461  -0.053469  -0.063476   0.249461  -0.083206
     7  C    4.713540   0.554678  -0.072127  -0.045737   0.001560   0.003145
     8  N    0.554678   6.284712   0.503573  -0.033586  -0.056036  -0.000054
     9  C   -0.072127   0.503573   4.731640   0.451823  -0.002537   0.003740
    10  C   -0.045737  -0.033586   0.451823   5.016728   0.480046  -0.077111
    11  C    0.001560  -0.056036  -0.002537   0.480046   4.775136   0.438198
    12  O    0.003145  -0.000054   0.003740  -0.077111   0.438198   7.865894
    13  C    0.000253  -0.000002  -0.000217   0.003333  -0.048404   0.281098
    14  C   -0.000356   0.000001   0.000015   0.000773  -0.001692  -0.050876
    15  H   -0.000100  -0.000001   0.000000  -0.000000  -0.000017  -0.000000
    16  H    0.000030   0.000004  -0.000000  -0.000000  -0.000002  -0.000000
    17  H    0.000005   0.000000   0.000000   0.000000   0.000001   0.000000
    18  H   -0.000058  -0.000001   0.000000  -0.000000   0.000023  -0.000000
    19  H    0.000204   0.000002   0.000000  -0.000002   0.000029  -0.000000
    20  H    0.429971  -0.032295   0.004963   0.000782   0.005307  -0.000057
    21  H    0.005024  -0.039008   0.421213  -0.063121   0.006798  -0.000094
    22  H   -0.000523   0.005376  -0.045224   0.407764  -0.050621   0.002728
    23  H    0.000048  -0.000000  -0.000002   0.000015   0.003858  -0.026081
    24  H   -0.000240   0.000002   0.000050  -0.000537  -0.005707  -0.026602
    25  H   -0.000095   0.000003   0.000057  -0.001066   0.001351   0.001342
    26  H    0.000017   0.000000  -0.000001  -0.000012   0.000081   0.003588
    27  H   -0.000223  -0.000038  -0.000013  -0.000242   0.001912  -0.002084
              13         14         15         16         17         18
     1  C    0.000001  -0.000004   0.394173   0.391190   0.383969  -0.025525
     2  C   -0.000006  -0.000095  -0.015567  -0.021085  -0.015857   0.389859
     3  O   -0.000533  -0.001140  -0.005951   0.000594   0.003604  -0.024241
     4  C    0.002236   0.001535   0.004430  -0.000221   0.000195   0.005794
     5  O   -0.014410  -0.000878   0.008410   0.000190  -0.000077   0.000461
     6  C   -0.006137  -0.000463   0.000274  -0.000190   0.000005  -0.000174
     7  C    0.000253  -0.000356  -0.000100   0.000030   0.000005  -0.000058
     8  N   -0.000002   0.000001  -0.000001   0.000004   0.000000  -0.000001
     9  C   -0.000217   0.000015   0.000000  -0.000000   0.000000   0.000000
    10  C    0.003333   0.000773  -0.000000  -0.000000   0.000000  -0.000000
    11  C   -0.048404  -0.001692  -0.000017  -0.000002   0.000001   0.000023
    12  O    0.281098  -0.050876  -0.000000  -0.000000   0.000000  -0.000000
    13  C    4.487557   0.428963  -0.000003   0.000000   0.000000   0.000000
    14  C    0.428963   4.647936   0.000000   0.000000   0.000000   0.000021
    15  H   -0.000003   0.000000   0.595191  -0.023522  -0.017317   0.006451
    16  H    0.000000   0.000000  -0.023522   0.618321  -0.017144  -0.009255
    17  H    0.000000   0.000000  -0.017317  -0.017144   0.617145  -0.003090
    18  H    0.000000   0.000021   0.006451  -0.009255  -0.003090   0.640274
    19  H    0.000002   0.000083  -0.010217   0.007302  -0.001539  -0.028547
    20  H    0.000003  -0.000008  -0.000135   0.000692   0.000004  -0.000148
    21  H    0.000006   0.000001   0.000000   0.000000   0.000000  -0.000000
    22  H   -0.000171  -0.000056   0.000000   0.000000  -0.000000   0.000000
    23  H    0.383838  -0.019303  -0.000000  -0.000000   0.000000   0.000000
    24  H    0.395512  -0.036140   0.000028  -0.000000   0.000000   0.000011
    25  H   -0.016802   0.381043   0.000000   0.000000  -0.000000   0.000000
    26  H   -0.010855   0.377908   0.000000  -0.000000  -0.000000  -0.000001
    27  H   -0.024902   0.398438   0.000000   0.000000  -0.000002  -0.000101
              19         20         21         22         23         24
     1  C   -0.028138  -0.000075  -0.000000  -0.000000   0.000000  -0.000012
     2  C    0.386687  -0.000970   0.000000  -0.000000  -0.000002  -0.000128
     3  O   -0.027001   0.011832   0.000000   0.000001  -0.000003   0.000290
     4  C   -0.007194  -0.010134   0.000058  -0.000139   0.000021  -0.004731
     5  O    0.017867   0.000165  -0.000000   0.000001   0.000471   0.024910
     6  C    0.001558  -0.068142   0.000552   0.020030  -0.000717   0.003913
     7  C    0.000204   0.429971   0.005024  -0.000523   0.000048  -0.000240
     8  N    0.000002  -0.032295  -0.039008   0.005376  -0.000000   0.000002
     9  C    0.000000   0.004963   0.421213  -0.045224  -0.000002   0.000050
    10  C   -0.000002   0.000782  -0.063121   0.407764   0.000015  -0.000537
    11  C    0.000029   0.005307   0.006798  -0.050621   0.003858  -0.005707
    12  O   -0.000000  -0.000057  -0.000094   0.002728  -0.026081  -0.026602
    13  C    0.000002   0.000003   0.000006  -0.000171   0.383838   0.395512
    14  C    0.000083  -0.000008   0.000001  -0.000056  -0.019303  -0.036140
    15  H   -0.010217  -0.000135   0.000000   0.000000  -0.000000   0.000028
    16  H    0.007302   0.000692   0.000000   0.000000  -0.000000  -0.000000
    17  H   -0.001539   0.000004   0.000000  -0.000000   0.000000   0.000000
    18  H   -0.028547  -0.000148  -0.000000   0.000000   0.000000   0.000011
    19  H    0.639896   0.000188   0.000000  -0.000000   0.000002   0.000230
    20  H    0.000188   0.618070  -0.000309   0.000050  -0.000000   0.000001
    21  H    0.000000  -0.000309   0.635864  -0.007060  -0.000000  -0.000001
    22  H   -0.000000   0.000050  -0.007060   0.637793  -0.000225   0.000100
    23  H    0.000002  -0.000000  -0.000000  -0.000225   0.648428  -0.026454
    24  H    0.000230   0.000001  -0.000001   0.000100  -0.026454   0.607540
    25  H    0.000000   0.000003  -0.000002   0.000213  -0.010582   0.007198
    26  H    0.000017  -0.000000   0.000000  -0.000002  -0.004535  -0.001359
    27  H   -0.000147  -0.000019  -0.000000  -0.000060   0.006751  -0.009902
              25         26         27
     1  C   -0.000000   0.000000   0.000044
     2  C    0.000000   0.000001  -0.000072
     3  O    0.000006   0.000014   0.004425
     4  C   -0.000243  -0.000145   0.001664
     5  O   -0.000004  -0.000001  -0.001262
     6  C    0.000930  -0.000082  -0.000612
     7  C   -0.000095   0.000017  -0.000223
     8  N    0.000003   0.000000  -0.000038
     9  C    0.000057  -0.000001  -0.000013
    10  C   -0.001066  -0.000012  -0.000242
    11  C    0.001351   0.000081   0.001912
    12  O    0.001342   0.003588  -0.002084
    13  C   -0.016802  -0.010855  -0.024902
    14  C    0.381043   0.377908   0.398438
    15  H    0.000000   0.000000   0.000000
    16  H    0.000000  -0.000000   0.000000
    17  H   -0.000000  -0.000000  -0.000002
    18  H    0.000000  -0.000001  -0.000101
    19  H    0.000000   0.000017  -0.000147
    20  H    0.000003  -0.000000  -0.000019
    21  H   -0.000002   0.000000  -0.000000
    22  H    0.000213  -0.000002  -0.000060
    23  H   -0.010582  -0.004535   0.006751
    24  H    0.007198  -0.001359  -0.009902
    25  H    0.623345  -0.015501  -0.025384
    26  H   -0.015501   0.613350  -0.017046
    27  H   -0.025384  -0.017046   0.610998
 Mulliken charges:
               1
     1  C   -0.106553
     2  C    0.140544
     3  O   -0.330987
     4  C    0.270022
     5  O   -0.248955
     6  C   -0.204265
     7  C    0.063219
     8  N   -0.150058
     9  C    0.055620
    10  C   -0.086439
    11  C    0.255485
    12  O   -0.329090
    13  C    0.139639
    14  C   -0.125707
    15  H    0.063873
    16  H    0.053099
    17  H    0.050099
    18  H    0.048245
    19  H    0.048717
    20  H    0.040261
    21  H    0.040079
    22  H    0.030023
    23  H    0.044473
    24  H    0.072028
    25  H    0.054187
    26  H    0.054563
    27  H    0.057877
 Sum of Mulliken charges =  -0.00000
 Mulliken charges with hydrogens summed into heavy atoms:
               1
     1  C    0.060518
     2  C    0.237506
     3  O   -0.330987
     4  C    0.270022
     5  O   -0.248955
     6  C   -0.204265
     7  C    0.103480
     8  N   -0.150058
     9  C    0.095700
    10  C   -0.056416
    11  C    0.255485
    12  O   -0.329090
    13  C    0.256140
    14  C    0.040920
 Electronic spatial extent (au):  <R**2>=           2938.4125
 Charge=             -0.0000 electrons
 Dipole moment (field-independent basis, Debye):
    X=              1.2922    Y=              2.0215    Z=              1.2444  Tot=              2.7027
 Quadrupole moment (field-independent basis, Debye-Ang):
   XX=            -69.6019   YY=            -84.1222   ZZ=            -86.1061
   XY=             -3.4536   XZ=              2.2542   YZ=              4.7000
 Traceless Quadrupole moment (field-independent basis, Debye-Ang):
   XX=             10.3415   YY=             -4.1788   ZZ=             -6.1627
   XY=             -3.4536   XZ=              2.2542   YZ=              4.7000
 Octapole moment (field-independent basis, Debye-Ang**2):
  XXX=             24.9484  YYY=             54.0737  ZZZ=             -0.1127  XYY=              7.9337
  XXY=             -7.5039  XXZ=              3.5392  XZZ=              5.8369  YZZ=              3.5181
  YYZ=             -2.1981  XYZ=             -1.6706
 Hexadecapole moment (field-independent basis, Debye-Ang**3):
 XXXX=          -2029.2380 YYYY=          -1325.1095 ZZZZ=           -303.4826 XXXY=             31.0511
 XXXZ=             27.1815 YYYX=            -65.0826 YYYZ=             10.1245 ZZZX=              7.3425
 ZZZY=             -4.9477 XXYY=           -584.1769 XXZZ=           -438.3876 YYZZ=           -273.2910
 XXYZ=              7.8728 YYXZ=             12.6601 ZZXY=            -10.9328
 N-N= 9.175782695582D+02 E-N=-3.392363092222D+03  KE= 6.621181210126D+02
   1 Symmetry operations used in ECPInt.
 ECPInt:  NShTT=    7626 NPrTT=   27482 LenC2=    7301 LenP2D=   19261.
 LDataN:  DoStor=T MaxTD1= 5 Len=  102
 Calling FoFJK, ICntrl=      2127 FMM=F ISym2X=0 I1Cent= 0 IOpClX= 0 NMat=1 NMatS=1 NMatT=0.
 ***** Axes restored to original set *****
 -------------------------------------------------------------------
 Center     Atomic                   Forces (Hartrees/Bohr)
 Number     Number              X              Y              Z
 -------------------------------------------------------------------
      1        6          -0.000012188    0.000007343    0.000018838
      2        6           0.000017715    0.000007731    0.000001143
      3        8           0.000005171   -0.000016882   -0.000005304
      4        6           0.000000029    0.000018780   -0.000002113
      5        8          -0.000014109    0.000005550   -0.000003537
      6        6          -0.000002582    0.000012668    0.000006520
      7        6           0.000005110   -0.000027476   -0.000003159
      8        7           0.000018040    0.000007034    0.000002226
      9        6          -0.000027274    0.000005742    0.000007613
     10        6          -0.000018818   -0.000015565    0.000004601
     11        6           0.000005325    0.000038799   -0.000028867
     12        8           0.000000780   -0.000040951    0.000008278
     13        6           0.000008340   -0.000004856    0.000016055
     14        6          -0.000009882    0.000003547   -0.000023847
     15        1           0.000003282   -0.000000653    0.000000326
     16        1           0.000003624    0.000001967   -0.000005281
     17        1          -0.000004170   -0.000001551   -0.000004985
     18        1          -0.000002794    0.000005719   -0.000001377
     19        1          -0.000000848   -0.000006338    0.000000426
     20        1          -0.000005897    0.000005235    0.000000923
     21        1           0.000008127    0.000002481   -0.000004528
     22        1           0.000009814   -0.000006514    0.000001442
     23        1           0.000000679    0.000000168    0.000001589
     24        1           0.000004862   -0.000003754    0.000007500
     25        1           0.000006892    0.000000577    0.000001394
     26        1           0.000002199    0.000000191    0.000007717
     27        1          -0.000001427    0.000001005   -0.000003593
 -------------------------------------------------------------------
 Cartesian Forces:  Max     0.000040951 RMS     0.000011416

 GradGradGradGradGradGradGradGradGradGradGradGradGradGradGradGradGradGrad
 Berny optimization.
 FormGI is forming the generalized inverse of G from B-inverse, IUseBI=4.
 Internal  Forces:  Max     0.000046212 RMS     0.000010561
 Search for a local minimum.
 Step number   1 out of a maximum of  134
 All quantities printed in internal units (Hartrees-Bohrs-Radians)
 Mixed Optimization -- En-DIIS/RFO-DIIS
 Second derivative matrix not updated -- first step.
 ITU=  0
     Eigenvalues ---    0.00533   0.00559   0.00917   0.01299   0.01341
     Eigenvalues ---    0.01440   0.01658   0.01968   0.02074   0.02170
     Eigenvalues ---    0.02194   0.02221   0.02381   0.02516   0.02520
     Eigenvalues ---    0.02562   0.04742   0.05011   0.05469   0.05676
     Eigenvalues ---    0.05687   0.05765   0.05819   0.05826   0.11739
     Eigenvalues ---    0.11895   0.13901   0.14045   0.15995   0.15998
     Eigenvalues ---    0.15999   0.16000   0.16000   0.16000   0.16000
     Eigenvalues ---    0.16000   0.16000   0.22055   0.22062   0.22326
     Eigenvalues ---    0.23229   0.24528   0.24853   0.24991   0.25000
     Eigenvalues ---    0.25000   0.25000   0.25000   0.30598   0.30791
     Eigenvalues ---    0.33606   0.33674   0.33697   0.33702   0.33711
     Eigenvalues ---    0.33715   0.33736   0.33815   0.33882   0.33918
     Eigenvalues ---    0.33988   0.34203   0.34352   0.34760   0.41037
     Eigenvalues ---    0.41283   0.41489   0.42311   0.44339   0.47468
     Eigenvalues ---    0.56229   0.57789   0.58515   0.59767   1.01287
 RFO step:  Lambda=-7.62879724D-08 EMin= 5.32968790D-03
 Linear search not attempted -- first point.
 Iteration  1 RMS(Cart)=  0.00071643 RMS(Int)=  0.00000010
 Iteration  2 RMS(Cart)=  0.00000016 RMS(Int)=  0.00000001
 Variable       Old X    -DE/DX   Delta X   Delta X   Delta X     New X
                                 (Linear)    (Quad)   (Total)
    R1        2.86414  -0.00001   0.00000  -0.00004  -0.00004   2.86410
    R2        2.07643  -0.00000   0.00000  -0.00001  -0.00001   2.07642
    R3        2.07813  -0.00000   0.00000  -0.00001  -0.00001   2.07813
    R4        2.07845  -0.00000   0.00000  -0.00001  -0.00001   2.07844
    R5        2.70168   0.00000   0.00000   0.00001   0.00001   2.70169
    R6        2.07468  -0.00000   0.00000  -0.00001  -0.00001   2.07467
    R7        2.07778  -0.00001   0.00000  -0.00002  -0.00002   2.07776
    R8        2.52734   0.00001   0.00000   0.00002   0.00002   2.52736
    R9        2.28128   0.00000   0.00000   0.00000   0.00000   2.28128
   R10        2.81301   0.00000   0.00000   0.00000   0.00000   2.81301
   R11        2.66150   0.00001   0.00000   0.00002   0.00002   2.66153
   R12        2.66946  -0.00002   0.00000  -0.00004  -0.00004   2.66942
   R13        2.49829  -0.00000   0.00000  -0.00001  -0.00001   2.49829
   R14        2.06740  -0.00001   0.00000  -0.00002  -0.00002   2.06738
   R15        2.52616   0.00002   0.00000   0.00003   0.00003   2.52619
   R16        2.61391  -0.00001   0.00000  -0.00001  -0.00001   2.61390
   R17        2.06989  -0.00001   0.00000  -0.00002  -0.00002   2.06987
   R18        2.65541   0.00002   0.00000   0.00004   0.00004   2.65545
   R19        2.06066  -0.00001   0.00000  -0.00003  -0.00003   2.06063
   R20        2.52135  -0.00005   0.00000  -0.00008  -0.00008   2.52128
   R21        2.69579   0.00001   0.00000   0.00003   0.00003   2.69581
   R22        2.86787  -0.00002   0.00000  -0.00006  -0.00006   2.86781
   R23        2.07530  -0.00000   0.00000  -0.00000  -0.00000   2.07530
   R24        2.07350   0.00000   0.00000   0.00000   0.00000   2.07350
   R25        2.07884  -0.00001   0.00000  -0.00002  -0.00002   2.07882
   R26        2.07821   0.00000   0.00000   0.00001   0.00001   2.07822
   R27        2.07835  -0.00000   0.00000  -0.00001  -0.00001   2.07835
    A1        1.93184   0.00000   0.00000   0.00000   0.00000   1.93185
    A2        1.93515   0.00001   0.00000   0.00005   0.00005   1.93520
    A3        1.91634   0.00000   0.00000   0.00003   0.00003   1.91637
    A4        1.90207  -0.00000   0.00000  -0.00003  -0.00003   1.90205
    A5        1.88747  -0.00000   0.00000  -0.00004  -0.00004   1.88743
    A6        1.88982  -0.00000   0.00000  -0.00002  -0.00002   1.88980
    A7        1.94931  -0.00001   0.00000  -0.00005  -0.00005   1.94926
    A8        1.94422   0.00001   0.00000   0.00004   0.00004   1.94426
    A9        1.93651   0.00000   0.00000   0.00001   0.00001   1.93652
   A10        1.82562   0.00000   0.00000   0.00001   0.00001   1.82563
   A11        1.90217   0.00000   0.00000  -0.00000  -0.00000   1.90217
   A12        1.90224  -0.00000   0.00000  -0.00001  -0.00001   1.90224
   A13        2.05039   0.00001   0.00000   0.00004   0.00004   2.05043
   A14        2.14845   0.00002   0.00000   0.00007   0.00007   2.14851
   A15        1.94972   0.00000   0.00000   0.00001   0.00001   1.94973
   A16        2.18443  -0.00002   0.00000  -0.00006  -0.00006   2.18436
   A17        2.05261   0.00003   0.00000   0.00012   0.00012   2.05274
   A18        2.17662  -0.00003   0.00000  -0.00013  -0.00013   2.17649
   A19        2.04917   0.00000   0.00000   0.00001   0.00001   2.04918
   A20        2.18803  -0.00001   0.00000  -0.00004  -0.00004   2.18800
   A21        2.05760   0.00000   0.00000   0.00002   0.00002   2.05761
   A22        2.03735   0.00001   0.00000   0.00003   0.00003   2.03738
   A23        2.03466   0.00001   0.00000   0.00004   0.00004   2.03470
   A24        2.15941  -0.00001   0.00000  -0.00002  -0.00002   2.15939
   A25        2.03363   0.00000   0.00000   0.00001   0.00001   2.03364
   A26        2.09000   0.00000   0.00000   0.00001   0.00001   2.09001
   A27        2.09425  -0.00001   0.00000  -0.00002  -0.00002   2.09423
   A28        2.12306   0.00000   0.00000   0.00001   0.00001   2.12307
   A29        2.06561   0.00000   0.00000   0.00001   0.00001   2.06562
   A30        2.03949   0.00001   0.00000   0.00003   0.00003   2.03952
   A31        2.24105  -0.00004   0.00000  -0.00017  -0.00017   2.24088
   A32        2.00264   0.00004   0.00000   0.00014   0.00014   2.00278
   A33        2.18395  -0.00005   0.00000  -0.00018  -0.00018   2.18376
   A34        1.97753   0.00000   0.00000   0.00001   0.00001   1.97754
   A35        1.80314   0.00000   0.00000   0.00006   0.00006   1.80319
   A36        1.91851   0.00000   0.00000  -0.00001  -0.00001   1.91850
   A37        1.91863  -0.00000   0.00000   0.00001   0.00001   1.91864
   A38        1.94882  -0.00001   0.00000  -0.00009  -0.00009   1.94873
   A39        1.89010   0.00000   0.00000   0.00004   0.00004   1.89013
   A40        1.93559   0.00001   0.00000   0.00004   0.00004   1.93563
   A41        1.90438   0.00001   0.00000   0.00007   0.00007   1.90445
   A42        1.96795  -0.00001   0.00000  -0.00006  -0.00006   1.96789
   A43        1.89026  -0.00001   0.00000  -0.00002  -0.00002   1.89024
   A44        1.88685  -0.00000   0.00000  -0.00001  -0.00001   1.88684
   A45        1.87643  -0.00000   0.00000  -0.00003  -0.00003   1.87640
    D1        1.12614  -0.00000   0.00000  -0.00005  -0.00005   1.12608
    D2       -3.12265  -0.00000   0.00000  -0.00005  -0.00005  -3.12269
    D3       -0.99998   0.00000   0.00000  -0.00002  -0.00002  -1.00000
    D4       -0.98695  -0.00000   0.00000  -0.00006  -0.00006  -0.98700
    D5        1.04745  -0.00000   0.00000  -0.00005  -0.00005   1.04740
    D6       -3.11306   0.00000   0.00000  -0.00002  -0.00002  -3.11309
    D7       -3.07449  -0.00000   0.00000  -0.00008  -0.00008  -3.07457
    D8       -1.04009  -0.00000   0.00000  -0.00008  -0.00008  -1.04016
    D9        1.08258   0.00000   0.00000  -0.00005  -0.00005   1.08253
   D10       -1.42277  -0.00000   0.00000  -0.00032  -0.00032  -1.42310
   D11        2.75525  -0.00001   0.00000  -0.00035  -0.00035   2.75491
   D12        0.72301  -0.00000   0.00000  -0.00035  -0.00035   0.72267
   D13       -0.07366   0.00000   0.00000  -0.00004  -0.00004  -0.07370
   D14        3.03255   0.00001   0.00000   0.00037   0.00037   3.03292
   D15       -0.61444  -0.00000   0.00000   0.00006   0.00006  -0.61438
   D16        2.63517  -0.00000   0.00000  -0.00000  -0.00000   2.63517
   D17        2.49089   0.00001   0.00000   0.00049   0.00049   2.49138
   D18       -0.54268   0.00000   0.00000   0.00042   0.00042  -0.54226
   D19       -2.99668  -0.00000   0.00000  -0.00029  -0.00029  -2.99697
   D20        0.12241   0.00000   0.00000  -0.00002  -0.00002   0.12240
   D21        0.04492  -0.00001   0.00000  -0.00024  -0.00024   0.04468
   D22       -3.11917   0.00000   0.00000   0.00003   0.00003  -3.11914
   D23        2.97882   0.00001   0.00000   0.00030   0.00030   2.97912
   D24       -0.16639   0.00000   0.00000   0.00005   0.00005  -0.16634
   D25       -0.05495   0.00000   0.00000   0.00023   0.00023  -0.05472
   D26        3.08302  -0.00000   0.00000  -0.00002  -0.00002   3.08300
   D27       -0.00468   0.00000   0.00000   0.00007   0.00007  -0.00460
   D28       -3.12400  -0.00000   0.00000  -0.00020  -0.00020  -3.12420
   D29       -0.02390   0.00000   0.00000   0.00009   0.00009  -0.02380
   D30        3.13590  -0.00000   0.00000  -0.00012  -0.00012   3.13578
   D31        0.01030  -0.00000   0.00000  -0.00008  -0.00008   0.01022
   D32       -3.10606  -0.00000   0.00000  -0.00012  -0.00012  -3.10618
   D33        3.13313   0.00000   0.00000   0.00013   0.00013   3.13326
   D34        0.01677   0.00000   0.00000   0.00010   0.00010   0.01687
   D35        0.03065  -0.00000   0.00000  -0.00009  -0.00009   0.03056
   D36       -3.10783   0.00000   0.00000   0.00013   0.00013  -3.10770
   D37       -3.13536  -0.00000   0.00000  -0.00006  -0.00006  -3.13542
   D38        0.00936   0.00000   0.00000   0.00016   0.00016   0.00952
   D39       -0.53855   0.00001   0.00000   0.00037   0.00037  -0.53818
   D40        2.59949   0.00000   0.00000   0.00012   0.00012   2.59961
   D41       -0.87129   0.00000   0.00000  -0.00017  -0.00017  -0.87146
   D42       -2.94652  -0.00000   0.00000  -0.00023  -0.00023  -2.94675
   D43        1.32264  -0.00001   0.00000  -0.00029  -0.00029   1.32235
   D44       -0.93522  -0.00000   0.00000  -0.00013  -0.00013  -0.93535
   D45       -3.01596  -0.00000   0.00000  -0.00018  -0.00018  -3.01614
   D46        1.18357  -0.00000   0.00000  -0.00015  -0.00015   1.18341
   D47        1.07218   0.00000   0.00000  -0.00004  -0.00004   1.07213
   D48       -1.00856  -0.00000   0.00000  -0.00009  -0.00009  -1.00865
   D49       -3.09222   0.00000   0.00000  -0.00007  -0.00007  -3.09229
   D50       -3.11285   0.00000   0.00000  -0.00005  -0.00005  -3.11290
   D51        1.08960  -0.00000   0.00000  -0.00010  -0.00010   1.08950
   D52       -0.99407   0.00000   0.00000  -0.00007  -0.00007  -0.99414
         Item               Value     Threshold  Converged?
 Maximum Force            0.000046     0.000450     YES
 RMS     Force            0.000011     0.000300     YES
 Maximum Displacement     0.002904     0.001800     NO 
 RMS     Displacement     0.000716     0.001200     YES
 Predicted change in Energy=-3.814399D-08
 GradGradGradGradGradGradGradGradGradGradGradGradGradGradGradGradGradGrad

                          Input orientation:                          
 ---------------------------------------------------------------------
 Center     Atomic      Atomic             Coordinates (Angstroms)
 Number     Number       Type             X           Y           Z
 ---------------------------------------------------------------------
      1          6           0        3.942814   -0.821279   -0.524211
      2          6           0        3.226365    0.004060    0.525839
      3          8           0        1.859489   -0.390840    0.666078
      4          6           0        0.982724    0.095200   -0.219217
      5          8           0        1.281161    0.897957   -1.070012
      6          6           0       -0.366204   -0.510485   -0.047717
      7          6           0       -0.430006   -1.863185    0.339293
      8          7           0       -1.530236   -2.594714    0.385527
      9          6           0       -2.668509   -1.985649    0.038515
     10          6           0       -2.746020   -0.654443   -0.329143
     11          6           0       -1.583063    0.133541   -0.363809
     12          8           0       -1.783444    1.410944   -0.692722
     13          6           0       -1.002472    2.510405   -0.227586
     14          6           0       -0.818429    2.521420    1.278753
     15          1           0        3.509973   -0.644679   -1.518603
     16          1           0        3.877668   -1.894025   -0.291169
     17          1           0        5.005451   -0.539617   -0.558314
     18          1           0        3.662261   -0.149080    1.521762
     19          1           0        3.265845    1.074722    0.278783
     20          1           0        0.505351   -2.363706    0.606584
     21          1           0       -3.578624   -2.594194    0.071762
     22          1           0       -3.698257   -0.183306   -0.574765
     23          1           0       -1.587256    3.386001   -0.539684
     24          1           0       -0.039655    2.534011   -0.753306
     25          1           0       -1.789328    2.468059    1.793197
     26          1           0       -0.322053    3.457270    1.574110
     27          1           0       -0.195424    1.688988    1.637238
 ---------------------------------------------------------------------
                    Distance matrix (angstroms):
                    1          2          3          4          5
     1  C    0.000000
     2  C    1.515615   0.000000
     3  O    2.437685   1.429672   0.000000
     4  C    3.113693   2.365870   1.337422   0.000000
     5  O    3.215287   2.670133   2.238184   1.207201   0.000000
     6  C    4.346409   3.674272   2.340412   1.488581   2.396373
     7  C    4.577418   4.109799   2.741601   2.478510   3.540923
     8  N    5.824686   5.422045   4.052901   3.730459   4.713946
     9  C    6.736617   6.240670   4.841489   4.210447   5.014370
    10  C    6.693757   6.069102   4.719180   3.804942   4.379157
    11  C    5.610055   4.892733   3.631364   2.570144   3.047430
    12  O    6.148272   5.344381   4.285292   3.099529   3.130065
    13  C    5.970256   4.973176   4.172131   3.126387   2.919700
    14  C    6.090464   4.823312   4.003482   3.372627   3.544094
    15  H    1.098796   2.163571   2.749793   2.936462   2.747465
    16  H    1.099698   2.166662   2.692384   3.513245   3.891478
    17  H    1.099861   2.153165   3.379105   4.086601   4.024772
    18  H    2.171766   1.097871   2.010132   3.204778   3.671950
    19  H    2.167465   1.099505   2.067778   2.533793   2.406130
    20  H    3.933691   3.607874   2.393623   2.637432   3.748506
    21  H    7.750512   7.298286   5.897546   5.303151   6.092312
    22  H    7.667825   7.014045   5.698360   4.702719   5.119473
    23  H    6.948606   5.978613   5.253422   4.187705   3.833983
    24  H    5.212535   4.324784   3.765123   2.697835   2.126389
    25  H    7.003398   5.730154   4.770489   4.167079   4.482308
    26  H    6.395156   5.061107   4.515706   4.027653   4.013946
    27  H    5.300784   3.972761   3.080828   2.715625   3.183588
                    6          7          8          9         10
     6  C    0.000000
     7  C    1.408419   0.000000
     8  N    2.426248   1.322036   0.000000
     9  C    2.735718   2.261938   1.336803   0.000000
    10  C    2.400718   2.696625   2.398653   1.383217   0.000000
    11  C    1.412597   2.410562   2.829783   2.414752   1.405201
    12  O    2.473154   3.690091   4.155963   3.585372   2.307502
    13  C    3.092405   4.447174   5.168818   4.802186   3.614766
    14  C    3.340132   4.500913   5.242075   5.027391   4.048092
    15  H    4.148043   4.523269   5.729926   6.511256   6.368073
    16  H    4.470335   4.353675   5.494935   6.555114   6.738786
    17  H    5.395946   5.665838   6.915885   7.831786   7.755708
    18  H    4.338480   4.591627   5.850998   6.756601   6.689343
    19  H    3.976338   4.721681   6.039747   6.681329   6.285070
    20  H    2.149917   1.094010   2.060545   3.246385   3.790590
    21  H    3.830895   3.243416   2.072279   1.095327   2.148625
    22  H    3.389308   3.786683   3.381918   2.164471   1.090439
    23  H    4.112859   5.446631   6.052125   5.509814   4.208592
    24  H    3.142205   4.547690   5.461007   5.288212   4.203637
    25  H    3.779679   4.766683   5.261210   4.866968   3.894818
    26  H    4.286648   5.462936   6.284819   6.122848   5.138499
    27  H    2.775954   3.789146   4.658177   4.709036   3.982947
                   11         12         13         14         15
    11  C    0.000000
    12  O    1.334202   0.000000
    13  C    2.450535   1.426564   0.000000
    14  C    2.997439   2.459904   1.517581   0.000000
    15  H    5.279980   5.738287   5.655391   6.048508   0.000000
    16  H    5.825451   6.567515   6.574102   6.634314   1.789597
    17  H    6.625669   7.064832   6.745899   6.830983   1.780351
    18  H    5.581100   6.082214   5.647373   5.221801   3.084255
    19  H    4.981029   5.152882   4.531681   4.446816   2.499306
    20  H    3.396966   4.601604   5.169751   5.105748   4.061923
    21  H    3.407716   4.455136   5.725652   5.936751   7.521840
    22  H    2.149173   2.494405   3.826731   4.363999   7.284386
    23  H    3.257214   1.990669   1.098201   2.155298   6.571637
    24  H    2.880290   2.075031   1.097249   2.176215   4.825931
    25  H    3.185152   2.701356   2.168986   1.100066   6.981386
    26  H    4.048808   3.385505   2.146073   1.099745   6.409000
    27  H    2.889489   2.833343   2.191716   1.099813   5.397712
                   16         17         18         19         20
    16  H    0.000000
    17  H    1.782606   0.000000
    18  H    2.525460   2.506670   0.000000
    19  H    3.084254   2.516555   1.788808   0.000000
    20  H    3.521233   4.993515   3.963357   4.421602   0.000000
    21  H    7.497883   8.848990   7.778914   7.768562   4.125289
    22  H    7.771848   8.711014   7.653354   7.128106   4.880579
    23  H    7.603014   7.672979   6.656109   5.437324   6.225116
    24  H    5.930134   5.910863   5.106770   3.757801   5.112139
    25  H    7.448973   7.793891   6.053340   5.457987   5.479010
    26  H    7.053600   6.993185   5.374315   4.497491   5.958562
    27  H    5.757327   6.069285   4.274759   3.768701   4.240007
                   21         22         23         24         25
    21  H    0.000000
    22  H    2.498938   0.000000
    23  H    6.332625   4.146988   0.000000
    24  H    6.285183   4.560818   1.779491   0.000000
    25  H    5.638379   4.034971   2.515112   3.090370   0.000000
    26  H    7.034381   5.410195   2.464537   2.519726   1.783097
    27  H    5.678240   4.546238   3.091284   2.540281   1.780956
                   26         27
    26  H    0.000000
    27  H    1.773934   0.000000
 Stoichiometry    C10H13NO3
 Framework group  C1[X(C10H13NO3)]
 Deg. of freedom    75
 Full point group                 C1      NOp   1
 Largest Abelian subgroup         C1      NOp   1
 Largest concise Abelian subgroup C1      NOp   1
                         Standard orientation:                         
 ---------------------------------------------------------------------
 Center     Atomic      Atomic             Coordinates (Angstroms)
 Number     Number       Type             X           Y           Z
 ---------------------------------------------------------------------
      1          6           0        3.942548   -0.823234   -0.524185
      2          6           0        3.226509    0.002461    0.525865
      3          8           0        1.859437   -0.391759    0.666104
      4          6           0        0.982914    0.094716   -0.219192
      5          8           0        1.281750    0.897325   -1.069986
      6          6           0       -0.366315   -0.510298   -0.047692
      7          6           0       -0.430789   -1.862966    0.339319
      8          7           0       -1.531383   -2.593947    0.385552
      9          6           0       -2.669353   -1.984317    0.038541
     10          6           0       -2.746202   -0.653072   -0.329118
     11          6           0       -1.582853    0.134333   -0.363784
     12          8           0       -1.782600    1.411836   -0.692697
     13          6           0       -1.001081    2.510908   -0.227560
     14          6           0       -0.817032    2.521832    1.278779
     15          1           0        3.509795   -0.646419   -1.518577
     16          1           0        3.876868   -1.895947   -0.291143
     17          1           0        5.005325   -0.542100   -0.558288
     18          1           0        3.662329   -0.150896    1.521788
     19          1           0        3.266522    1.073103    0.278808
     20          1           0        0.504319   -2.363951    0.606609
     21          1           0       -3.579771   -2.592409    0.071788
     22          1           0       -3.698205   -0.181462   -0.574740
     23          1           0       -1.585430    3.386795   -0.539659
     24          1           0       -0.038252    2.534036   -0.753281
     25          1           0       -1.787958    2.468954    1.793223
     26          1           0       -0.320192    3.457435    1.574135
     27          1           0       -0.194441    1.689091    1.637263
 ---------------------------------------------------------------------
 Rotational constants (GHZ):           0.9402286           0.5554058           0.3936237
 Standard basis: def2SVP (5D, 7F)
 There are   275 symmetry adapted cartesian basis functions of A   symmetry.
 There are   261 symmetry adapted basis functions of A   symmetry.
   261 basis functions,   441 primitive gaussians,   275 cartesian basis functions
    52 alpha electrons       52 beta electrons
       nuclear repulsion energy       917.6298641215 Hartrees.
 NAtoms=   27 NActive=   27 NUniq=   27 SFac= 1.00D+00 NAtFMM=   60 NAOKFM=F Big=F
 Integral buffers will be    131072 words long.
 Raffenetti 2 integral format.
 Two-electron integral symmetry is turned on.
 Nuclear repulsion after empirical dispersion term =      917.6131471396 Hartrees.
 One-electron integrals computed using PRISM.
   1 Symmetry operations used in ECPInt.
 ECPInt:  NShTT=    7626 NPrTT=   27482 LenC2=    7301 LenP2D=   19263.
 LDataN:  DoStor=T MaxTD1= 4 Len=   56
 NBasis=   261 RedAO= T EigKep=  5.22D-04  NBF=   261
 NBsUse=   261 1.00D-06 EigRej= -1.00D+00 NBFU=   261
 Initial guess from the checkpoint file:  "12326824_16.chk"
 B after Tr=     0.000000   -0.000000    0.000000
         Rot=    1.000000   -0.000002   -0.000003    0.000247 Ang=  -0.03 deg.
 Requested convergence on RMS density matrix=1.00D-08 within 128 cycles.
 Requested convergence on MAX density matrix=1.00D-06.
 Requested convergence on             energy=1.00D-06.
 No special actions if energy rises.
 SCF Done:  E(RwB97XD) =  -668.615099065     A.U. after    7 cycles
            NFock=  7  Conv=0.90D-08     -V/T= 2.0098
   1 Symmetry operations used in ECPInt.
 ECPInt:  NShTT=    7626 NPrTT=   27482 LenC2=    7301 LenP2D=   19263.
 LDataN:  DoStor=T MaxTD1= 5 Len=  102
 Calling FoFJK, ICntrl=      2127 FMM=F ISym2X=0 I1Cent= 0 IOpClX= 0 NMat=1 NMatS=1 NMatT=0.
 ***** Axes restored to original set *****
 -------------------------------------------------------------------
 Center     Atomic                   Forces (Hartrees/Bohr)
 Number     Number              X              Y              Z
 -------------------------------------------------------------------
      1        6          -0.000002757    0.000002718    0.000008485
      2        6           0.000005199    0.000001826   -0.000000120
      3        8          -0.000001621   -0.000017510   -0.000019644
      4        6          -0.000018689    0.000021457    0.000030646
      5        8           0.000038211   -0.000041081   -0.000017699
      6        6           0.000018765   -0.000024966   -0.000012935
      7        6          -0.000014449   -0.000001409    0.000016340
      8        7           0.000014246    0.000000585    0.000001232
      9        6           0.000001042    0.000006802   -0.000013009
     10        6          -0.000001927   -0.000008325   -0.000002440
     11        6           0.000005956    0.000026773   -0.000002841
     12        8          -0.000009174   -0.000018455    0.000008119
     13        6           0.000002502    0.000037866   -0.000003235
     14        6          -0.000007524    0.000000896   -0.000004870
     15        1          -0.000000570    0.000001105   -0.000002231
     16        1           0.000000835    0.000001184   -0.000001577
     17        1           0.000001288    0.000000902   -0.000003049
     18        1          -0.000001066    0.000003292    0.000000807
     19        1          -0.000000886    0.000000612   -0.000001556
     20        1           0.000004939   -0.000000307   -0.000004385
     21        1           0.000001365   -0.000000722    0.000004507
     22        1          -0.000001008   -0.000000390    0.000000362
     23        1          -0.000008192   -0.000004128    0.000001393
     24        1          -0.000026266    0.000011306    0.000008441
     25        1           0.000000479   -0.000001044    0.000004725
     26        1          -0.000000440   -0.000001240   -0.000000278
     27        1          -0.000000258    0.000002252    0.000004810
 -------------------------------------------------------------------
 Cartesian Forces:  Max     0.000041081 RMS     0.000012203

 GradGradGradGradGradGradGradGradGradGradGradGradGradGradGradGradGradGrad
 Berny optimization.
 Using GEDIIS/GDIIS optimizer.
 FormGI is forming the generalized inverse of G from B-inverse, IUseBI=4.
 Internal  Forces:  Max     0.000154824 RMS     0.000028914
 Search for a local minimum.
 Step number   2 out of a maximum of  134
 All quantities printed in internal units (Hartrees-Bohrs-Radians)
 Mixed Optimization -- En-DIIS/RFO-DIIS
 Swapping is turned off.
 Update second derivatives using D2CorX and points    1    2
 DE=  1.31D-07 DEPred=-3.81D-08 R=-3.43D+00
 Trust test=-3.43D+00 RLast= 1.41D-03 DXMaxT set to 1.50D-01
 ITU= -1  0
     Eigenvalues ---    0.00529   0.00558   0.00958   0.01153   0.01336
     Eigenvalues ---    0.01599   0.01684   0.01923   0.02103   0.02174
     Eigenvalues ---    0.02196   0.02251   0.02367   0.02490   0.02518
     Eigenvalues ---    0.03360   0.04857   0.05004   0.05472   0.05675
     Eigenvalues ---    0.05682   0.05765   0.05794   0.05823   0.11718
     Eigenvalues ---    0.11833   0.13895   0.14001   0.15561   0.15995
     Eigenvalues ---    0.15998   0.15999   0.16000   0.16000   0.16000
     Eigenvalues ---    0.16000   0.16012   0.21745   0.22062   0.22336
     Eigenvalues ---    0.23202   0.24530   0.24813   0.24892   0.24995
     Eigenvalues ---    0.25000   0.25000   0.30119   0.30726   0.33528
     Eigenvalues ---    0.33607   0.33684   0.33700   0.33707   0.33714
     Eigenvalues ---    0.33723   0.33813   0.33863   0.33881   0.33915
     Eigenvalues ---    0.34143   0.34321   0.34686   0.39974   0.41011
     Eigenvalues ---    0.41299   0.41803   0.43889   0.47434   0.55233
     Eigenvalues ---    0.56816   0.57854   0.59389   0.79277   1.01342
 En-DIIS/RFO-DIIS/Sim-DIIS IScMMF=       -3 using points:     2    1
 RFO step:  Lambda=-1.72396042D-07.
 DidBck=T Rises=F RFO-DIIS coefs:    0.64005    0.35995
 Iteration  1 RMS(Cart)=  0.00068151 RMS(Int)=  0.00000009
 Iteration  2 RMS(Cart)=  0.00000015 RMS(Int)=  0.00000001
 Variable       Old X    -DE/DX   Delta X   Delta X   Delta X     New X
                                 (Linear)    (Quad)   (Total)
    R1        2.86410  -0.00000   0.00002  -0.00004  -0.00002   2.86408
    R2        2.07642   0.00000   0.00000  -0.00000  -0.00000   2.07642
    R3        2.07813  -0.00000   0.00000  -0.00001  -0.00000   2.07812
    R4        2.07844   0.00000   0.00001  -0.00001  -0.00001   2.07843
    R5        2.70169   0.00000  -0.00000   0.00001   0.00001   2.70169
    R6        2.07467   0.00000   0.00000  -0.00001  -0.00000   2.07467
    R7        2.07776  -0.00000   0.00001  -0.00002  -0.00001   2.07775
    R8        2.52736  -0.00001  -0.00001   0.00001   0.00001   2.52737
    R9        2.28128  -0.00001  -0.00000   0.00000  -0.00000   2.28128
   R10        2.81301   0.00000  -0.00000   0.00000   0.00000   2.81301
   R11        2.66153   0.00000  -0.00001   0.00002   0.00001   2.66154
   R12        2.66942   0.00007   0.00001   0.00002   0.00003   2.66945
   R13        2.49829  -0.00002   0.00000  -0.00002  -0.00001   2.49827
   R14        2.06738   0.00000   0.00001  -0.00002  -0.00001   2.06737
   R15        2.52619  -0.00001  -0.00001   0.00002   0.00001   2.52620
   R16        2.61390  -0.00001   0.00000  -0.00002  -0.00001   2.61389
   R17        2.06987  -0.00000   0.00001  -0.00002  -0.00001   2.06986
   R18        2.65545   0.00001  -0.00001   0.00004   0.00002   2.65547
   R19        2.06063   0.00000   0.00001  -0.00002  -0.00001   2.06062
   R20        2.52128   0.00003   0.00003  -0.00005  -0.00002   2.52126
[...]
 Alpha virt. eigenvalues --    7.52843  22.40470  22.43438  22.52879  22.55814
 Alpha virt. eigenvalues --   22.57863  22.83195  22.92488  23.01627  23.32106
 Alpha virt. eigenvalues --   23.61497  32.53363  44.08836  44.34336  44.45425
          Condensed to atoms (all electrons):
               1          2          3          4          5          6
     1  C    4.949574   0.321057  -0.037118   0.002274  -0.011695   0.000525
     2  C    0.321057   4.805622   0.217199  -0.039925   0.001576   0.003682
     3  O   -0.037118   0.217199   7.993869   0.357060  -0.080072  -0.147242
     4  C    0.002274  -0.039925   0.357060   4.638254   0.594078   0.185745
     5  O   -0.011695   0.001576  -0.080072   0.594078   7.962342  -0.111702
     6  C    0.000525   0.003682  -0.147242   0.185745  -0.111702   5.816925
     7  C   -0.000356  -0.001848   0.019228  -0.043261  -0.000910   0.386795
     8  N   -0.000021   0.000022   0.000234   0.004693  -0.000259  -0.058928
     9  C    0.000004  -0.000028   0.000243  -0.002015   0.000242  -0.023170
    10  C   -0.000010   0.000048  -0.000616   0.012586   0.000027  -0.050644
    11  C    0.000101  -0.000668   0.001059  -0.075160   0.028409   0.127498
    12  O   -0.000005   0.000095  -0.000079   0.001988   0.000100  -0.084418
    13  C    0.000113  -0.000539   0.000099  -0.000529  -0.022894   0.016725
    14  C   -0.000071   0.000154  -0.004713   0.017217   0.000798  -0.011181
    15  H    0.417648  -0.039945  -0.002996   0.004344   0.005414   0.003453
    16  H    0.400027  -0.030199   0.001940  -0.003143   0.000501  -0.001078
    17  H    0.400699  -0.033607   0.004089   0.000520   0.000091  -0.000128
    18  H   -0.028410   0.394113  -0.032284   0.005450   0.001234   0.002155
    19  H   -0.041233   0.420025  -0.032658  -0.015154   0.013182  -0.000725
    20  H   -0.000326  -0.001269   0.013211  -0.004796   0.000106  -0.074209
    21  H    0.000000   0.000000  -0.000001   0.000040  -0.000001  -0.001710
    22  H   -0.000000  -0.000001   0.000006  -0.000201  -0.000035   0.021219
    23  H    0.000001  -0.000008  -0.000018   0.000847   0.000951  -0.004796
    24  H   -0.000003  -0.000312   0.000077  -0.017225   0.007498   0.020336
    25  H    0.000001  -0.000017   0.000106  -0.002144  -0.000030   0.004338
    26  H    0.000002  -0.000015   0.000083  -0.000689   0.000080  -0.000095
    27  H    0.000089   0.000093   0.007003   0.005358  -0.002403  -0.012816
               7          8          9         10         11         12
     1  C   -0.000356  -0.000021   0.000004  -0.000010   0.000101  -0.000005
     2  C   -0.001848   0.000022  -0.000028   0.000048  -0.000668   0.000095
     3  O    0.019228   0.000234   0.000243  -0.000616   0.001059  -0.000079
     4  C   -0.043261   0.004693  -0.002015   0.012586  -0.075160   0.001988
     5  O   -0.000910  -0.000259   0.000242   0.000027   0.028409   0.000100
     6  C    0.386795  -0.058928  -0.023170  -0.050644   0.127498  -0.084418
     7  C    4.835286   0.545020  -0.102734  -0.038650   0.033575   0.002758
     8  N    0.545020   6.443914   0.495302  -0.054654  -0.054440  -0.000038
     9  C   -0.102734   0.495302   4.726974   0.500640  -0.000892   0.002106
    10  C   -0.038650  -0.054654   0.500640   5.045314   0.463776  -0.055368
    11  C    0.033575  -0.054440  -0.000892   0.463776   5.006796   0.380135
    12  O    0.002758  -0.000038   0.002106  -0.055368   0.380135   7.900392
    13  C   -0.000926   0.000119  -0.000255  -0.002040  -0.065463   0.250166
    14  C    0.001979  -0.000060   0.000168   0.006705   0.012600  -0.061058
    15  H   -0.000026   0.000002  -0.000003   0.000011  -0.000078  -0.000001
    16  H    0.000056   0.000010   0.000002  -0.000004  -0.000000  -0.000000
    17  H    0.000020   0.000000  -0.000000   0.000000   0.000001   0.000000
    18  H   -0.000189   0.000001  -0.000001   0.000002   0.000052   0.000000
    19  H    0.000653   0.000008   0.000001  -0.000019  -0.000193  -0.000007
    20  H    0.436786  -0.024115   0.005091   0.000089   0.001937  -0.000092
    21  H    0.004667  -0.030607   0.432937  -0.066951   0.006230  -0.000167
    22  H   -0.002943   0.006613  -0.032181   0.410358  -0.064927   0.008520
    23  H    0.000157  -0.000004   0.000017   0.000713   0.004143  -0.036479
    24  H   -0.000338   0.000006   0.000114  -0.000884  -0.020503  -0.033956
    25  H   -0.000400   0.000030   0.000184  -0.002619  -0.002772   0.005209
    26  H   -0.000017   0.000003  -0.000010  -0.000161   0.000731   0.004105
    27  H    0.002058  -0.000087   0.000087   0.000797  -0.000096   0.000644
              13         14         15         16         17         18
     1  C    0.000113  -0.000071   0.417648   0.400027   0.400699  -0.028410
     2  C   -0.000539   0.000154  -0.039945  -0.030199  -0.033607   0.394113
     3  O    0.000099  -0.004713  -0.002996   0.001940   0.004089  -0.032284
     4  C   -0.000529   0.017217   0.004344  -0.003143   0.000520   0.005450
     5  O   -0.022894   0.000798   0.005414   0.000501   0.000091   0.001234
     6  C    0.016725  -0.011181   0.003453  -0.001078  -0.000128   0.002155
     7  C   -0.000926   0.001979  -0.000026   0.000056   0.000020  -0.000189
     8  N    0.000119  -0.000060   0.000002   0.000010   0.000000   0.000001
     9  C   -0.000255   0.000168  -0.000003   0.000002  -0.000000  -0.000001
    10  C   -0.002040   0.006705   0.000011  -0.000004   0.000000   0.000002
    11  C   -0.065463   0.012600  -0.000078  -0.000000   0.000001   0.000052
    12  O    0.250166  -0.061058  -0.000001  -0.000000   0.000000   0.000000
    13  C    4.859515   0.275163   0.000018  -0.000003  -0.000003  -0.000000
    14  C    0.275163   5.021759  -0.000004   0.000002   0.000003   0.000100
    15  H    0.000018  -0.000004   0.507985  -0.023040  -0.020313   0.004751
    16  H   -0.000003   0.000002  -0.023040   0.551742  -0.018871  -0.005482
    17  H   -0.000003   0.000003  -0.020313  -0.018871   0.546960  -0.002559
    18  H   -0.000000   0.000100   0.004751  -0.005482  -0.002559   0.572092
    19  H   -0.000198   0.000309  -0.005284   0.006480   0.000364  -0.030681
    20  H   -0.000057   0.000033  -0.000072   0.000703   0.000028  -0.000100
    21  H    0.000008   0.000009   0.000000  -0.000000   0.000000   0.000000
    22  H   -0.000046  -0.000200   0.000000   0.000000  -0.000000   0.000000
    23  H    0.397994  -0.020525  -0.000000  -0.000000   0.000000   0.000000
    24  H    0.437965  -0.059358   0.000020   0.000002   0.000000   0.000011
    25  H   -0.026691   0.388113   0.000000   0.000000  -0.000000  -0.000001
    26  H   -0.024052   0.388889  -0.000000   0.000000  -0.000000  -0.000005
    27  H   -0.040605   0.414816   0.000007  -0.000001  -0.000005  -0.000137
              19         20         21         22         23         24
     1  C   -0.041233  -0.000326   0.000000  -0.000000   0.000001  -0.000003
     2  C    0.420025  -0.001269   0.000000  -0.000001  -0.000008  -0.000312
     3  O   -0.032658   0.013211  -0.000001   0.000006  -0.000018   0.000077
     4  C   -0.015154  -0.004796   0.000040  -0.000201   0.000847  -0.017225
     5  O    0.013182   0.000106  -0.000001  -0.000035   0.000951   0.007498
     6  C   -0.000725  -0.074209  -0.001710   0.021219  -0.004796   0.020336
     7  C    0.000653   0.436786   0.004667  -0.002943   0.000157  -0.000338
     8  N    0.000008  -0.024115  -0.030607   0.006613  -0.000004   0.000006
     9  C    0.000001   0.005091   0.432937  -0.032181   0.000017   0.000114
    10  C   -0.000019   0.000089  -0.066951   0.410358   0.000713  -0.000884
    11  C   -0.000193   0.001937   0.006230  -0.064927   0.004143  -0.020503
    12  O   -0.000007  -0.000092  -0.000167   0.008520  -0.036479  -0.033956
    13  C   -0.000198  -0.000057   0.000008  -0.000046   0.397994   0.437965
    14  C    0.000309   0.000033   0.000009  -0.000200  -0.020525  -0.059358
    15  H   -0.005284  -0.000072   0.000000   0.000000  -0.000000   0.000020
    16  H    0.006480   0.000703  -0.000000   0.000000  -0.000000   0.000002
    17  H    0.000364   0.000028   0.000000  -0.000000   0.000000   0.000000
    18  H   -0.030681  -0.000100   0.000000   0.000000   0.000000   0.000011
    19  H    0.568485   0.000294   0.000000  -0.000000   0.000001   0.000434
    20  H    0.000294   0.500807  -0.000153   0.000071   0.000001  -0.000009
    21  H    0.000000  -0.000153   0.528116  -0.003119  -0.000001  -0.000002
    22  H   -0.000000   0.000071  -0.003119   0.519793  -0.000350   0.000167
    23  H    0.000001   0.000001  -0.000001  -0.000350   0.573378  -0.029149
    24  H    0.000434  -0.000009  -0.000002   0.000167  -0.029149   0.544878
    25  H    0.000004  -0.000003  -0.000003   0.000275  -0.007103   0.007096
    26  H    0.000021   0.000001  -0.000000   0.000003  -0.004315   0.000347
    27  H   -0.000481  -0.000049  -0.000001  -0.000070   0.004958  -0.004425
              25         26         27
     1  C    0.000001   0.000002   0.000089
     2  C   -0.000017  -0.000015   0.000093
     3  O    0.000106   0.000083   0.007003
     4  C   -0.002144  -0.000689   0.005358
     5  O   -0.000030   0.000080  -0.002403
     6  C    0.004338  -0.000095  -0.012816
     7  C   -0.000400  -0.000017   0.002058
     8  N    0.000030   0.000003  -0.000087
     9  C    0.000184  -0.000010   0.000087
    10  C   -0.002619  -0.000161   0.000797
    11  C   -0.002772   0.000731  -0.000096
    12  O    0.005209   0.004105   0.000644
    13  C   -0.026691  -0.024052  -0.040605
    14  C    0.388113   0.388889   0.414816
    15  H    0.000000  -0.000000   0.000007
    16  H    0.000000   0.000000  -0.000001
    17  H   -0.000000  -0.000000  -0.000005
    18  H   -0.000001  -0.000005  -0.000137
    19  H    0.000004   0.000021  -0.000481
    20  H   -0.000003   0.000001  -0.000049
    21  H   -0.000003  -0.000000  -0.000001
    22  H    0.000275   0.000003  -0.000070
    23  H   -0.007103  -0.004315   0.004958
    24  H    0.007096   0.000347  -0.004425
    25  H    0.554198  -0.015286  -0.026440
    26  H   -0.015286   0.540802  -0.017814
    27  H   -0.026440  -0.017814   0.531586
 Mulliken charges:
               1
     1  C   -0.372868
     2  C   -0.015304
     3  O   -0.277710
     4  C    0.373788
     5  O   -0.386627
     6  C   -0.006553
     7  C   -0.076439
     8  N   -0.272764
     9  C   -0.002824
    10  C   -0.168446
    11  C    0.218149
    12  O   -0.284549
    13  C   -0.053584
    14  C   -0.371647
    15  H    0.148108
    16  H    0.120359
    17  H    0.122709
    18  H    0.119891
    19  H    0.116374
    20  H    0.146093
    21  H    0.130706
    22  H    0.137049
    23  H    0.119587
    24  H    0.147216
    25  H    0.123957
    26  H    0.127390
    27  H    0.137936
 Sum of Mulliken charges =  -0.00000
 Mulliken charges with hydrogens summed into heavy atoms:
               1
     1  C    0.018309
     2  C    0.220962
     3  O   -0.277710
     4  C    0.373788
     5  O   -0.386627
     6  C   -0.006553
     7  C    0.069655
     8  N   -0.272764
     9  C    0.127882
    10  C   -0.031397
    11  C    0.218149
    12  O   -0.284549
    13  C    0.213218
    14  C    0.017636
 Electronic spatial extent (au):  <R**2>=           2939.1830
 Charge=              0.0000 electrons
 Dipole moment (field-independent basis, Debye):
    X=              1.1461    Y=              1.9736    Z=              1.2583  Tot=              2.6061
 Quadrupole moment (field-independent basis, Debye-Ang):
   XX=            -69.6283   YY=            -84.6750   ZZ=            -86.6262
   XY=             -3.6246   XZ=              2.5618   YZ=              4.5598
 Traceless Quadrupole moment (field-independent basis, Debye-Ang):
   XX=             10.6815   YY=             -4.3652   ZZ=             -6.3163
   XY=             -3.6246   XZ=              2.5618   YZ=              4.5598
 Octapole moment (field-independent basis, Debye-Ang**2):
  XXX=             20.8355  YYY=             54.6394  ZZZ=             -0.0956  XYY=              7.4391
  XXY=             -8.0984  XXZ=              3.3138  XZZ=              5.8082  YZZ=              3.7348
  YYZ=             -2.2095  XYZ=             -1.8251
 Hexadecapole moment (field-independent basis, Debye-Ang**3):
 XXXX=          -2041.2590 YYYY=          -1344.9028 ZZZZ=           -312.4390 XXXY=             34.5765
 XXXZ=             30.0548 YYYX=            -66.1608 YYYZ=             10.1119 ZZZX=              9.1390
 ZZZY=             -4.6361 XXYY=           -587.2351 XXZZ=           -443.4369 YYZZ=           -278.5614
 XXYZ=              7.0033 YYXZ=             13.8530 ZZXY=            -12.1436
 N-N= 9.175839103278D+02 E-N=-3.397679767263D+03  KE= 6.660356763446D+02
 Breneman (CHELPG) radii used.
 Read replacement radii for each type of atom:
 Atom Element Radius
    1     6    1.50
    2     6    1.50
    3     8    1.70
    4     6    1.50
    5     8    1.70
    6     6    1.50
    7     6    1.50
    8     7    1.70
    9     6    1.50
   10     6    1.50
   11     6    1.50
   12     8    1.70
   13     6    1.50
   14     6    1.50
   15     1    1.45
   16     1    1.45
   17     1    1.45
   18     1    1.45
   19     1    1.45
   20     1    1.45
   21     1    1.45
   22     1    1.45
   23     1    1.45
   24     1    1.45
   25     1    1.45
   26     1    1.45
   27     1    1.45
 Generate Potential Derived Charges using the Breneman model, NDens= 1.
 Grid spacing= 0.300 Box extension= 2.800
 NStep X,Y,Z=   49     40     31   Total possible points=       60760
 Number of Points to Fit=   16515

 **********************************************************************

            Electrostatic Properties Using The SCF Density.

 **********************************************************************

       Atomic Center    1 is at   3.942911 -0.822278 -0.524135
       Atomic Center    2 is at   3.226754  0.003728  0.525573
       Atomic Center    3 is at   1.859778 -0.390759  0.666032
       Atomic Center    4 is at   0.983055  0.095289 -0.219305
       Atomic Center    5 is at   1.281723  0.897423 -1.070604
       Atomic Center    6 is at  -0.365919 -0.510273 -0.047708
       Atomic Center    7 is at  -0.429734 -1.862940  0.339442
       Atomic Center    8 is at  -1.529951 -2.594474  0.385700
       Atomic Center    9 is at  -2.668220 -1.985466  0.038561
       Atomic Center   10 is at  -2.745727 -0.654301 -0.329223
       Atomic Center   11 is at  -1.582788  0.133733 -0.363873
       Atomic Center   12 is at  -1.783314  1.411133 -0.692667
       Atomic Center   13 is at  -1.002791  2.510779 -0.227169
       Atomic Center   14 is at  -0.819259  2.521740  1.279220
       Atomic Center   15 is at   3.510042 -0.646034 -1.518576
       Atomic Center   16 is at   3.877523 -1.894902 -0.290609
       Atomic Center   17 is at   5.005615 -0.540906 -0.558474
       Atomic Center   18 is at   3.662646 -0.149063  1.521549
       Atomic Center   19 is at   3.266496  1.074261  0.278025
       Atomic Center   20 is at   0.505619 -2.363426  0.606794
       Atomic Center   21 is at  -3.578319 -2.594024  0.071802
       Atomic Center   22 is at  -3.697961 -0.183203 -0.574903
       Atomic Center   23 is at  -1.587724  3.386233 -0.539387
       Atomic Center   24 is at  -0.039805  2.534715 -0.752542
       Atomic Center   25 is at  -1.790299  2.468097  1.793362
       Atomic Center   26 is at  -0.323204  3.457683  1.574830
       Atomic Center   27 is at  -0.196163  1.689440  1.637843
   16515 points will be used for fitting atomic charges
 Fitting point charges to electrostatic potential
 Charges from ESP fit, RMS=   0.00292 RRMS=   0.23171:
 ESP charges:
               1
     1  C   -0.253310
     2  C    0.339494
     3  O   -0.423838
     4  C    0.757575
     5  O   -0.500507
     6  C   -0.571581
     7  C    0.470004
     8  N   -0.663300
     9  C    0.440285
    10  C   -0.527651
    11  C    0.697924
    12  O   -0.468239
    13  C    0.312288
    14  C   -0.183490
    15  H    0.070011
    16  H    0.081106
    17  H    0.059847
    18  H    0.000904
    19  H   -0.008059
    20  H    0.020104
    21  H    0.027433
    22  H    0.173637
    23  H    0.021671
    24  H   -0.004397
    25  H    0.053032
    26  H    0.051795
    27  H    0.027260
 Sum of ESP charges =  -0.00000
 ESP charges with hydrogens summed into heavy atoms:
               1
     1  C   -0.042346
     2  C    0.332339
     3  O   -0.423838
     4  C    0.757575
     5  O   -0.500507
     6  C   -0.571581
     7  C    0.490109
     8  N   -0.663300
     9  C    0.467719
    10  C   -0.354014
    11  C    0.697924
    12  O   -0.468239
    13  C    0.329562
    14  C   -0.051403
 Charge=  -0.00000 Dipole=     1.1076     1.8633     1.1917 Tot=     2.4736
 -----------------------------------------------------------------

              Electrostatic Properties (Atomic Units)

 -----------------------------------------------------------------
    Center     Electric         -------- Electric Field --------
               Potential          X             Y             Z
 -----------------------------------------------------------------
    1 Atom    -14.766790
    2 Atom    -14.703054
    3 Atom    -22.307093
    4 Atom    -14.630726
    5 Atom    -22.373342
    6 Atom    -14.743220
    7 Atom    -14.727715
    8 Atom    -18.403026
    9 Atom    -14.730636
   10 Atom    -14.763697
   11 Atom    -14.675915
   12 Atom    -22.315797
   13 Atom    -14.710088
   14 Atom    -14.765050
   15 Atom     -1.113189
   16 Atom     -1.111043
   17 Atom     -1.104742
   18 Atom     -1.103620
   19 Atom     -1.105904
   20 Atom     -1.102501
   21 Atom     -1.101922
   22 Atom     -1.090968
   23 Atom     -1.111929
   24 Atom     -1.118071
   25 Atom     -1.110256
   26 Atom     -1.103351
   27 Atom     -1.108781
 -----------------------------------------------------------------
 Unable to Open any file for archive entry.
 1\1\GINC-NOTCH093\SP\RwB97XD\def2TZVP\C10H13N1O3\U6053008\12-Jul-2024\
 0\\#N Guess=Read Geom=Check Integral(Ultrafine) Density Pop=(ChelpG,Re
 adRadii) NMR wB97XD def2TZVP\\12326824_16\\0,1\C,0,3.9429216723,-0.822
 0801466,-0.5242226405\C,0,3.2267293813,0.003895882,0.5254846668\O,0,1.
 8597702006,-0.3906485883,0.6659435792\C,0,0.9830262147,0.0953632283,-0
 .2193927638\O,0,1.2816614626,0.8975099532,-1.0706920991\C,0,-0.3659216
 964,-0.5102553303,-0.0477956657\C,0,-0.4296798389,-1.8629251333,0.3393
 542687\N,0,-1.5298665988,-2.5945053476,0.3856122238\C,0,-2.6681612355,
 -1.9855448684,0.0384725914\C,0,-2.7457237897,-0.6543837535,-0.32931098
 19\C,0,-1.5828182353,0.1336996802,-0.3639608068\O,0,-1.7833971959,1.41
 10913297,-0.6927552963\C,0,-1.0029210432,2.510769327,-0.2272571868\C,0
 ,-0.819389126,2.521738732,1.2791318759\H,0,3.510044743,-0.6458543625,-
 1.5186645359\H,0,3.8775779903,-1.8947067382,-0.2906969506\H,0,5.005613
 3665,-0.540663275,-0.5585621445\H,0,3.6626277159,-0.1488771853,1.52146
 08098\H,0,3.266427051,1.0744305085,0.2779366328\H,0,0.5056938028,-2.36
 33718454,0.6067056414\H,0,-3.5782349019,-2.5941413032,0.0717137523\H,0
 ,-3.6979775475,-0.183325724,-0.5749909621\H,0,-1.5878899611,3.38619869
 21,-0.5394754882\H,0,-0.0399352825,2.534745924,-0.7526299882\H,0,-1.79
 04263487,2.4680542691,1.7932742699\H,0,-0.3233729458,3.4577019375,1.57
 47420376\H,0,-0.196257854,1.6894641381,1.6377551608\\Version=ES64L-G16
 RevC.01\State=1-A\HF=-669.3498077\RMSD=1.761e-09\Dipole=0.4508695,0.77
 64916,0.4950379\Quadrupole=7.9416756,-3.2456349,-4.6960406,-2.6943647,
 1.9044838,3.3902106\PG=C01 [X(C10H13N1O3)]\\@
 The archive entry for this job was punched.


 The most important thing in communication is to hear what isn't being said.
 -- Peter F. Drucker
 Job cpu time:       0 days  1 hours 18 minutes 51.2 seconds.
 Elapsed time:       0 days  0 hours  5 minutes 12.0 seconds.
 File lengths (MBytes):  RWF=    165 Int=      0 D2E=      0 Chk=     25 Scr=      2
 Normal termination of Gaussian 16 at Fri Jul 12 13:33:38 2024.
