 Entering Gaussian System, Link 0=g16
 Input=12328828_2.com
 Output=12328828_2.log
 Initial command:
 /uufs/chpc.utah.edu/sys/installdir/gaussian16/C01/AVX/g16/l1.exe "/scratch/general/vast/u6053008/1319796-notchpeak.peaks/Gau-1289415.inp" -scrdir="/scratch/general/vast/u6053008/1319796-notchpeak.peaks/"
 Entering Link 1 = /uufs/chpc.utah.edu/sys/installdir/gaussian16/C01/AVX/g16/l1.exe PID=   1289417.
  
 Copyright (c) 1988-2019, Gaussian, Inc.  All Rights Reserved.
  
 This is part of the Gaussian(R) 16 program.  It is based on
 the Gaussian(R) 09 system (copyright 2009, Gaussian, Inc.),
 the Gaussian(R) 03 system (copyright 2003, Gaussian, Inc.),
 the Gaussian(R) 98 system (copyright 1998, Gaussian, Inc.),
 the Gaussian(R) 94 system (copyright 1995, Gaussian, Inc.),
 the Gaussian 92(TM) system (copyright 1992, Gaussian, Inc.),
 the Gaussian 90(TM) system (copyright 1990, Gaussian, Inc.),
 the Gaussian 88(TM) system (copyright 1988, Gaussian, Inc.),
 the Gaussian 86(TM) system (copyright 1986, Carnegie Mellon
 University), and the Gaussian 82(TM) system (copyright 1983,
 Carnegie Mellon University). Gaussian is a federally registered
 trademark of Gaussian, Inc.
  
 This software contains proprietary and confidential information,
 including trade secrets, belonging to Gaussian, Inc.
  
 This software is provided under written license and may be
 used, copied, transmitted, or stored only in accord with that
 written license.
  
 The following legend is applicable only to US Government
 contracts under FAR:
  
                    RESTRICTED RIGHTS LEGEND
  
 Use, reproduction and disclosure by the US Government is
 subject to restrictions as set forth in subparagraphs (a)
 and (c) of the Commercial Computer Software - Restricted
 Rights clause in FAR 52.227-19.
  
 Gaussian, Inc.
 340 Quinnipiac St., Bldg. 40, Wallingford CT 06492
  
  
 ---------------------------------------------------------------
 Warning -- This program may not be used in any manner that
 competes with the business of Gaussian, Inc. or will provide
 assistance to any competitor of Gaussian, Inc.  The licensee
 of this program is prohibited from giving any competitor of
 Gaussian, Inc. access to this program.  By using this program,
 the user acknowledges that Gaussian, Inc. is engaged in the
 business of creating and licensing software in the field of
 computational chemistry and represents and warrants to the
 licensee that it is not a competitor of Gaussian, Inc. and that
 it will not use this program in any manner prohibited above.
 ---------------------------------------------------------------
  

 Cite this work as:
 Gaussian 16, Revision C.01,
 M. J. Frisch, G. W. Trucks, H. B. Schlegel, G. E. Scuseria, 
 M. A. Robb, J. R. Cheeseman, G. Scalmani, V. Barone, 
 G. A. Petersson, H. Nakatsuji, X. Li, M. Caricato, A. V. Marenich, 
 J. Bloino, B. G. Janesko, R. Gomperts, B. Mennucci, H. P. Hratchian, 
 J. V. Ortiz, A. F. Izmaylov, J. L. Sonnenberg, D. Williams-Young, 
 F. Ding, F. Lipparini, F. Egidi, J. Goings, B. Peng, A. Petrone, 
 T. Henderson, D. Ranasinghe, V. G. Zakrzewski, J. Gao, N. Rega, 
 G. Zheng, W. Liang, M. Hada, M. Ehara, K. Toyota, R. Fukuda, 
 J. Hasegawa, M. Ishida, T. Nakajima, Y. Honda, O. Kitao, H. Nakai, 
 T. Vreven, K. Throssell, J. A. Montgomery, Jr., J. E. Peralta, 
 F. Ogliaro, M. J. Bearpark, J. J. Heyd, E. N. Brothers, K. N. Kudin, 
 V. N. Staroverov, T. A. Keith, R. Kobayashi, J. Normand, 
 K. Raghavachari, A. P. Rendell, J. C. Burant, S. S. Iyengar, 
 J. Tomasi, M. Cossi, J. M. Millam, M. Klene, C. Adamo, R. Cammi, 
 J. W. Ochterski, R. L. Martin, K. Morokuma, O. Farkas, 
 J. B. Foresman, and D. J. Fox, Gaussian, Inc., Wallingford CT, 2019.
 
 ******************************************
 Gaussian 16:  ES64L-G16RevC.01  3-Jul-2019
                14-Jul-2024 
 ******************************************
 %NProcShared=16
 Will use up to   16 processors via shared memory.
 %Mem=32GB
 %chk=12328828_2.chk
 ------------------------------------------------------
 #N OPT FREQ=NORAMAN Integral(Ultrafine) wB97XD def2SVP
 ------------------------------------------------------
 1/18=20,19=15,26=4,38=1/1,3;
 2/9=110,12=2,17=6,18=5,40=1/2;
 3/5=43,7=101,11=2,25=1,30=1,71=1,74=-58,75=-5/1,2,3;
 4//1;
 5/5=2,38=5/2;
 6/7=2,8=2,9=2,10=2,28=1/1;
 7//1,2,3,16;
 1/18=20,19=15,26=4/3(2);
 2/9=110/2;
 99//99;
 2/9=110/2;
 3/5=43,7=101,11=2,25=1,30=1,71=1,74=-58,75=-5/1,2,3;
 4/5=5,16=3,69=1/1;
 5/5=2,38=5/2;
 7//1,2,3,16;
 1/18=20,19=15,26=4/3(-5);
 2/9=110/2;
 6/7=2,8=2,9=2,10=2,19=2,28=1/1;
 99/9=1/99;
 ----------
 12328828_2
 ----------
 Symbolic Z-matrix:
 Charge =  0 Multiplicity = 1
 C                     4.53331   0.45069  -0.0039 
 C                     4.1868   -0.88371  -0.21528 
 C                     2.84791  -1.26697  -0.20184 
 C                     1.84098  -0.32459   0.03017 
 C                     0.40456  -0.77978   0.08738 
 O                    -0.45374   0.31947  -0.10017 
 C                    -1.78178   0.13586  -0.04962 
 C                    -2.58801   1.26845  -0.22545 
 C                    -3.96619   1.11567  -0.17986 
 N                    -4.58393  -0.05131   0.02278 
 C                    -3.81024  -1.11717   0.18707 
 C                    -2.41375  -1.09364   0.16201 
 C                     2.19263   1.01019   0.24072 
 C                     3.53305   1.39447   0.22111 
 H                     5.58224   0.75423  -0.01889 
 H                     4.96308  -1.62972  -0.3987 
 H                     2.58288  -2.31361  -0.37763 
 H                     0.20239  -1.24915   1.06907 
 H                     0.22151  -1.54551  -0.68812 
 H                    -2.12419   2.24095  -0.3947 
 H                    -4.61075   1.99097  -0.31544 
 H                    -4.3221   -2.07209   0.35219 
 H                    -1.85765  -2.01961   0.3045 
 H                     1.40796   1.74816   0.41153 
 H                     3.79654   2.44205   0.38303 
 

 GradGradGradGradGradGradGradGradGradGradGradGradGradGradGradGradGradGrad
 Berny optimization.
 Initialization pass.
                           ----------------------------
                           !    Initial Parameters    !
                           ! (Angstroms and Degrees)  !
 --------------------------                            --------------------------
 ! Name  Definition              Value          Derivative Info.                !
 --------------------------------------------------------------------------------
 ! R1    R(1,2)                  1.3948         estimate D2E/DX2                !
 ! R2    R(1,14)                 1.3935         estimate D2E/DX2                !
 ! R3    R(1,15)                 1.0921         estimate D2E/DX2                !
 ! R4    R(2,3)                  1.3927         estimate D2E/DX2                !
 ! R5    R(2,16)                 1.0921         estimate D2E/DX2                !
 ! R6    R(3,4)                  1.3985         estimate D2E/DX2                !
 ! R7    R(3,17)                 1.0939         estimate D2E/DX2                !
 ! R8    R(4,5)                  1.5079         estimate D2E/DX2                !
 ! R9    R(4,13)                 1.3963         estimate D2E/DX2                !
 ! R10   R(5,6)                  1.4072         estimate D2E/DX2                !
 ! R11   R(5,18)                 1.1068         estimate D2E/DX2                !
 ! R12   R(5,19)                 1.1051         estimate D2E/DX2                !
 ! R13   R(6,7)                  1.3416         estimate D2E/DX2                !
 ! R14   R(7,8)                  1.4013         estimate D2E/DX2                !
 ! R15   R(7,12)                 1.3985         estimate D2E/DX2                !
 ! R16   R(8,9)                  1.3874         estimate D2E/DX2                !
 ! R17   R(8,20)                 1.0907         estimate D2E/DX2                !
 ! R18   R(9,10)                 1.3359         estimate D2E/DX2                !
 ! R19   R(9,21)                 1.0954         estimate D2E/DX2                !
 ! R20   R(10,11)                1.3273         estimate D2E/DX2                !
 ! R21   R(11,12)                1.3969         estimate D2E/DX2                !
 ! R22   R(11,22)                1.096          estimate D2E/DX2                !
 ! R23   R(12,23)                1.0895         estimate D2E/DX2                !
 ! R24   R(13,14)                1.3946         estimate D2E/DX2                !
 ! R25   R(13,24)                1.0906         estimate D2E/DX2                !
 ! R26   R(14,25)                1.0923         estimate D2E/DX2                !
 ! A1    A(2,1,14)             119.6104         estimate D2E/DX2                !
 ! A2    A(2,1,15)             120.163          estimate D2E/DX2                !
 ! A3    A(14,1,15)            120.2261         estimate D2E/DX2                !
 ! A4    A(1,2,3)              120.0427         estimate D2E/DX2                !
 ! A5    A(1,2,16)             120.1571         estimate D2E/DX2                !
 ! A6    A(3,2,16)             119.7988         estimate D2E/DX2                !
 ! A7    A(2,3,4)              120.5532         estimate D2E/DX2                !
 ! A8    A(2,3,17)             119.6476         estimate D2E/DX2                !
 ! A9    A(4,3,17)             119.7989         estimate D2E/DX2                !
 ! A10   A(3,4,5)              119.2586         estimate D2E/DX2                !
 ! A11   A(3,4,13)             119.1993         estimate D2E/DX2                !
 ! A12   A(5,4,13)             121.5174         estimate D2E/DX2                !
 ! A13   A(4,5,6)              109.8863         estimate D2E/DX2                !
 ! A14   A(4,5,18)             109.6142         estimate D2E/DX2                !
 ! A15   A(4,5,19)             109.897          estimate D2E/DX2                !
 ! A16   A(6,5,18)             109.7606         estimate D2E/DX2                !
 ! A17   A(6,5,19)             110.2864         estimate D2E/DX2                !
 ! A18   A(18,5,19)            107.3575         estimate D2E/DX2                !
 ! A19   A(5,6,7)              119.461          estimate D2E/DX2                !
 ! A20   A(6,7,8)              117.0117         estimate D2E/DX2                !
 ! A21   A(6,7,12)             124.9827         estimate D2E/DX2                !
 ! A22   A(8,7,12)             118.0055         estimate D2E/DX2                !
 ! A23   A(7,8,9)              118.5809         estimate D2E/DX2                !
 ! A24   A(7,8,20)             119.7009         estimate D2E/DX2                !
 ! A25   A(9,8,20)             121.7181         estimate D2E/DX2                !
 ! A26   A(8,9,10)             124.094          estimate D2E/DX2                !
 ! A27   A(8,9,21)             119.5014         estimate D2E/DX2                !
 ! A28   A(10,9,21)            116.4046         estimate D2E/DX2                !
 ! A29   A(9,10,11)            116.7915         estimate D2E/DX2                !
 ! A30   A(10,11,12)           124.5409         estimate D2E/DX2                !
 ! A31   A(10,11,22)           116.4939         estimate D2E/DX2                !
 ! A32   A(12,11,22)           118.9652         estimate D2E/DX2                !
 ! A33   A(7,12,11)            117.9871         estimate D2E/DX2                !
 ! A34   A(7,12,23)            122.4348         estimate D2E/DX2                !
 ! A35   A(11,12,23)           119.5781         estimate D2E/DX2                !
 ! A36   A(4,13,14)            120.2231         estimate D2E/DX2                !
 ! A37   A(4,13,24)            119.2918         estimate D2E/DX2                !
 ! A38   A(14,13,24)           120.483          estimate D2E/DX2                !
 ! A39   A(1,14,13)            120.3698         estimate D2E/DX2                !
 ! A40   A(1,14,25)            120.0222         estimate D2E/DX2                !
 ! A41   A(13,14,25)           119.608          estimate D2E/DX2                !
 ! D1    D(14,1,2,3)             0.0465         estimate D2E/DX2                !
 ! D2    D(14,1,2,16)          179.6162         estimate D2E/DX2                !
 ! D3    D(15,1,2,3)          -179.6997         estimate D2E/DX2                !
 ! D4    D(15,1,2,16)           -0.13           estimate D2E/DX2                !
 ! D5    D(2,1,14,13)            0.2464         estimate D2E/DX2                !
 ! D6    D(2,1,14,25)         -179.7293         estimate D2E/DX2                !
 ! D7    D(15,1,14,13)         179.9924         estimate D2E/DX2                !
 ! D8    D(15,1,14,25)           0.0167         estimate D2E/DX2                !
 ! D9    D(1,2,3,4)             -0.367          estimate D2E/DX2                !
 ! D10   D(1,2,3,17)           179.4316         estimate D2E/DX2                !
 ! D11   D(16,2,3,4)          -179.9383         estimate D2E/DX2                !
 ! D12   D(16,2,3,17)           -0.1397         estimate D2E/DX2                !
 ! D13   D(2,3,4,5)           -177.8292         estimate D2E/DX2                !
 ! D14   D(2,3,4,13)             0.3904         estimate D2E/DX2                !
 ! D15   D(17,3,4,5)             2.3725         estimate D2E/DX2                !
 ! D16   D(17,3,4,13)         -179.4079         estimate D2E/DX2                !
 ! D17   D(3,4,5,6)           -161.3192         estimate D2E/DX2                !
 ! D18   D(3,4,5,18)            77.9781         estimate D2E/DX2                !
 ! D19   D(3,4,5,19)           -39.7837         estimate D2E/DX2                !
 ! D20   D(13,4,5,6)            20.5039         estimate D2E/DX2                !
 ! D21   D(13,4,5,18)         -100.1987         estimate D2E/DX2                !
 ! D22   D(13,4,5,19)          142.0394         estimate D2E/DX2                !
 ! D23   D(3,4,13,14)           -0.0966         estimate D2E/DX2                !
 ! D24   D(3,4,13,24)          179.3713         estimate D2E/DX2                !
 ! D25   D(5,4,13,14)          178.0813         estimate D2E/DX2                !
 ! D26   D(5,4,13,24)           -2.4508         estimate D2E/DX2                !
 ! D27   D(4,5,6,7)           -178.2558         estimate D2E/DX2                !
 ! D28   D(18,5,6,7)           -57.6415         estimate D2E/DX2                !
 ! D29   D(19,5,6,7)            60.4418         estimate D2E/DX2                !
 ! D30   D(5,6,7,8)            179.1678         estimate D2E/DX2                !
 ! D31   D(5,6,7,12)            -0.932          estimate D2E/DX2                !
 ! D32   D(6,7,8,9)            179.9722         estimate D2E/DX2                !
 ! D33   D(6,7,8,20)             0.0478         estimate D2E/DX2                !
 ! D34   D(12,7,8,9)             0.0647         estimate D2E/DX2                !
 ! D35   D(12,7,8,20)         -179.8596         estimate D2E/DX2                !
 ! D36   D(6,7,12,11)         -179.9885         estimate D2E/DX2                !
 ! D37   D(6,7,12,23)           -0.0642         estimate D2E/DX2                !
 ! D38   D(8,7,12,11)           -0.0892         estimate D2E/DX2                !
 ! D39   D(8,7,12,23)          179.8351         estimate D2E/DX2                !
 ! D40   D(7,8,9,10)             0.0085         estimate D2E/DX2                !
 ! D41   D(7,8,9,21)          -179.9995         estimate D2E/DX2                !
 ! D42   D(20,8,9,10)          179.9312         estimate D2E/DX2                !
 ! D43   D(20,8,9,21)           -0.0767         estimate D2E/DX2                !
 ! D44   D(8,9,10,11)           -0.0541         estimate D2E/DX2                !
 ! D45   D(21,9,10,11)         179.9536         estimate D2E/DX2                !
 ! D46   D(9,10,11,12)           0.0262         estimate D2E/DX2                !
 ! D47   D(9,10,11,22)        -179.9541         estimate D2E/DX2                !
 ! D48   D(10,11,12,7)           0.0457         estimate D2E/DX2                !
 ! D49   D(10,11,12,23)       -179.8809         estimate D2E/DX2                !
 ! D50   D(22,11,12,7)        -179.9744         estimate D2E/DX2                !
 ! D51   D(22,11,12,23)          0.099          estimate D2E/DX2                !
 ! D52   D(4,13,14,1)           -0.2211         estimate D2E/DX2                !
 ! D53   D(4,13,14,25)         179.7547         estimate D2E/DX2                !
 ! D54   D(24,13,14,1)        -179.6825         estimate D2E/DX2                !
 ! D55   D(24,13,14,25)          0.2932         estimate D2E/DX2                !
 --------------------------------------------------------------------------------
 Trust Radius=3.00D-01 FncErr=1.00D-07 GrdErr=1.00D-06 EigMax=2.50D+02 EigMin=1.00D-04
 Number of steps in this run=    132 maximum allowed number of steps=    150.
 GradGradGradGradGradGradGradGradGradGradGradGradGradGradGradGradGradGrad

                          Input orientation:                          
 ---------------------------------------------------------------------
 Center     Atomic      Atomic             Coordinates (Angstroms)
 Number     Number       Type             X           Y           Z
 ---------------------------------------------------------------------
      1          6           0        4.533310    0.450690   -0.003900
      2          6           0        4.186800   -0.883710   -0.215280
      3          6           0        2.847910   -1.266970   -0.201840
      4          6           0        1.840980   -0.324590    0.030170
      5          6           0        0.404560   -0.779780    0.087380
      6          8           0       -0.453740    0.319470   -0.100170
      7          6           0       -1.781780    0.135860   -0.049620
      8          6           0       -2.588010    1.268450   -0.225450
      9          6           0       -3.966190    1.115670   -0.179860
     10          7           0       -4.583930   -0.051310    0.022780
     11          6           0       -3.810240   -1.117170    0.187070
     12          6           0       -2.413750   -1.093640    0.162010
     13          6           0        2.192630    1.010190    0.240720
     14          6           0        3.533050    1.394470    0.221110
     15          1           0        5.582240    0.754230   -0.018890
     16          1           0        4.963080   -1.629720   -0.398700
     17          1           0        2.582880   -2.313610   -0.377630
     18          1           0        0.202390   -1.249150    1.069070
     19          1           0        0.221510   -1.545510   -0.688120
     20          1           0       -2.124190    2.240950   -0.394700
     21          1           0       -4.610750    1.990970   -0.315440
     22          1           0       -4.322100   -2.072090    0.352190
     23          1           0       -1.857650   -2.019610    0.304500
     24          1           0        1.407960    1.748160    0.411530
     25          1           0        3.796540    2.442050    0.383030
 ---------------------------------------------------------------------
                    Distance matrix (angstroms):
                    1          2          3          4          5
     1  C    0.000000
     2  C    1.394767   0.000000
     3  C    2.414562   1.392729   0.000000
     4  C    2.801939   2.423991   1.398505   0.000000
     5  C    4.309172   3.795753   2.508179   1.507904   0.000000
     6  O    4.989705   4.795363   3.664426   2.386952   1.407197
     7  C    6.323098   6.057302   4.839952   3.652776   2.374289
     8  C    7.171542   7.108442   5.998178   4.713711   3.639860
     9  C    8.527289   8.394642   7.218685   5.986793   4.771541
    10  N    9.131089   8.813357   7.533958   6.430724   5.041813
    11  C    8.491730   8.010558   6.671181   5.708685   4.229457
    12  C    7.118576   6.614656   5.277073   4.325685   2.836714
    13  C    2.419021   2.787742   2.410541   1.396290   2.534699
    14  C    1.393510   2.409965   2.780569   2.419654   3.812177
    15  H    1.092069   2.160710   3.405184   3.894006   5.401190
    16  H    2.160712   1.092147   2.155060   3.410983   4.662486
    17  H    3.403705   2.154885   1.093891   2.161693   2.704431
    18  H    4.774682   4.202217   2.935014   2.149210   1.106750
    19  H    4.800478   4.047849   2.685522   2.151574   1.105102
    20  H    6.905075   7.044451   6.088060   4.741844   3.968852
    21  H    9.278111   9.255847   8.139944   6.863387   5.743923
    22  H    9.214635   8.610206   7.236312   6.414126   4.907291
    23  H    6.858707   6.172181   4.792196   4.077771   2.588805
    24  H    3.409373   3.878348   3.397159   2.151566   2.739045
    25  H    2.158254   3.401611   3.872829   3.406321   4.687550
                    6          7          8          9         10
     6  O    0.000000
     7  C    1.341625   0.000000
     8  C    2.339095   1.401315   0.000000
     9  C    3.602442   2.397632   1.387372   0.000000
    10  N    4.148622   2.809327   2.405635   1.335855   0.000000
    11  C    3.662313   2.395988   2.712048   2.268156   1.327270
    12  C    2.430485   1.398515   2.399992   2.721763   2.411539
    13  C    2.756188   4.079790   4.810253   6.174065   6.862656
    14  C    4.141659   5.468529   6.138621   7.515125   8.247119
    15  H    6.052163   7.390001   8.189022   9.556624  10.198120
    16  H    5.764582   6.980850   8.090016   9.344352   9.685785
    17  H    4.028791   5.015750   6.292250   7.395228   7.526054
    18  H    2.063540   2.665830   3.974975   4.952702   5.043650
    19  H    2.068767   2.692185   4.003228   4.987689   5.082348
    20  H    2.563052   2.160493   1.090656   2.169188   3.388077
    21  H    4.485642   3.393400   2.149793   1.095440   2.070270
    22  H    4.570383   3.389649   3.807879   3.251394   2.064126
    23  H    2.757901   2.185683   3.409635   3.809268   3.374340
    24  H    2.401857   3.603694   4.074757   5.443462   6.268330
    25  H    4.775323   6.051723   6.519974   7.895322   8.750937
                   11         12         13         14         15
    11  C    0.000000
    12  C    1.396913   0.000000
    13  C    6.368908   5.064685   0.000000
    14  C    7.761018   6.446597   1.394554   0.000000
    15  H    9.579313   8.208727   3.409160   2.160252   0.000000
    16  H    8.807779   7.417506   3.879868   3.402187   2.492154
    17  H    6.528579   5.171639   3.403278   3.874425   4.305403
    18  H    4.110540   2.773289   3.122793   4.336019   5.842942
    19  H    4.147824   2.805620   3.358521   4.520672   5.871465
    20  H    3.802393   3.393120   4.533593   5.753270   7.857521
    21  H    3.248672   3.817013   6.896175   8.183225  10.272026
    22  H    1.095964   2.152982   7.207953   8.587060  10.306393
    23  H    2.154251   1.089482   5.058510   6.381422   7.946744
    24  H    5.957358   4.769020   1.090634   2.162721   4.312513
    25  H    8.400568   7.149661   2.154763   1.092277   2.489779
                   16         17         18         19         20
    16  H    0.000000
    17  H    2.476591   0.000000
    18  H    4.996334   2.982071   0.000000
    19  H    4.751141   2.502489   1.782109   0.000000
    20  H    8.075364   6.549871   4.442566   4.463819   0.000000
    21  H   10.235944   8.383412   5.965028   5.999693   2.500351
    22  H    9.325990   6.947641   4.654262   4.690834   4.898057
    23  H    6.867959   4.502227   2.328506   2.352227   4.325771
    24  H    4.970455   4.301301   3.296911   3.669490   3.656355
    25  H    4.307114   4.966677   5.197453   5.461578   5.974977
                   21         22         23         24         25
    21  H    0.000000
    22  H    4.127651   0.000000
    23  H    4.903941   2.465470   0.000000
    24  H    6.067315   6.887047   4.987159   0.000000
    25  H    8.448305   9.289280   7.202947   2.487491   0.000000
 Stoichiometry    C12H11NO
 Framework group  C1[X(C12H11NO)]
 Deg. of freedom    69
 Full point group                 C1      NOp   1
 Largest Abelian subgroup         C1      NOp   1
 Largest concise Abelian subgroup C1      NOp   1
                         Standard orientation:                         
 ---------------------------------------------------------------------
 Center     Atomic      Atomic             Coordinates (Angstroms)
 Number     Number       Type             X           Y           Z
 ---------------------------------------------------------------------
      1          6           0        4.533309    0.450691   -0.003900
      2          6           0        4.186799   -0.883710   -0.215280
      3          6           0        2.847909   -1.266970   -0.201840
      4          6           0        1.840979   -0.324590    0.030170
      5          6           0        0.404559   -0.779781    0.087380
      6          8           0       -0.453741    0.319469   -0.100170
      7          6           0       -1.781781    0.135859   -0.049620
      8          6           0       -2.588011    1.268448   -0.225450
      9          6           0       -3.966191    1.115668   -0.179860
     10          7           0       -4.583931   -0.051312    0.022780
     11          6           0       -3.810241   -1.117172    0.187070
     12          6           0       -2.413751   -1.093642    0.162010
     13          6           0        2.192629    1.010190    0.240720
     14          6           0        3.533049    1.394470    0.221110
     15          1           0        5.582239    0.754231   -0.018890
     16          1           0        4.963079   -1.629719   -0.398700
     17          1           0        2.582880   -2.313610   -0.377630
     18          1           0        0.202389   -1.249151    1.069070
     19          1           0        0.221509   -1.545511   -0.688120
     20          1           0       -2.124192    2.240949   -0.394700
     21          1           0       -4.610752    1.990968   -0.315440
     22          1           0       -4.322100   -2.072092    0.352190
     23          1           0       -1.857650   -2.019611    0.304500
     24          1           0        1.407958    1.748160    0.411530
     25          1           0        3.796538    2.442050    0.383030
 ---------------------------------------------------------------------
 Rotational constants (GHZ):           2.7031626           0.2826417           0.2577360
 Standard basis: def2SVP (5D, 7F)
 There are   265 symmetry adapted cartesian basis functions of A   symmetry.
 There are   251 symmetry adapted basis functions of A   symmetry.
   251 basis functions,   427 primitive gaussians,   265 cartesian basis functions
    49 alpha electrons       49 beta electrons
       nuclear repulsion energy       781.2391752285 Hartrees.
 NAtoms=   25 NActive=   25 NUniq=   25 SFac= 1.00D+00 NAtFMM=   60 NAOKFM=F Big=F
 Integral buffers will be    131072 words long.
 Raffenetti 2 integral format.
 Two-electron integral symmetry is turned on.
 Nuclear repulsion after empirical dispersion term =      781.2259330675 Hartrees.
 One-electron integrals computed using PRISM.
   1 Symmetry operations used in ECPInt.
 ECPInt:  NShTT=    6903 NPrTT=   25191 LenC2=    6328 LenP2D=   16904.
 LDataN:  DoStor=T MaxTD1= 4 Len=   56
 NBasis=   251 RedAO= T EigKep=  2.93D-04  NBF=   251
 NBsUse=   251 1.00D-06 EigRej= -1.00D+00 NBFU=   251
 ExpMin= 1.22D-01 ExpMax= 2.27D+03 ExpMxC= 3.41D+02 IAcc=3 IRadAn=         5 AccDes= 0.00D+00
 Harris functional with IExCor= 4639 and IRadAn=       5 diagonalized for initial guess.
 HarFok:  IExCor= 4639 AccDes= 0.00D+00 IRadAn=         5 IDoV= 1 UseB2=F ITyADJ=14
 ICtDFT=  3500011 ScaDFX=  1.000000  1.000000  1.000000  1.000000
 FoFCou: FMM=F IPFlag=           0 FMFlag=      100000 FMFlg1=           0
         NFxFlg=           0 DoJE=T BraDBF=F KetDBF=T FulRan=T
         wScrn=  0.000000 ICntrl=       500 IOpCl=  0 I1Cent=   200000004 NGrid=           0
         NMat0=    1 NMatS0=      1 NMatT0=    0 NMatD0=    1 NMtDS0=    0 NMtDT0=    0
 Petite list used in FoFCou.
 Requested convergence on RMS density matrix=1.00D-08 within 128 cycles.
 Requested convergence on MAX density matrix=1.00D-06.
 Requested convergence on             energy=1.00D-06.
 No special actions if energy rises.
 Integral accuracy reduced to 1.0D-05 until final iterations.
 Initial convergence to 1.0D-05 achieved.  Increase integral accuracy.
 SCF Done:  E(RwB97XD) =  -593.235764789     A.U. after   15 cycles
            NFock= 15  Conv=0.39D-08     -V/T= 2.0106

 **********************************************************************

            Population analysis using the SCF Density.

 **********************************************************************

 Orbital symmetries:
       Occupied  (A) (A) (A) (A) (A) (A) (A) (A) (A) (A) (A) (A)
                 (A) (A) (A) (A) (A) (A) (A) (A) (A) (A) (A) (A)
                 (A) (A) (A) (A) (A) (A) (A) (A) (A) (A) (A) (A)
                 (A) (A) (A) (A) (A) (A) (A) (A) (A) (A) (A) (A)
                 (A)
       Virtual   (A) (A) (A) (A) (A) (A) (A) (A) (A) (A) (A) (A)
                 (A) (A) (A) (A) (A) (A) (A) (A) (A) (A) (A) (A)
                 (A) (A) (A) (A) (A) (A) (A) (A) (A) (A) (A) (A)
                 (A) (A) (A) (A) (A) (A) (A) (A) (A) (A) (A) (A)
                 (A) (A) (A) (A) (A) (A) (A) (A) (A) (A) (A) (A)
                 (A) (A) (A) (A) (A) (A) (A) (A) (A) (A) (A) (A)
                 (A) (A) (A) (A) (A) (A) (A) (A) (A) (A) (A) (A)
                 (A) (A) (A) (A) (A) (A) (A) (A) (A) (A) (A) (A)
                 (A) (A) (A) (A) (A) (A) (A) (A) (A) (A) (A) (A)
                 (A) (A) (A) (A) (A) (A) (A) (A) (A) (A) (A) (A)
                 (A) (A) (A) (A) (A) (A) (A) (A) (A) (A) (A) (A)
                 (A) (A) (A) (A) (A) (A) (A) (A) (A) (A) (A) (A)
                 (A) (A) (A) (A) (A) (A) (A) (A) (A) (A) (A) (A)
                 (A) (A) (A) (A) (A) (A) (A) (A) (A) (A) (A) (A)
                 (A) (A) (A) (A) (A) (A) (A) (A) (A) (A) (A) (A)
                 (A) (A) (A) (A) (A) (A) (A) (A) (A) (A) (A) (A)
                 (A) (A) (A) (A) (A) (A) (A) (A) (A) (A)
 The electronic state is 1-A.
 Alpha  occ. eigenvalues --  -19.30840 -14.43204 -10.38426 -10.37489 -10.33824
 Alpha  occ. eigenvalues --  -10.33575 -10.31971 -10.31192 -10.31124 -10.31068
 Alpha  occ. eigenvalues --  -10.30910 -10.30817 -10.30700 -10.30642  -1.18919
 Alpha  occ. eigenvalues --   -1.03728  -0.96388  -0.90929  -0.86758  -0.85785
 Alpha  occ. eigenvalues --   -0.84530  -0.79877  -0.72984  -0.71965  -0.69803
 Alpha  occ. eigenvalues --   -0.67868  -0.64470  -0.62183  -0.59006  -0.58894
 Alpha  occ. eigenvalues --   -0.56736  -0.55139  -0.54201  -0.53380  -0.52067
 Alpha  occ. eigenvalues --   -0.51506  -0.51139  -0.50137  -0.47337  -0.46614
 Alpha  occ. eigenvalues --   -0.44122  -0.43862  -0.43315  -0.42199  -0.34722
 Alpha  occ. eigenvalues --   -0.33995  -0.33751  -0.33455  -0.32807
 Alpha virt. eigenvalues --    0.04575   0.05239   0.05633   0.05878   0.13532
 Alpha virt. eigenvalues --    0.14293   0.15512   0.17270   0.17975   0.19228
 Alpha virt. eigenvalues --    0.19440   0.20084   0.21659   0.22758   0.22958
 Alpha virt. eigenvalues --    0.23970   0.25052   0.26491   0.27566   0.31712
 Alpha virt. eigenvalues --    0.31875   0.34881   0.36402   0.37037   0.37689
 Alpha virt. eigenvalues --    0.39167   0.39392   0.41292   0.42431   0.43872
 Alpha virt. eigenvalues --    0.47860   0.48114   0.49016   0.49657   0.50367
 Alpha virt. eigenvalues --    0.51812   0.52320   0.53691   0.54150   0.54642
 Alpha virt. eigenvalues --    0.54879   0.56208   0.57305   0.57883   0.60282
 Alpha virt. eigenvalues --    0.60973   0.61697   0.62463   0.62831   0.64898
 Alpha virt. eigenvalues --    0.66917   0.67741   0.68064   0.68730   0.68963
 Alpha virt. eigenvalues --    0.70183   0.71007   0.72004   0.72431   0.73218
 Alpha virt. eigenvalues --    0.74405   0.74871   0.75181   0.75624   0.77381
 Alpha virt. eigenvalues --    0.78649   0.79162   0.80309   0.81192   0.81930
 Alpha virt. eigenvalues --    0.82245   0.82632   0.84173   0.85684   0.85964
 Alpha virt. eigenvalues --    0.87238   0.90720   0.91933   0.92989   0.96680
 Alpha virt. eigenvalues --    0.99175   0.99504   1.02342   1.06024   1.12853
 Alpha virt. eigenvalues --    1.13194   1.14697   1.16560   1.19518   1.22538
 Alpha virt. eigenvalues --    1.23818   1.25433   1.28166   1.30801   1.31870
 Alpha virt. eigenvalues --    1.32049   1.32180   1.33594   1.34684   1.36081
 Alpha virt. eigenvalues --    1.37132   1.38356   1.39130   1.40502   1.43244
 Alpha virt. eigenvalues --    1.43826   1.53506   1.54364   1.59275   1.60453
 Alpha virt. eigenvalues --    1.61687   1.70905   1.73829   1.74806   1.75365
 Alpha virt. eigenvalues --    1.75542   1.77147   1.78414   1.80227   1.81474
 Alpha virt. eigenvalues --    1.82076   1.82927   1.83244   1.83937   1.84871
 Alpha virt. eigenvalues --    1.85405   1.85887   1.86755   1.87324   1.87516
 Alpha virt. eigenvalues --    1.89326   1.90186   1.92445   1.93933   1.95383
 Alpha virt. eigenvalues --    1.96598   1.98021   2.02098   2.02497   2.03184
 Alpha virt. eigenvalues --    2.05981   2.06531   2.06652   2.07166   2.10644
 Alpha virt. eigenvalues --    2.14378   2.15899   2.17740   2.19576   2.21344
 Alpha virt. eigenvalues --    2.21508   2.22499   2.24031   2.29610   2.30344
 Alpha virt. eigenvalues --    2.33048   2.35411   2.36656   2.38234   2.38743
 Alpha virt. eigenvalues --    2.41065   2.41985   2.42839   2.43498   2.45468
 Alpha virt. eigenvalues --    2.47645   2.48351   2.52609   2.57148   2.59822
 Alpha virt. eigenvalues --    2.63619   2.69226   2.69745   2.70178   2.71071
 Alpha virt. eigenvalues --    2.72866   2.76467   2.78613   2.80824   2.81038
 Alpha virt. eigenvalues --    2.82655   2.86998   2.90300   2.91714   2.94568
 Alpha virt. eigenvalues --    2.95350   2.96334   2.97113   3.00098   3.02160
 Alpha virt. eigenvalues --    3.12973   3.13837   3.15946   3.17006   3.18295
 Alpha virt. eigenvalues --    3.23362   3.32319   3.40422   3.52935   3.58290
 Alpha virt. eigenvalues --    3.72361   3.81544
          Condensed to atoms (all electrons):
               1          2          3          4          5          6
     1  C    5.036332   0.331809   0.057544  -0.132486  -0.000166  -0.000004
     2  C    0.331809   4.964479   0.364283   0.061886   0.009194  -0.000086
     3  C    0.057544   0.364283   5.012203   0.340049  -0.066146   0.001459
     4  C   -0.132486   0.061886   0.340049   5.338912   0.316579  -0.064708
     5  C   -0.000166   0.009194  -0.066146   0.316579   4.553819   0.309071
     6  O   -0.000004  -0.000086   0.001459  -0.064708   0.309071   7.868804
     7  C    0.000001  -0.000002   0.000013   0.007570  -0.052745   0.394374
     8  C    0.000000  -0.000000   0.000016   0.000579   0.005269  -0.073805
     9  C   -0.000000   0.000000  -0.000000  -0.000008  -0.000150   0.003074
    10  N    0.000000  -0.000000   0.000000   0.000000   0.000028  -0.000048
    11  C   -0.000000   0.000000  -0.000001  -0.000013   0.000811   0.003299
    12  C   -0.000000   0.000000  -0.000023   0.000411  -0.001405  -0.076284
    13  C    0.060169  -0.114824   0.049089   0.328523  -0.081328   0.007196
    14  C    0.325717   0.060129  -0.120627   0.063864   0.011432   0.000683
    15  H    0.443892  -0.062760   0.012491  -0.001378   0.000028   0.000000
    16  H   -0.064782   0.445005  -0.063260   0.013741  -0.000277   0.000001
    17  H    0.012387  -0.055649   0.442931  -0.070279  -0.013345   0.000057
    18  H    0.000045  -0.000341  -0.003222  -0.013211   0.384811  -0.028778
    19  H    0.000010   0.000600  -0.002441  -0.042324   0.400736  -0.027526
    20  H   -0.000000  -0.000000   0.000001  -0.000174  -0.000301   0.000629
    21  H   -0.000000  -0.000000   0.000000   0.000000   0.000008  -0.000073
    22  H    0.000000  -0.000000   0.000000  -0.000001  -0.000049  -0.000073
    23  H    0.000000  -0.000000   0.000055   0.000652   0.005555  -0.007005
    24  H    0.012058  -0.001561   0.012436  -0.062306  -0.020820   0.014674
    25  H   -0.065328   0.012391  -0.001467   0.013611  -0.000267  -0.000016
               7          8          9         10         11         12
     1  C    0.000001   0.000000  -0.000000   0.000000  -0.000000  -0.000000
     2  C   -0.000002  -0.000000   0.000000  -0.000000   0.000000   0.000000
     3  C    0.000013   0.000016  -0.000000   0.000000  -0.000001  -0.000023
     4  C    0.007570   0.000579  -0.000008   0.000000  -0.000013   0.000411
     5  C   -0.052745   0.005269  -0.000150   0.000028   0.000811  -0.001405
     6  O    0.394374  -0.073805   0.003074  -0.000048   0.003299  -0.076284
     7  C    4.760514   0.437681   0.000924  -0.051009   0.003283   0.365467
     8  C    0.437681   5.038680   0.454003  -0.035340  -0.055175  -0.044298
     9  C    0.000924   0.454003   4.716407   0.513284  -0.064317  -0.054938
    10  N   -0.051009  -0.035340   0.513284   6.303555   0.540128  -0.043517
    11  C    0.003283  -0.055175  -0.064317   0.540128   4.715101   0.415723
    12  C    0.365467  -0.044298  -0.054938  -0.043517   0.415723   5.207574
    13  C    0.000337  -0.000160   0.000002  -0.000000  -0.000001   0.000006
    14  C   -0.000009  -0.000008   0.000000   0.000000   0.000000   0.000004
    15  H   -0.000000  -0.000000   0.000000   0.000000  -0.000000   0.000000
    16  H   -0.000000   0.000000  -0.000000  -0.000000  -0.000000  -0.000000
    17  H    0.000003  -0.000000   0.000000  -0.000000  -0.000000   0.000005
    18  H   -0.005963   0.000170   0.000005  -0.000017   0.000140   0.006984
    19  H   -0.008241  -0.000060   0.000017  -0.000015   0.000314   0.006833
    20  H   -0.052966   0.412857  -0.038316   0.005144  -0.000315   0.013852
    21  H    0.007432  -0.066953   0.423964  -0.039191   0.005234   0.000399
    22  H    0.006129   0.000771   0.005298  -0.038647   0.422984  -0.067822
    23  H   -0.063227   0.008686   0.000069   0.005432  -0.033525   0.421945
    24  H    0.000069  -0.000272   0.000004   0.000000  -0.000005   0.000114
    25  H    0.000000   0.000000  -0.000000  -0.000000  -0.000000  -0.000000
              13         14         15         16         17         18
     1  C    0.060169   0.325717   0.443892  -0.064782   0.012387   0.000045
     2  C   -0.114824   0.060129  -0.062760   0.445005  -0.055649  -0.000341
     3  C    0.049089  -0.120627   0.012491  -0.063260   0.442931  -0.003222
     4  C    0.328523   0.063864  -0.001378   0.013741  -0.070279  -0.013211
     5  C   -0.081328   0.011432   0.000028  -0.000277  -0.013345   0.384811
     6  O    0.007196   0.000683   0.000000   0.000001   0.000057  -0.028778
     7  C    0.000337  -0.000009  -0.000000  -0.000000   0.000003  -0.005963
     8  C   -0.000160  -0.000008  -0.000000   0.000000  -0.000000   0.000170
     9  C    0.000002   0.000000   0.000000  -0.000000   0.000000   0.000005
    10  N   -0.000000   0.000000   0.000000  -0.000000  -0.000000  -0.000017
    11  C   -0.000001   0.000000  -0.000000  -0.000000  -0.000000   0.000140
    12  C    0.000006   0.000004   0.000000  -0.000000   0.000005   0.006984
    13  C    5.012492   0.337882   0.012184  -0.001506   0.012730  -0.006252
    14  C    0.337882   5.001488  -0.062144   0.012265  -0.001536  -0.000167
    15  H    0.012184  -0.062144   0.655863  -0.010961  -0.000221  -0.000001
    16  H   -0.001506   0.012265  -0.010961   0.657886  -0.011392   0.000009
    17  H    0.012730  -0.001536  -0.000221  -0.011392   0.669774   0.000953
    18  H   -0.006252  -0.000167  -0.000001   0.000009   0.000953   0.650074
    19  H    0.008018  -0.000094  -0.000001  -0.000005   0.004388  -0.042507
    20  H   -0.000007   0.000005  -0.000000   0.000000   0.000000   0.000070
    21  H   -0.000000  -0.000000  -0.000000   0.000000   0.000000  -0.000000
    22  H    0.000000   0.000000   0.000000   0.000000   0.000000   0.000017
    23  H   -0.000020  -0.000000  -0.000000   0.000000   0.000011   0.000724
    24  H    0.450006  -0.060838  -0.000191   0.000022  -0.000159   0.000537
    25  H   -0.063942   0.446227  -0.011066  -0.000219   0.000025   0.000006
              19         20         21         22         23         24
     1  C    0.000010  -0.000000  -0.000000   0.000000   0.000000   0.012058
     2  C    0.000600  -0.000000  -0.000000  -0.000000  -0.000000  -0.001561
     3  C   -0.002441   0.000001   0.000000   0.000000   0.000055   0.012436
     4  C   -0.042324  -0.000174   0.000000  -0.000001   0.000652  -0.062306
     5  C    0.400736  -0.000301   0.000008  -0.000049   0.005555  -0.020820
     6  O   -0.027526   0.000629  -0.000073  -0.000073  -0.007005   0.014674
     7  C   -0.008241  -0.052966   0.007432   0.006129  -0.063227   0.000069
     8  C   -0.000060   0.412857  -0.066953   0.000771   0.008686  -0.000272
     9  C    0.000017  -0.038316   0.423964   0.005298   0.000069   0.000004
    10  N   -0.000015   0.005144  -0.039191  -0.038647   0.005432   0.000000
    11  C    0.000314  -0.000315   0.005234   0.422984  -0.033525  -0.000005
    12  C    0.006833   0.013852   0.000399  -0.067822   0.421945   0.000114
    13  C    0.008018  -0.000007  -0.000000   0.000000  -0.000020   0.450006
    14  C   -0.000094   0.000005  -0.000000   0.000000  -0.000000  -0.060838
    15  H   -0.000001  -0.000000  -0.000000   0.000000  -0.000000  -0.000191
    16  H   -0.000005   0.000000   0.000000   0.000000   0.000000   0.000022
    17  H    0.004388   0.000000   0.000000   0.000000   0.000011  -0.000159
    18  H   -0.042507   0.000070  -0.000000   0.000017   0.000724   0.000537
    19  H    0.656995   0.000027  -0.000000   0.000010   0.000638   0.000792
    20  H    0.000027   0.636073  -0.006970   0.000063  -0.000088   0.000402
    21  H   -0.000000  -0.006970   0.638663  -0.000301   0.000056  -0.000000
    22  H    0.000010   0.000063  -0.000301   0.642326  -0.006770   0.000000
    23  H    0.000638  -0.000088   0.000056  -0.006770   0.642216   0.000006
    24  H    0.000792   0.000402  -0.000000   0.000000   0.000006   0.642539
    25  H    0.000005  -0.000000   0.000000  -0.000000   0.000000  -0.010647
              25
     1  C   -0.065328
     2  C    0.012391
     3  C   -0.001467
     4  C    0.013611
     5  C   -0.000267
     6  O   -0.000016
     7  C    0.000000
     8  C    0.000000
     9  C   -0.000000
    10  N   -0.000000
    11  C   -0.000000
    12  C   -0.000000
    13  C   -0.063942
    14  C    0.446227
    15  H   -0.011066
    16  H   -0.000219
    17  H    0.000025
    18  H    0.000006
    19  H    0.000005
    20  H   -0.000000
    21  H    0.000000
    22  H   -0.000000
    23  H    0.000000
    24  H   -0.010647
    25  H    0.656202
 Mulliken charges:
               1
     1  C   -0.017199
     2  C   -0.014554
     3  C   -0.035380
     4  C   -0.099490
     5  C    0.239656
     6  O   -0.324914
     7  C    0.250365
     8  C   -0.082641
     9  C    0.040678
    10  N   -0.159787
    11  C    0.046336
    12  C   -0.151031
    13  C   -0.010593
    14  C   -0.014275
    15  H    0.024264
    16  H    0.023471
    17  H    0.009317
    18  H    0.055914
    19  H    0.043833
    20  H    0.030017
    21  H    0.037735
    22  H    0.036064
    23  H    0.024588
    24  H    0.023141
    25  H    0.024483
 Sum of Mulliken charges =  -0.00000
 Mulliken charges with hydrogens summed into heavy atoms:
               1
     1  C    0.007065
     2  C    0.008917
     3  C   -0.026063
     4  C   -0.099490
     5  C    0.339403
     6  O   -0.324914
     7  C    0.250365
     8  C   -0.052624
     9  C    0.078413
    10  N   -0.159787
    11  C    0.082400
    12  C   -0.126442
    13  C    0.012548
    14  C    0.010209
 Electronic spatial extent (au):  <R**2>=           3997.0111
 Charge=             -0.0000 electrons
 Dipole moment (field-independent basis, Debye):
    X=              2.8921    Y=             -0.8933    Z=              0.1745  Tot=              3.0320
 Quadrupole moment (field-independent basis, Debye-Ang):
   XX=            -91.8147   YY=            -70.8648   ZZ=            -85.5189
   XY=             -1.0164   XZ=             -0.1540   YZ=              0.0655
 Traceless Quadrupole moment (field-independent basis, Debye-Ang):
   XX=             -9.0819   YY=             11.8680   ZZ=             -2.7861
   XY=             -1.0164   XZ=             -0.1540   YZ=              0.0655
 Octapole moment (field-independent basis, Debye-Ang**2):
  XXX=            132.5544  YYY=              2.0225  ZZZ=              0.0705  XYY=             -8.2916
  XXY=              8.1481  XXZ=             -4.8994  XZZ=             -7.4893  YZZ=             -0.8064
  YYZ=             -0.1582  XYZ=              8.2745
 Hexadecapole moment (field-independent basis, Debye-Ang**3):
 XXXX=          -5134.7891 YYYY=           -552.5856 ZZZZ=           -114.0772 XXXY=            -26.6095
 XXXZ=            -10.2758 YYYX=              0.9417 YYYZ=              0.3255 ZZZX=             -0.1279
 ZZZY=             -0.7246 XXYY=           -784.3787 XXZZ=           -884.4126 YYZZ=           -125.4027
 XXYZ=             -0.1084 YYXZ=              0.0622 ZZXY=             -1.1887
 N-N= 7.812259330675D+02 E-N=-2.938427808910D+03  KE= 5.870077975353D+02
   1 Symmetry operations used in ECPInt.
 ECPInt:  NShTT=    6903 NPrTT=   25191 LenC2=    6328 LenP2D=   16904.
 LDataN:  DoStor=T MaxTD1= 5 Len=  102
 Calling FoFJK, ICntrl=      2127 FMM=F ISym2X=0 I1Cent= 0 IOpClX= 0 NMat=1 NMatS=1 NMatT=0.
 ***** Axes restored to original set *****
 -------------------------------------------------------------------
 Center     Atomic                   Forces (Hartrees/Bohr)
 Number     Number              X              Y              Z
 -------------------------------------------------------------------
      1        6          -0.000009918    0.000011077    0.000003469
      2        6          -0.000012268   -0.000005138    0.000000516
      3        6           0.000004574    0.000001128   -0.000000351
      4        6           0.000007994    0.000010665    0.000005205
      5        6           0.000004381   -0.000003987   -0.000002733
      6        8          -0.000000982    0.000000054    0.000001700
      7        6          -0.000005015    0.000008442   -0.000004586
      8        6           0.000003835   -0.000004183   -0.000000193
      9        6          -0.000002980   -0.000007366    0.000001579
     10        7          -0.000002753    0.000000401   -0.000002174
     11        6           0.000003676    0.000002771    0.000002723
     12        6          -0.000008460   -0.000005891    0.000001682
     13        6          -0.000004784   -0.000009584   -0.000001489
     14        6           0.000008098   -0.000010226   -0.000004355
     15        1           0.000003755   -0.000000937   -0.000000602
     16        1           0.000004218   -0.000002423    0.000001207
     17        1          -0.000000476    0.000000809    0.000001852
     18        1           0.000001450    0.000002416   -0.000000386
     19        1           0.000000268    0.000001888    0.000003712
     20        1           0.000003868    0.000002684   -0.000002726
     21        1          -0.000000213    0.000002372   -0.000002244
     22        1           0.000000644    0.000004248   -0.000000223
     23        1           0.000000383   -0.000000120    0.000000745
     24        1          -0.000000014   -0.000000512   -0.000001730
     25        1           0.000000718    0.000001413   -0.000000599
 -------------------------------------------------------------------
 Cartesian Forces:  Max     0.000012268 RMS     0.000004459

 GradGradGradGradGradGradGradGradGradGradGradGradGradGradGradGradGradGrad
 Berny optimization.
 FormGI is forming the generalized inverse of G from B-inverse, IUseBI=4.
 Internal  Forces:  Max     0.000013692 RMS     0.000002776
 Search for a local minimum.
 Step number   1 out of a maximum of  132
 All quantities printed in internal units (Hartrees-Bohrs-Radians)
 Mixed Optimization -- En-DIIS/RFO-DIIS
 Second derivative matrix not updated -- first step.
 ITU=  0
     Eigenvalues ---    0.00661   0.01536   0.01597   0.02101   0.02119
     Eigenvalues ---    0.02127   0.02146   0.02150   0.02161   0.02161
     Eigenvalues ---    0.02164   0.02168   0.02169   0.02174   0.02175
     Eigenvalues ---    0.02228   0.02295   0.02349   0.02464   0.02503
     Eigenvalues ---    0.06337   0.07441   0.11518   0.13990   0.15999
     Eigenvalues ---    0.16000   0.16000   0.16000   0.16000   0.16000
     Eigenvalues ---    0.16000   0.16000   0.16000   0.22000   0.22000
     Eigenvalues ---    0.22000   0.22036   0.22828   0.23475   0.23881
     Eigenvalues ---    0.24987   0.25000   0.25000   0.31562   0.32947
     Eigenvalues ---    0.33124   0.34132   0.34191   0.34367   0.34551
     Eigenvalues ---    0.34566   0.34575   0.34737   0.34739   0.34873
     Eigenvalues ---    0.42131   0.42242   0.42318   0.43639   0.44448
     Eigenvalues ---    0.45816   0.46126   0.46369   0.46595   0.46750
     Eigenvalues ---    0.47207   0.56362   0.56842   0.58674
 RFO step:  Lambda= 0.00000000D+00 EMin= 6.61397744D-03
 Linear search not attempted -- first point.
 Iteration  1 RMS(Cart)=  0.00005963 RMS(Int)=  0.00000000
 Iteration  2 RMS(Cart)=  0.00000000 RMS(Int)=  0.00000000
 Variable       Old X    -DE/DX   Delta X   Delta X   Delta X     New X
                                 (Linear)    (Quad)   (Total)
    R1        2.63573   0.00000   0.00000   0.00001   0.00001   2.63573
    R2        2.63335  -0.00001   0.00000  -0.00002  -0.00002   2.63333
    R3        2.06371   0.00000   0.00000   0.00001   0.00001   2.06372
    R4        2.63188  -0.00001   0.00000  -0.00002  -0.00002   2.63186
    R5        2.06386   0.00000   0.00000   0.00001   0.00001   2.06387
    R6        2.64279  -0.00000   0.00000  -0.00000  -0.00000   2.64279
    R7        2.06716  -0.00000   0.00000  -0.00000  -0.00000   2.06715
    R8        2.84952   0.00000   0.00000   0.00000   0.00000   2.84953
    R9        2.63861  -0.00001   0.00000  -0.00003  -0.00003   2.63858
   R10        2.65922   0.00000   0.00000   0.00001   0.00001   2.65923
   R11        2.09145  -0.00000   0.00000  -0.00001  -0.00001   2.09145
   R12        2.08834  -0.00000   0.00000  -0.00001  -0.00001   2.08833
   R13        2.53530   0.00001   0.00000   0.00001   0.00001   2.53532
   R14        2.64810  -0.00001   0.00000  -0.00001  -0.00001   2.64809
   R15        2.64281   0.00001   0.00000   0.00001   0.00001   2.64282
   R16        2.62175   0.00000   0.00000   0.00001   0.00001   2.62176
   R17        2.06104   0.00000   0.00000   0.00001   0.00001   2.06105
   R18        2.52440  -0.00000   0.00000  -0.00000  -0.00000   2.52439
   R19        2.07008   0.00000   0.00000   0.00001   0.00001   2.07009
   R20        2.50818  -0.00000   0.00000  -0.00000  -0.00000   2.50817
   R21        2.63978  -0.00000   0.00000  -0.00001  -0.00001   2.63978
   R22        2.07107  -0.00000   0.00000  -0.00001  -0.00001   2.07106
   R23        2.05882   0.00000   0.00000   0.00000   0.00000   2.05882
   R24        2.63533   0.00000   0.00000   0.00000   0.00000   2.63533
   R25        2.06100  -0.00000   0.00000  -0.00000  -0.00000   2.06100
   R26        2.06410   0.00000   0.00000   0.00000   0.00000   2.06411
    A1        2.08760  -0.00000   0.00000  -0.00000  -0.00000   2.08760
    A2        2.09724  -0.00000   0.00000  -0.00001  -0.00001   2.09723
    A3        2.09834   0.00000   0.00000   0.00001   0.00001   2.09835
    A4        2.09514  -0.00000   0.00000  -0.00000  -0.00000   2.09514
    A5        2.09714  -0.00000   0.00000  -0.00001  -0.00001   2.09713
    A6        2.09088   0.00000   0.00000   0.00001   0.00001   2.09090
    A7        2.10405  -0.00000   0.00000  -0.00000  -0.00000   2.10405
    A8        2.08825   0.00000   0.00000   0.00000   0.00000   2.08825
    A9        2.09088  -0.00000   0.00000  -0.00000  -0.00000   2.09088
   A10        2.08146  -0.00000   0.00000  -0.00001  -0.00001   2.08144
   A11        2.08042   0.00000   0.00000   0.00001   0.00001   2.08043
   A12        2.12088   0.00000   0.00000   0.00000   0.00000   2.12088
   A13        1.91788   0.00000   0.00000   0.00001   0.00001   1.91789
   A14        1.91313  -0.00000   0.00000  -0.00002  -0.00002   1.91311
   A15        1.91807  -0.00000   0.00000   0.00000   0.00000   1.91807
   A16        1.91568  -0.00000   0.00000  -0.00000  -0.00000   1.91568
   A17        1.92486  -0.00000   0.00000  -0.00000  -0.00000   1.92486
   A18        1.87374   0.00000   0.00000   0.00000   0.00000   1.87374
   A19        2.08499   0.00001   0.00000   0.00005   0.00005   2.08504
   A20        2.04224  -0.00000   0.00000  -0.00002  -0.00002   2.04222
   A21        2.18136   0.00001   0.00000   0.00002   0.00002   2.18138
   A22        2.05958  -0.00000   0.00000  -0.00001  -0.00001   2.05958
   A23        2.06963   0.00000   0.00000   0.00000   0.00000   2.06963
   A24        2.08918  -0.00000   0.00000  -0.00001  -0.00001   2.08916
   A25        2.12438   0.00000   0.00000   0.00001   0.00001   2.12439
   A26        2.16585   0.00000   0.00000   0.00001   0.00001   2.16586
   A27        2.08569  -0.00000   0.00000  -0.00001  -0.00001   2.08568
   A28        2.03164  -0.00000   0.00000   0.00000   0.00000   2.03164
   A29        2.03840  -0.00000   0.00000  -0.00001  -0.00001   2.03838
   A30        2.17365   0.00000   0.00000   0.00001   0.00001   2.17366
   A31        2.03320  -0.00000   0.00000  -0.00001  -0.00001   2.03319
   A32        2.07633  -0.00000   0.00000  -0.00000  -0.00000   2.07633
   A33        2.05926  -0.00000   0.00000  -0.00000  -0.00000   2.05926
   A34        2.13689   0.00000   0.00000   0.00000   0.00000   2.13689
   A35        2.08703   0.00000   0.00000   0.00000   0.00000   2.08703
   A36        2.09829  -0.00000   0.00000  -0.00000  -0.00000   2.09828
   A37        2.08203  -0.00000   0.00000  -0.00000  -0.00000   2.08203
   A38        2.10282   0.00000   0.00000   0.00001   0.00001   2.10283
   A39        2.10085   0.00000   0.00000   0.00000   0.00000   2.10085
   A40        2.09478  -0.00000   0.00000  -0.00000  -0.00000   2.09478
   A41        2.08755  -0.00000   0.00000  -0.00000  -0.00000   2.08755
    D1        0.00081  -0.00000   0.00000  -0.00001  -0.00001   0.00080
    D2        3.13489  -0.00000   0.00000  -0.00000  -0.00000   3.13489
    D3       -3.13635   0.00000   0.00000   0.00000   0.00000  -3.13635
    D4       -0.00227   0.00000   0.00000   0.00001   0.00001  -0.00226
    D5        0.00430   0.00000   0.00000   0.00002   0.00002   0.00432
    D6       -3.13687  -0.00000   0.00000  -0.00000  -0.00000  -3.13687
    D7        3.14146   0.00000   0.00000   0.00001   0.00001   3.14146
    D8        0.00029  -0.00000   0.00000  -0.00001  -0.00001   0.00028
    D9       -0.00641  -0.00000   0.00000  -0.00001  -0.00001  -0.00642
   D10        3.13167  -0.00000   0.00000  -0.00000  -0.00000   3.13167
   D11       -3.14052  -0.00000   0.00000  -0.00002  -0.00002  -3.14053
   D12       -0.00244  -0.00000   0.00000  -0.00001  -0.00001  -0.00244
   D13       -3.10371  -0.00000   0.00000  -0.00000  -0.00000  -3.10371
   D14        0.00681   0.00000   0.00000   0.00002   0.00002   0.00684
   D15        0.04141  -0.00000   0.00000  -0.00001  -0.00001   0.04140
   D16       -3.13126   0.00000   0.00000   0.00002   0.00002  -3.13124
   D17       -2.81555   0.00000   0.00000   0.00005   0.00005  -2.81550
   D18        1.36098   0.00000   0.00000   0.00005   0.00005   1.36103
   D19       -0.69436   0.00000   0.00000   0.00006   0.00006  -0.69430
   D20        0.35786  -0.00000   0.00000   0.00002   0.00002   0.35788
   D21       -1.74880  -0.00000   0.00000   0.00002   0.00002  -1.74878
   D22        2.47906   0.00000   0.00000   0.00003   0.00003   2.47908
   D23       -0.00169  -0.00000   0.00000  -0.00002  -0.00002  -0.00170
   D24        3.13062  -0.00000   0.00000  -0.00002  -0.00002   3.13060
   D25        3.10811   0.00000   0.00000   0.00001   0.00001   3.10812
   D26       -0.04277  -0.00000   0.00000   0.00001   0.00001  -0.04277
   D27       -3.11115   0.00000   0.00000  -0.00002  -0.00002  -3.11117
   D28       -1.00603  -0.00000   0.00000  -0.00003  -0.00003  -1.00607
   D29        1.05491  -0.00000   0.00000  -0.00003  -0.00003   1.05488
   D30        3.12707  -0.00000   0.00000  -0.00002  -0.00002   3.12705
   D31       -0.01627   0.00000   0.00000   0.00001   0.00001  -0.01625
   D32        3.14111   0.00000   0.00000   0.00002   0.00002   3.14113
   D33        0.00083   0.00000   0.00000   0.00003   0.00003   0.00086
   D34        0.00113  -0.00000   0.00000  -0.00000  -0.00000   0.00113
   D35       -3.13914   0.00000   0.00000   0.00000   0.00000  -3.13914
   D36       -3.14139  -0.00000   0.00000  -0.00003  -0.00003  -3.14142
   D37       -0.00112  -0.00000   0.00000  -0.00003  -0.00003  -0.00115
   D38       -0.00156  -0.00000   0.00000  -0.00000  -0.00000  -0.00156
   D39        3.13871  -0.00000   0.00000  -0.00000  -0.00000   3.13871
   D40        0.00015  -0.00000   0.00000  -0.00001  -0.00001   0.00014
   D41       -3.14158   0.00000   0.00000   0.00001   0.00001  -3.14157
   D42        3.14039  -0.00000   0.00000  -0.00001  -0.00001   3.14038
   D43       -0.00134   0.00000   0.00000   0.00000   0.00000  -0.00133
   D44       -0.00094   0.00000   0.00000   0.00002   0.00002  -0.00092
   D45        3.14078   0.00000   0.00000   0.00001   0.00001   3.14079
   D46        0.00046  -0.00000   0.00000  -0.00003  -0.00003   0.00043
   D47       -3.14079   0.00000   0.00000   0.00001   0.00001  -3.14078
   D48        0.00080   0.00000   0.00000   0.00002   0.00002   0.00082
   D49       -3.13951   0.00000   0.00000   0.00002   0.00002  -3.13949
   D50       -3.14115  -0.00000   0.00000  -0.00002  -0.00002  -3.14117
   D51        0.00173  -0.00000   0.00000  -0.00002  -0.00002   0.00171
   D52       -0.00386  -0.00000   0.00000  -0.00000  -0.00000  -0.00386
   D53        3.13731   0.00000   0.00000   0.00001   0.00001   3.13732
   D54       -3.13605   0.00000   0.00000   0.00000   0.00000  -3.13605
   D55        0.00512   0.00000   0.00000   0.00002   0.00002   0.00514
         Item               Value     Threshold  Converged?
 Maximum Force            0.000014     0.000450     YES
 RMS     Force            0.000003     0.000300     YES
 Maximum Displacement     0.000214     0.001800     YES
 RMS     Displacement     0.000060     0.001200     YES
 Predicted change in Energy=-1.568570D-09
 Optimization completed.
    -- Stationary point found.
                           ----------------------------
                           !   Optimized Parameters   !
                           ! (Angstroms and Degrees)  !
 --------------------------                            --------------------------
 ! Name  Definition              Value          Derivative Info.                !
 --------------------------------------------------------------------------------
 ! R1    R(1,2)                  1.3948         -DE/DX =    0.0                 !
 ! R2    R(1,14)                 1.3935         -DE/DX =    0.0                 !
 ! R3    R(1,15)                 1.0921         -DE/DX =    0.0                 !
 ! R4    R(2,3)                  1.3927         -DE/DX =    0.0                 !
 ! R5    R(2,16)                 1.0921         -DE/DX =    0.0                 !
 ! R6    R(3,4)                  1.3985         -DE/DX =    0.0                 !
 ! R7    R(3,17)                 1.0939         -DE/DX =    0.0                 !
 ! R8    R(4,5)                  1.5079         -DE/DX =    0.0                 !
 ! R9    R(4,13)                 1.3963         -DE/DX =    0.0                 !
 ! R10   R(5,6)                  1.4072         -DE/DX =    0.0                 !
 ! R11   R(5,18)                 1.1068         -DE/DX =    0.0                 !
 ! R12   R(5,19)                 1.1051         -DE/DX =    0.0                 !
 ! R13   R(6,7)                  1.3416         -DE/DX =    0.0                 !
 ! R14   R(7,8)                  1.4013         -DE/DX =    0.0                 !
 ! R15   R(7,12)                 1.3985         -DE/DX =    0.0                 !
 ! R16   R(8,9)                  1.3874         -DE/DX =    0.0                 !
 ! R17   R(8,20)                 1.0907         -DE/DX =    0.0                 !
 ! R18   R(9,10)                 1.3359         -DE/DX =    0.0                 !
 ! R19   R(9,21)                 1.0954         -DE/DX =    0.0                 !
 ! R20   R(10,11)                1.3273         -DE/DX =    0.0                 !
 ! R21   R(11,12)                1.3969         -DE/DX =    0.0                 !
 ! R22   R(11,22)                1.096          -DE/DX =    0.0                 !
 ! R23   R(12,23)                1.0895         -DE/DX =    0.0                 !
 ! R24   R(13,14)                1.3946         -DE/DX =    0.0                 !
 ! R25   R(13,24)                1.0906         -DE/DX =    0.0                 !
 ! R26   R(14,25)                1.0923         -DE/DX =    0.0                 !
 ! A1    A(2,1,14)             119.6104         -DE/DX =    0.0                 !
 ! A2    A(2,1,15)             120.163          -DE/DX =    0.0                 !
 ! A3    A(14,1,15)            120.2261         -DE/DX =    0.0                 !
 ! A4    A(1,2,3)              120.0427         -DE/DX =    0.0                 !
 ! A5    A(1,2,16)             120.1571         -DE/DX =    0.0                 !
 ! A6    A(3,2,16)             119.7988         -DE/DX =    0.0                 !
 ! A7    A(2,3,4)              120.5532         -DE/DX =    0.0                 !
 ! A8    A(2,3,17)             119.6476         -DE/DX =    0.0                 !
 ! A9    A(4,3,17)             119.7989         -DE/DX =    0.0                 !
 ! A10   A(3,4,5)              119.2586         -DE/DX =    0.0                 !
 ! A11   A(3,4,13)             119.1993         -DE/DX =    0.0                 !
 ! A12   A(5,4,13)             121.5174         -DE/DX =    0.0                 !
 ! A13   A(4,5,6)              109.8863         -DE/DX =    0.0                 !
 ! A14   A(4,5,18)             109.6142         -DE/DX =    0.0                 !
 ! A15   A(4,5,19)             109.897          -DE/DX =    0.0                 !
 ! A16   A(6,5,18)             109.7606         -DE/DX =    0.0                 !
 ! A17   A(6,5,19)             110.2864         -DE/DX =    0.0                 !
 ! A18   A(18,5,19)            107.3575         -DE/DX =    0.0                 !
 ! A19   A(5,6,7)              119.461          -DE/DX =    0.0                 !
 ! A20   A(6,7,8)              117.0117         -DE/DX =    0.0                 !
 ! A21   A(6,7,12)             124.9827         -DE/DX =    0.0                 !
 ! A22   A(8,7,12)             118.0055         -DE/DX =    0.0                 !
 ! A23   A(7,8,9)              118.5809         -DE/DX =    0.0                 !
 ! A24   A(7,8,20)             119.7009         -DE/DX =    0.0                 !
 ! A25   A(9,8,20)             121.7181         -DE/DX =    0.0                 !
 ! A26   A(8,9,10)             124.094          -DE/DX =    0.0                 !
 ! A27   A(8,9,21)             119.5014         -DE/DX =    0.0                 !
 ! A28   A(10,9,21)            116.4046         -DE/DX =    0.0                 !
 ! A29   A(9,10,11)            116.7915         -DE/DX =    0.0                 !
 ! A30   A(10,11,12)           124.5409         -DE/DX =    0.0                 !
 ! A31   A(10,11,22)           116.4939         -DE/DX =    0.0                 !
 ! A32   A(12,11,22)           118.9652         -DE/DX =    0.0                 !
 ! A33   A(7,12,11)            117.9871         -DE/DX =    0.0                 !
 ! A34   A(7,12,23)            122.4348         -DE/DX =    0.0                 !
 ! A35   A(11,12,23)           119.5781         -DE/DX =    0.0                 !
 ! A36   A(4,13,14)            120.2231         -DE/DX =    0.0                 !
 ! A37   A(4,13,24)            119.2918         -DE/DX =    0.0                 !
 ! A38   A(14,13,24)           120.483          -DE/DX =    0.0                 !
 ! A39   A(1,14,13)            120.3698         -DE/DX =    0.0                 !
 ! A40   A(1,14,25)            120.0222         -DE/DX =    0.0                 !
 ! A41   A(13,14,25)           119.608          -DE/DX =    0.0                 !
 ! D1    D(14,1,2,3)             0.0465         -DE/DX =    0.0                 !
 ! D2    D(14,1,2,16)          179.6162         -DE/DX =    0.0                 !
 ! D3    D(15,1,2,3)          -179.6997         -DE/DX =    0.0                 !
 ! D4    D(15,1,2,16)           -0.13           -DE/DX =    0.0                 !
 ! D5    D(2,1,14,13)            0.2464         -DE/DX =    0.0                 !
 ! D6    D(2,1,14,25)         -179.7293         -DE/DX =    0.0                 !
 ! D7    D(15,1,14,13)         179.9924         -DE/DX =    0.0                 !
 ! D8    D(15,1,14,25)           0.0167         -DE/DX =    0.0                 !
 ! D9    D(1,2,3,4)             -0.367          -DE/DX =    0.0                 !
 ! D10   D(1,2,3,17)           179.4316         -DE/DX =    0.0                 !
 ! D11   D(16,2,3,4)          -179.9383         -DE/DX =    0.0                 !
 ! D12   D(16,2,3,17)           -0.1397         -DE/DX =    0.0                 !
 ! D13   D(2,3,4,5)           -177.8292         -DE/DX =    0.0                 !
 ! D14   D(2,3,4,13)             0.3904         -DE/DX =    0.0                 !
 ! D15   D(17,3,4,5)             2.3725         -DE/DX =    0.0                 !
 ! D16   D(17,3,4,13)         -179.4079         -DE/DX =    0.0                 !
 ! D17   D(3,4,5,6)           -161.3192         -DE/DX =    0.0                 !
 ! D18   D(3,4,5,18)            77.9781         -DE/DX =    0.0                 !
 ! D19   D(3,4,5,19)           -39.7837         -DE/DX =    0.0                 !
 ! D20   D(13,4,5,6)            20.5039         -DE/DX =    0.0                 !
 ! D21   D(13,4,5,18)         -100.1987         -DE/DX =    0.0                 !
 ! D22   D(13,4,5,19)          142.0394         -DE/DX =    0.0                 !
 ! D23   D(3,4,13,14)           -0.0966         -DE/DX =    0.0                 !
 ! D24   D(3,4,13,24)          179.3713         -DE/DX =    0.0                 !
 ! D25   D(5,4,13,14)          178.0813         -DE/DX =    0.0                 !
 ! D26   D(5,4,13,24)           -2.4508         -DE/DX =    0.0                 !
 ! D27   D(4,5,6,7)           -178.2558         -DE/DX =    0.0                 !
 ! D28   D(18,5,6,7)           -57.6415         -DE/DX =    0.0                 !
 ! D29   D(19,5,6,7)            60.4418         -DE/DX =    0.0                 !
 ! D30   D(5,6,7,8)            179.1678         -DE/DX =    0.0                 !
 ! D31   D(5,6,7,12)            -0.932          -DE/DX =    0.0                 !
 ! D32   D(6,7,8,9)            179.9722         -DE/DX =    0.0                 !
 ! D33   D(6,7,8,20)             0.0478         -DE/DX =    0.0                 !
 ! D34   D(12,7,8,9)             0.0647         -DE/DX =    0.0                 !
 ! D35   D(12,7,8,20)         -179.8596         -DE/DX =    0.0                 !
 ! D36   D(6,7,12,11)         -179.9885         -DE/DX =    0.0                 !
 ! D37   D(6,7,12,23)           -0.0642         -DE/DX =    0.0                 !
 ! D38   D(8,7,12,11)           -0.0892         -DE/DX =    0.0                 !
 ! D39   D(8,7,12,23)          179.8351         -DE/DX =    0.0                 !
 ! D40   D(7,8,9,10)             0.0085         -DE/DX =    0.0                 !
 ! D41   D(7,8,9,21)          -179.9995         -DE/DX =    0.0                 !
 ! D42   D(20,8,9,10)          179.9312         -DE/DX =    0.0                 !
 ! D43   D(20,8,9,21)           -0.0767         -DE/DX =    0.0                 !
 ! D44   D(8,9,10,11)           -0.0541         -DE/DX =    0.0                 !
 ! D45   D(21,9,10,11)         179.9536         -DE/DX =    0.0                 !
 ! D46   D(9,10,11,12)           0.0262         -DE/DX =    0.0                 !
 ! D47   D(9,10,11,22)        -179.9541         -DE/DX =    0.0                 !
 ! D48   D(10,11,12,7)           0.0457         -DE/DX =    0.0                 !
 ! D49   D(10,11,12,23)       -179.8809         -DE/DX =    0.0                 !
 ! D50   D(22,11,12,7)        -179.9744         -DE/DX =    0.0                 !
 ! D51   D(22,11,12,23)          0.099          -DE/DX =    0.0                 !
 ! D52   D(4,13,14,1)           -0.2211         -DE/DX =    0.0                 !
 ! D53   D(4,13,14,25)         179.7547         -DE/DX =    0.0                 !
 ! D54   D(24,13,14,1)        -179.6825         -DE/DX =    0.0                 !
 ! D55   D(24,13,14,25)          0.2932         -DE/DX =    0.0                 !
 --------------------------------------------------------------------------------
 GradGradGradGradGradGradGradGradGradGradGradGradGradGradGradGradGradGrad

                          Input orientation:                          
 ---------------------------------------------------------------------
 Center     Atomic      Atomic             Coordinates (Angstroms)
 Number     Number       Type             X           Y           Z
 ---------------------------------------------------------------------
      1          6           0        4.533310    0.450690   -0.003900
      2          6           0        4.186800   -0.883710   -0.215280
      3          6           0        2.847910   -1.266970   -0.201840
      4          6           0        1.840980   -0.324590    0.030170
      5          6           0        0.404560   -0.779780    0.087380
      6          8           0       -0.453740    0.319470   -0.100170
      7          6           0       -1.781780    0.135860   -0.049620
      8          6           0       -2.588010    1.268450   -0.225450
      9          6           0       -3.966190    1.115670   -0.179860
     10          7           0       -4.583930   -0.051310    0.022780
     11          6           0       -3.810240   -1.117170    0.187070
     12          6           0       -2.413750   -1.093640    0.162010
     13          6           0        2.192630    1.010190    0.240720
     14          6           0        3.533050    1.394470    0.221110
     15          1           0        5.582240    0.754230   -0.018890
     16          1           0        4.963080   -1.629720   -0.398700
     17          1           0        2.582880   -2.313610   -0.377630
     18          1           0        0.202390   -1.249150    1.069070
     19          1           0        0.221510   -1.545510   -0.688120
     20          1           0       -2.124190    2.240950   -0.394700
     21          1           0       -4.610750    1.990970   -0.315440
     22          1           0       -4.322100   -2.072090    0.352190
     23          1           0       -1.857650   -2.019610    0.304500
     24          1           0        1.407960    1.748160    0.411530
     25          1           0        3.796540    2.442050    0.383030
 ---------------------------------------------------------------------
                    Distance matrix (angstroms):
                    1          2          3          4          5
     1  C    0.000000
     2  C    1.394767   0.000000
     3  C    2.414562   1.392729   0.000000
     4  C    2.801939   2.423991   1.398505   0.000000
     5  C    4.309172   3.795753   2.508179   1.507904   0.000000
     6  O    4.989705   4.795363   3.664426   2.386952   1.407197
     7  C    6.323098   6.057302   4.839952   3.652776   2.374289
     8  C    7.171542   7.108442   5.998178   4.713711   3.639860
     9  C    8.527289   8.394642   7.218685   5.986793   4.771541
    10  N    9.131089   8.813357   7.533958   6.430724   5.041813
    11  C    8.491730   8.010558   6.671181   5.708685   4.229457
    12  C    7.118576   6.614656   5.277073   4.325685   2.836714
    13  C    2.419021   2.787742   2.410541   1.396290   2.534699
    14  C    1.393510   2.409965   2.780569   2.419654   3.812177
    15  H    1.092069   2.160710   3.405184   3.894006   5.401190
    16  H    2.160712   1.092147   2.155060   3.410983   4.662486
    17  H    3.403705   2.154885   1.093891   2.161693   2.704431
    18  H    4.774682   4.202217   2.935014   2.149210   1.106750
    19  H    4.800478   4.047849   2.685522   2.151574   1.105102
    20  H    6.905075   7.044451   6.088060   4.741844   3.968852
    21  H    9.278111   9.255847   8.139944   6.863387   5.743923
    22  H    9.214635   8.610206   7.236312   6.414126   4.907291
    23  H    6.858707   6.172181   4.792196   4.077771   2.588805
    24  H    3.409373   3.878348   3.397159   2.151566   2.739045
    25  H    2.158254   3.401611   3.872829   3.406321   4.687550
                    6          7          8          9         10
     6  O    0.000000
     7  C    1.341625   0.000000
     8  C    2.339095   1.401315   0.000000
     9  C    3.602442   2.397632   1.387372   0.000000
    10  N    4.148622   2.809327   2.405635   1.335855   0.000000
    11  C    3.662313   2.395988   2.712048   2.268156   1.327270
    12  C    2.430485   1.398515   2.399992   2.721763   2.411539
    13  C    2.756188   4.079790   4.810253   6.174065   6.862656
    14  C    4.141659   5.468529   6.138621   7.515125   8.247119
    15  H    6.052163   7.390001   8.189022   9.556624  10.198120
    16  H    5.764582   6.980850   8.090016   9.344352   9.685785
    17  H    4.028791   5.015750   6.292250   7.395228   7.526054
    18  H    2.063540   2.665830   3.974975   4.952702   5.043650
    19  H    2.068767   2.692185   4.003228   4.987689   5.082348
    20  H    2.563052   2.160493   1.090656   2.169188   3.388077
    21  H    4.485642   3.393400   2.149793   1.095440   2.070270
    22  H    4.570383   3.389649   3.807879   3.251394   2.064126
    23  H    2.757901   2.185683   3.409635   3.809268   3.374340
    24  H    2.401857   3.603694   4.074757   5.443462   6.268330
    25  H    4.775323   6.051723   6.519974   7.895322   8.750937
                   11         12         13         14         15
    11  C    0.000000
    12  C    1.396913   0.000000
    13  C    6.368908   5.064685   0.000000
    14  C    7.761018   6.446597   1.394554   0.000000
    15  H    9.579313   8.208727   3.409160   2.160252   0.000000
    16  H    8.807779   7.417506   3.879868   3.402187   2.492154
    17  H    6.528579   5.171639   3.403278   3.874425   4.305403
    18  H    4.110540   2.773289   3.122793   4.336019   5.842942
    19  H    4.147824   2.805620   3.358521   4.520672   5.871465
    20  H    3.802393   3.393120   4.533593   5.753270   7.857521
    21  H    3.248672   3.817013   6.896175   8.183225  10.272026
    22  H    1.095964   2.152982   7.207953   8.587060  10.306393
    23  H    2.154251   1.089482   5.058510   6.381422   7.946744
    24  H    5.957358   4.769020   1.090634   2.162721   4.312513
    25  H    8.400568   7.149661   2.154763   1.092277   2.489779
                   16         17         18         19         20
    16  H    0.000000
    17  H    2.476591   0.000000
    18  H    4.996334   2.982071   0.000000
    19  H    4.751141   2.502489   1.782109   0.000000
    20  H    8.075364   6.549871   4.442566   4.463819   0.000000
    21  H   10.235944   8.383412   5.965028   5.999693   2.500351
    22  H    9.325990   6.947641   4.654262   4.690834   4.898057
    23  H    6.867959   4.502227   2.328506   2.352227   4.325771
    24  H    4.970455   4.301301   3.296911   3.669490   3.656355
    25  H    4.307114   4.966677   5.197453   5.461578   5.974977
                   21         22         23         24         25
    21  H    0.000000
    22  H    4.127651   0.000000
    23  H    4.903941   2.465470   0.000000
    24  H    6.067315   6.887047   4.987159   0.000000
    25  H    8.448305   9.289280   7.202947   2.487491   0.000000
 Stoichiometry    C12H11NO
 Framework group  C1[X(C12H11NO)]
 Deg. of freedom    69
 Full point group                 C1      NOp   1
 Largest Abelian subgroup         C1      NOp   1
 Largest concise Abelian subgroup C1      NOp   1
                         Standard orientation:                         
 ---------------------------------------------------------------------
 Center     Atomic      Atomic             Coordinates (Angstroms)
 Number     Number       Type             X           Y           Z
 ---------------------------------------------------------------------
      1          6           0        4.533309    0.450691   -0.003900
      2          6           0        4.186799   -0.883710   -0.215280
      3          6           0        2.847909   -1.266970   -0.201840
      4          6           0        1.840979   -0.324590    0.030170
      5          6           0        0.404559   -0.779781    0.087380
      6          8           0       -0.453741    0.319469   -0.100170
      7          6           0       -1.781781    0.135859   -0.049620
      8          6           0       -2.588011    1.268448   -0.225450
      9          6           0       -3.966191    1.115668   -0.179860
     10          7           0       -4.583931   -0.051312    0.022780
     11          6           0       -3.810241   -1.117172    0.187070
     12          6           0       -2.413751   -1.093642    0.162010
     13          6           0        2.192629    1.010190    0.240720
     14          6           0        3.533049    1.394470    0.221110
     15          1           0        5.582239    0.754231   -0.018890
     16          1           0        4.963079   -1.629719   -0.398700
     17          1           0        2.582880   -2.313610   -0.377630
     18          1           0        0.202389   -1.249151    1.069070
     19          1           0        0.221509   -1.545511   -0.688120
     20          1           0       -2.124192    2.240949   -0.394700
     21          1           0       -4.610752    1.990968   -0.315440
     22          1           0       -4.322100   -2.072092    0.352190
     23          1           0       -1.857650   -2.019611    0.304500
     24          1           0        1.407958    1.748160    0.411530
     25          1           0        3.796538    2.442050    0.383030
 ---------------------------------------------------------------------
 Rotational constants (GHZ):           2.7031626           0.2826417           0.2577360
 Unable to Open any file for archive entry.
 1\1\GINC-NOTCH281\FOpt\RwB97XD\def2SVP\C12H11N1O1\U6053008\14-Jul-2024
 \0\\#N OPT FREQ=NORAMAN Integral(Ultrafine) wB97XD def2SVP\\12328828_2
 \\0,1\C,4.53331,0.45069,-0.0039\C,4.1868,-0.88371,-0.21528\C,2.84791,-
 1.26697,-0.20184\C,1.84098,-0.32459,0.03017\C,0.40456,-0.77978,0.08738
 \O,-0.45374,0.31947,-0.10017\C,-1.78178,0.13586,-0.04962\C,-2.58801,1.
 26845,-0.22545\C,-3.96619,1.11567,-0.17986\N,-4.58393,-0.05131,0.02278
 \C,-3.81024,-1.11717,0.18707\C,-2.41375,-1.09364,0.16201\C,2.19263,1.0
 1019,0.24072\C,3.53305,1.39447,0.22111\H,5.58224,0.75423,-0.01889\H,4.
 96308,-1.62972,-0.3987\H,2.58288,-2.31361,-0.37763\H,0.20239,-1.24915,
 1.06907\H,0.22151,-1.54551,-0.68812\H,-2.12419,2.24095,-0.3947\H,-4.61
 075,1.99097,-0.31544\H,-4.3221,-2.07209,0.35219\H,-1.85765,-2.01961,0.
 3045\H,1.40796,1.74816,0.41153\H,3.79654,2.44205,0.38303\\Version=ES64
 L-G16RevC.01\State=1-A\HF=-593.2357648\RMSD=3.945e-09\RMSF=4.459e-06\D
 ipole=1.137849,-0.3514366,0.0686649\Quadrupole=-6.7521533,8.8235464,-2
 .0713931,-0.755637,-0.1145002,0.0487321\PG=C01 [X(C12H11N1O1)]\\@
 The archive entry for this job was punched.


 OLD AGE AND TREACHERY WILL ALWAYS PREVAIL OVER YOUTH AND SKILL.
 Job cpu time:       0 days  0 hours  9 minutes 26.8 seconds.
[...]
 Alpha virt. eigenvalues --    3.31444   3.32489   3.33636   3.34083   3.34842
 Alpha virt. eigenvalues --    3.36037   3.37771   3.38494   3.40426   3.40671
 Alpha virt. eigenvalues --    3.41331   3.43228   3.43887   3.45098   3.46019
 Alpha virt. eigenvalues --    3.46432   3.46649   3.47785   3.48240   3.50283
 Alpha virt. eigenvalues --    3.51376   3.51924   3.53196   3.53649   3.54554
 Alpha virt. eigenvalues --    3.55257   3.56357   3.57428   3.60047   3.60658
 Alpha virt. eigenvalues --    3.61534   3.61661   3.63479   3.64902   3.66226
 Alpha virt. eigenvalues --    3.68897   3.70712   3.73588   3.76664   3.77764
 Alpha virt. eigenvalues --    3.78895   3.79756   3.81928   3.85043   3.85998
 Alpha virt. eigenvalues --    3.89038   3.91909   3.93960   3.95990   3.97027
 Alpha virt. eigenvalues --    3.98918   4.01518   4.01874   4.02792   4.08450
 Alpha virt. eigenvalues --    4.09671   4.10513   4.11720   4.12725   4.14241
 Alpha virt. eigenvalues --    4.17079   4.18575   4.20217   4.21215   4.24699
 Alpha virt. eigenvalues --    4.25584   4.27004   4.28411   4.30453   4.31166
 Alpha virt. eigenvalues --    4.32599   4.34224   4.36371   4.37339   4.37689
 Alpha virt. eigenvalues --    4.38611   4.40319   4.45420   4.46313   4.50446
 Alpha virt. eigenvalues --    4.52720   4.55798   4.59554   4.62122   4.63344
 Alpha virt. eigenvalues --    4.64073   4.66908   4.72315   4.75273   4.76094
 Alpha virt. eigenvalues --    4.79212   4.82067   4.85340   4.88374   4.91497
 Alpha virt. eigenvalues --    4.93793   4.95790   4.98705   5.00997   5.01793
 Alpha virt. eigenvalues --    5.04159   5.05021   5.13350   5.16544   5.19222
 Alpha virt. eigenvalues --    5.21667   5.28530   5.29769   5.32408   5.37727
 Alpha virt. eigenvalues --    5.43191   5.44097   5.45542   5.47843   5.50154
 Alpha virt. eigenvalues --    5.54974   5.66732   5.69640   5.71815   5.73638
 Alpha virt. eigenvalues --    5.84206   5.87327   6.03885   6.07175   6.13838
 Alpha virt. eigenvalues --    6.51257   6.69180   6.73808   6.91002   6.98728
 Alpha virt. eigenvalues --    7.36148   7.53989  22.07896  22.44780  22.62615
 Alpha virt. eigenvalues --   22.68895  22.71407  22.74700  22.80662  22.85412
 Alpha virt. eigenvalues --   22.87839  22.89020  23.27776  23.31037  32.49978
 Alpha virt. eigenvalues --   44.52714
          Condensed to atoms (all electrons):
               1          2          3          4          5          6
     1  C    4.910798   0.460484   0.014730  -0.078304  -0.003595   0.000247
     2  C    0.460484   4.888581   0.462088   0.002475   0.005489  -0.000414
     3  C    0.014730   0.462088   5.060581   0.416287  -0.084803   0.002748
     4  C   -0.078304   0.002475   0.416287   4.977673   0.344425  -0.080534
     5  C   -0.003595   0.005489  -0.084803   0.344425   4.928899   0.237129
     6  O    0.000247  -0.000414   0.002748  -0.080534   0.237129   7.917827
     7  C    0.000016  -0.000026  -0.000360   0.006082  -0.062268   0.368149
     8  C    0.000003  -0.000004   0.000016  -0.000374   0.001231  -0.056582
     9  C    0.000000  -0.000000  -0.000000  -0.000003  -0.000486   0.001375
    10  N   -0.000000   0.000000   0.000000  -0.000018  -0.000048  -0.000066
    11  C   -0.000000  -0.000000  -0.000001  -0.000522  -0.002527   0.002429
    12  C   -0.000004   0.000005   0.000095   0.001497  -0.002099  -0.070328
    13  C    0.020473  -0.063137   0.034223   0.389967  -0.110856   0.025614
    14  C    0.454065  -0.000030  -0.059676  -0.005265   0.011117   0.000235
    15  H    0.438776  -0.052529   0.009577  -0.002081   0.000110  -0.000000
    16  H   -0.052973   0.442369  -0.057229   0.012099  -0.000284   0.000004
    17  H    0.009361  -0.044805   0.442627  -0.073672  -0.000842   0.000039
    18  H    0.000101   0.000118  -0.000173   0.019122   0.363190  -0.045003
    19  H    0.000211   0.000212   0.000332  -0.062829   0.417826  -0.032616
    20  H    0.000001  -0.000001   0.000016  -0.000122  -0.000480   0.003890
    21  H   -0.000000   0.000000   0.000000  -0.000002   0.000026  -0.000119
    22  H    0.000000  -0.000000   0.000000  -0.000009  -0.000183  -0.000136
    23  H   -0.000001   0.000003   0.000105   0.001698   0.005917  -0.003784
    24  H    0.008314  -0.002552   0.010470  -0.048136  -0.013962   0.015732
    25  H   -0.052755   0.009689  -0.002694   0.011177  -0.000346  -0.000049
               7          8          9         10         11         12
     1  C    0.000016   0.000003   0.000000  -0.000000  -0.000000  -0.000004
     2  C   -0.000026  -0.000004  -0.000000   0.000000  -0.000000   0.000005
     3  C   -0.000360   0.000016  -0.000000   0.000000  -0.000001   0.000095
     4  C    0.006082  -0.000374  -0.000003  -0.000018  -0.000522   0.001497
     5  C   -0.062268   0.001231  -0.000486  -0.000048  -0.002527  -0.002099
     6  O    0.368149  -0.056582   0.001375  -0.000066   0.002429  -0.070328
     7  C    4.672950   0.475088  -0.011467  -0.061078   0.003056   0.442213
     8  C    0.475088   5.038397   0.507686  -0.046777  -0.020681  -0.044247
     9  C   -0.011467   0.507686   4.722234   0.502839  -0.105574  -0.016456
    10  N   -0.061078  -0.046777   0.502839   6.445311   0.544762  -0.063299
    11  C    0.003056  -0.020681  -0.105574   0.544762   4.759047   0.445105
    12  C    0.442213  -0.044247  -0.016456  -0.063299   0.445105   5.151723
    13  C   -0.002709  -0.000036   0.000041  -0.000001  -0.000006   0.000375
    14  C   -0.000075  -0.000058   0.000001   0.000000  -0.000000   0.000025
    15  H   -0.000000  -0.000000   0.000000   0.000000   0.000000   0.000000
    16  H   -0.000001  -0.000000   0.000000  -0.000000   0.000000   0.000000
    17  H   -0.000019   0.000001   0.000000  -0.000000   0.000000   0.000052
    18  H   -0.003686   0.001345  -0.000008  -0.000045  -0.001162   0.005534
    19  H   -0.011655  -0.000823   0.000136  -0.000054   0.000420   0.007072
    20  H   -0.063942   0.420580  -0.031000   0.006856  -0.002307   0.011541
    21  H    0.004995  -0.068740   0.433429  -0.029645   0.005038  -0.000687
    22  H   -0.000443   0.001550   0.004277  -0.027647   0.438611  -0.075845
    23  H   -0.067466   0.007416  -0.002354   0.007053  -0.018614   0.416148
    24  H   -0.001432   0.000074   0.000046  -0.000001  -0.000010   0.000193
    25  H    0.000001  -0.000000  -0.000000  -0.000000   0.000000  -0.000000
              13         14         15         16         17         18
     1  C    0.020473   0.454065   0.438776  -0.052973   0.009361   0.000101
     2  C   -0.063137  -0.000030  -0.052529   0.442369  -0.044805   0.000118
     3  C    0.034223  -0.059676   0.009577  -0.057229   0.442627  -0.000173
     4  C    0.389967  -0.005265  -0.002081   0.012099  -0.073672   0.019122
     5  C   -0.110856   0.011117   0.000110  -0.000284  -0.000842   0.363190
     6  O    0.025614   0.000235  -0.000000   0.000004   0.000039  -0.045003
     7  C   -0.002709  -0.000075  -0.000000  -0.000001  -0.000019  -0.003686
     8  C   -0.000036  -0.000058  -0.000000  -0.000000   0.000001   0.001345
     9  C    0.000041   0.000001   0.000000   0.000000   0.000000  -0.000008
    10  N   -0.000001   0.000000   0.000000  -0.000000  -0.000000  -0.000045
    11  C   -0.000006  -0.000000   0.000000   0.000000   0.000000  -0.001162
    12  C    0.000375   0.000025   0.000000   0.000000   0.000052   0.005534
    13  C    5.078826   0.442747   0.009140  -0.003228   0.013712  -0.012061
    14  C    0.442747   4.910390  -0.051966   0.010070  -0.003237  -0.000514
    15  H    0.009140  -0.051966   0.539677  -0.006679  -0.000155  -0.000000
    16  H   -0.003228   0.010070  -0.006679   0.540653  -0.006923   0.000018
    17  H    0.013712  -0.003237  -0.000155  -0.006923   0.543949   0.000340
    18  H   -0.012061  -0.000514  -0.000000   0.000018   0.000340   0.612976
    19  H    0.016004   0.000050  -0.000002  -0.000041   0.002809  -0.060907
    20  H    0.000026  -0.000005   0.000000   0.000000   0.000000   0.000159
    21  H   -0.000000   0.000000  -0.000000   0.000000  -0.000000  -0.000000
    22  H    0.000001  -0.000000   0.000000  -0.000000   0.000000   0.000015
    23  H   -0.000046   0.000002  -0.000000   0.000000   0.000044  -0.000496
    24  H    0.435295  -0.047630  -0.000113   0.000034  -0.000021  -0.000390
    25  H   -0.055193   0.441496  -0.006758  -0.000125   0.000039   0.000020
              19         20         21         22         23         24
     1  C    0.000211   0.000001  -0.000000   0.000000  -0.000001   0.008314
     2  C    0.000212  -0.000001   0.000000  -0.000000   0.000003  -0.002552
     3  C    0.000332   0.000016   0.000000   0.000000   0.000105   0.010470
     4  C   -0.062829  -0.000122  -0.000002  -0.000009   0.001698  -0.048136
     5  C    0.417826  -0.000480   0.000026  -0.000183   0.005917  -0.013962
     6  O   -0.032616   0.003890  -0.000119  -0.000136  -0.003784   0.015732
     7  C   -0.011655  -0.063942   0.004995  -0.000443  -0.067466  -0.001432
     8  C   -0.000823   0.420580  -0.068740   0.001550   0.007416   0.000074
     9  C    0.000136  -0.031000   0.433429   0.004277  -0.002354   0.000046
    10  N   -0.000054   0.006856  -0.029645  -0.027647   0.007053  -0.000001
    11  C    0.000420  -0.002307   0.005038   0.438611  -0.018614  -0.000010
    12  C    0.007072   0.011541  -0.000687  -0.075845   0.416148   0.000193
    13  C    0.016004   0.000026  -0.000000   0.000001  -0.000046   0.435295
    14  C    0.000050  -0.000005   0.000000  -0.000000   0.000002  -0.047630
    15  H   -0.000002   0.000000  -0.000000   0.000000  -0.000000  -0.000113
    16  H   -0.000041   0.000000   0.000000  -0.000000   0.000000   0.000034
    17  H    0.002809   0.000000  -0.000000   0.000000   0.000044  -0.000021
    18  H   -0.060907   0.000159  -0.000000   0.000015  -0.000496  -0.000390
    19  H    0.604553  -0.000056  -0.000000  -0.000005  -0.001735   0.001065
    20  H   -0.000056   0.521872  -0.002814   0.000105   0.000151   0.000466
    21  H   -0.000000  -0.002814   0.530502  -0.000204   0.000076  -0.000003
    22  H   -0.000005   0.000105  -0.000204   0.533459  -0.000598   0.000000
    23  H   -0.001735   0.000151   0.000076  -0.000598   0.516418  -0.000005
    24  H    0.001065   0.000466  -0.000003   0.000000  -0.000005   0.508365
    25  H    0.000001  -0.000001   0.000000  -0.000000   0.000000  -0.005921
              25
     1  C   -0.052755
     2  C    0.009689
     3  C   -0.002694
     4  C    0.011177
     5  C   -0.000346
     6  O   -0.000049
     7  C    0.000001
     8  C   -0.000000
     9  C   -0.000000
    10  N   -0.000000
    11  C    0.000000
    12  C   -0.000000
    13  C   -0.055193
    14  C    0.441496
    15  H   -0.006758
    16  H   -0.000125
    17  H    0.000039
    18  H    0.000020
    19  H    0.000001
    20  H   -0.000001
    21  H    0.000000
    22  H   -0.000000
    23  H    0.000000
    24  H   -0.005921
    25  H    0.539022
 Mulliken charges:
               1
     1  C   -0.129948
     2  C   -0.108013
     3  C   -0.248957
     4  C    0.169372
     5  C   -0.032581
     6  O   -0.285786
     7  C    0.314079
     8  C   -0.215062
     9  C   -0.004714
    10  N   -0.278140
    11  C   -0.047063
    12  C   -0.208611
    13  C   -0.219172
    14  C   -0.101740
    15  H    0.123002
    16  H    0.122236
    17  H    0.116700
    18  H    0.121508
    19  H    0.120033
    20  H    0.135067
    21  H    0.128149
    22  H    0.127052
    23  H    0.140067
    24  H    0.140125
    25  H    0.122398
 Sum of Mulliken charges =  -0.00000
 Mulliken charges with hydrogens summed into heavy atoms:
               1
     1  C   -0.006945
     2  C    0.014223
     3  C   -0.132258
     4  C    0.169372
     5  C    0.208961
     6  O   -0.285786
     7  C    0.314079
     8  C   -0.079995
     9  C    0.123435
    10  N   -0.278140
    11  C    0.079989
    12  C   -0.068544
    13  C   -0.079047
    14  C    0.020657
 Electronic spatial extent (au):  <R**2>=           3997.7103
 Charge=             -0.0000 electrons
 Dipole moment (field-independent basis, Debye):
    X=              2.9953    Y=             -0.8141    Z=              0.1519  Tot=              3.1077
 Quadrupole moment (field-independent basis, Debye-Ang):
   XX=            -92.2959   YY=            -70.6327   ZZ=            -86.2103
   XY=             -1.0642   XZ=             -0.1899   YZ=              0.0620
 Traceless Quadrupole moment (field-independent basis, Debye-Ang):
   XX=             -9.2496   YY=             12.4136   ZZ=             -3.1640
   XY=             -1.0642   XZ=             -0.1899   YZ=              0.0620
 Octapole moment (field-independent basis, Debye-Ang**2):
  XXX=            137.9507  YYY=              2.4088  ZZZ=              0.0681  XYY=             -8.9214
  XXY=              8.4661  XXZ=             -5.2371  XZZ=             -7.3015  YZZ=             -0.9534
  YYZ=             -0.2412  XYZ=              8.9740
 Hexadecapole moment (field-independent basis, Debye-Ang**3):
 XXXX=          -5165.8506 YYYY=           -554.8465 ZZZZ=           -120.6961 XXXY=            -28.6102
 XXXZ=            -11.5873 YYYX=              0.9602 YYYZ=              0.7208 ZZZX=              0.0680
 ZZZY=             -0.8201 XXYY=           -781.0359 XXZZ=           -898.6562 YYZZ=           -128.5080
 XXYZ=             -0.6039 YYXZ=             -0.0794 ZZXY=             -1.5395
 N-N= 7.812259330675D+02 E-N=-2.943415941466D+03  KE= 5.907097312641D+02
 Breneman (CHELPG) radii used.
 Read replacement radii for each type of atom:
 Atom Element Radius
    1     6    1.50
    2     6    1.50
    3     6    1.50
    4     6    1.50
    5     6    1.50
    6     8    1.70
    7     6    1.50
    8     6    1.50
    9     6    1.50
   10     7    1.70
   11     6    1.50
   12     6    1.50
   13     6    1.50
   14     6    1.50
   15     1    1.45
   16     1    1.45
   17     1    1.45
   18     1    1.45
   19     1    1.45
   20     1    1.45
   21     1    1.45
   22     1    1.45
   23     1    1.45
   24     1    1.45
   25     1    1.45
 Generate Potential Derived Charges using the Breneman model, NDens= 1.
 Grid spacing= 0.300 Box extension= 2.800
 NStep X,Y,Z=   54     36     26   Total possible points=       50544
 Number of Points to Fit=   16319

 **********************************************************************

            Electrostatic Properties Using The SCF Density.

 **********************************************************************

       Atomic Center    1 is at   4.533309  0.450691 -0.003900
       Atomic Center    2 is at   4.186799 -0.883710 -0.215280
       Atomic Center    3 is at   2.847909 -1.266970 -0.201840
       Atomic Center    4 is at   1.840979 -0.324590  0.030170
       Atomic Center    5 is at   0.404559 -0.779781  0.087380
       Atomic Center    6 is at  -0.453741  0.319469 -0.100170
       Atomic Center    7 is at  -1.781781  0.135859 -0.049620
       Atomic Center    8 is at  -2.588011  1.268448 -0.225450
       Atomic Center    9 is at  -3.966191  1.115668 -0.179860
       Atomic Center   10 is at  -4.583931 -0.051312  0.022780
       Atomic Center   11 is at  -3.810241 -1.117172  0.187070
       Atomic Center   12 is at  -2.413751 -1.093642  0.162010
       Atomic Center   13 is at   2.192629  1.010190  0.240720
       Atomic Center   14 is at   3.533049  1.394470  0.221110
       Atomic Center   15 is at   5.582239  0.754231 -0.018890
       Atomic Center   16 is at   4.963079 -1.629719 -0.398700
       Atomic Center   17 is at   2.582880 -2.313610 -0.377630
       Atomic Center   18 is at   0.202389 -1.249151  1.069070
       Atomic Center   19 is at   0.221509 -1.545511 -0.688120
       Atomic Center   20 is at  -2.124192  2.240949 -0.394700
       Atomic Center   21 is at  -4.610752  1.990968 -0.315440
       Atomic Center   22 is at  -4.322100 -2.072092  0.352190
       Atomic Center   23 is at  -1.857650 -2.019611  0.304500
       Atomic Center   24 is at   1.407958  1.748160  0.411530
       Atomic Center   25 is at   3.796538  2.442050  0.383030
   16319 points will be used for fitting atomic charges
 Fitting point charges to electrostatic potential
 Charges from ESP fit, RMS=   0.00401 RRMS=   0.30814:
 ESP charges:
               1
     1  C   -0.121356
     2  C   -0.036544
     3  C   -0.224812
     4  C    0.165354
     5  C    0.147304
     6  O   -0.427250
     7  C    0.707784
     8  C   -0.566591
     9  C    0.450406
    10  N   -0.668659
    11  C    0.456593
    12  C   -0.584418
    13  C   -0.174241
    14  C   -0.065066
    15  H    0.093588
    16  H    0.084740
    17  H    0.107752
    18  H    0.018124
    19  H    0.032251
    20  H    0.183183
    21  H    0.019537
    22  H    0.016320
    23  H    0.176193
    24  H    0.120370
    25  H    0.089440
 Sum of ESP charges =   0.00000
 ESP charges with hydrogens summed into heavy atoms:
               1
     1  C   -0.027768
     2  C    0.048195
     3  C   -0.117060
     4  C    0.165354
     5  C    0.197679
     6  O   -0.427250
     7  C    0.707784
     8  C   -0.383408
     9  C    0.469943
    10  N   -0.668659
    11  C    0.472913
    12  C   -0.408225
    13  C   -0.053871
    14  C    0.024374
 Charge=   0.00000 Dipole=     2.9852    -0.8008     0.1480 Tot=     3.0943
 -----------------------------------------------------------------

              Electrostatic Properties (Atomic Units)

 -----------------------------------------------------------------
    Center     Electric         -------- Electric Field --------
               Potential          X             Y             Z
 -----------------------------------------------------------------
    1 Atom    -14.763015
    2 Atom    -14.760488
    3 Atom    -14.759179
    4 Atom    -14.748250
    5 Atom    -14.690708
    6 Atom    -22.305738
    7 Atom    -14.685490
    8 Atom    -14.764689
    9 Atom    -14.735985
   10 Atom    -18.407780
   11 Atom    -14.733839
   12 Atom    -14.759874
   13 Atom    -14.763858
   14 Atom    -14.762034
   15 Atom     -1.101245
   16 Atom     -1.099528
   17 Atom     -1.094530
   18 Atom     -1.091513
   19 Atom     -1.091978
   20 Atom     -1.091181
   21 Atom     -1.107292
   22 Atom     -1.105826
   23 Atom     -1.083884
   24 Atom     -1.103936
   25 Atom     -1.101865
 -----------------------------------------------------------------
 Unable to Open any file for archive entry.
 1\1\GINC-NOTCH281\SP\RwB97XD\def2TZVP\C12H11N1O1\U6053008\14-Jul-2024\
 0\\#N Guess=Read Geom=Check Integral(Ultrafine) Density Pop=(ChelpG,Re
 adRadii) NMR wB97XD def2TZVP\\12328828_2\\0,1\C,0,4.53331,0.45069,-0.0
 039\C,0,4.1868,-0.88371,-0.21528\C,0,2.84791,-1.26697,-0.20184\C,0,1.8
 4098,-0.32459,0.03017\C,0,0.40456,-0.77978,0.08738\O,0,-0.45374,0.3194
 7,-0.10017\C,0,-1.78178,0.13586,-0.04962\C,0,-2.58801,1.26845,-0.22545
 \C,0,-3.96619,1.11567,-0.17986\N,0,-4.58393,-0.05131,0.02278\C,0,-3.81
 024,-1.11717,0.18707\C,0,-2.41375,-1.09364,0.16201\C,0,2.19263,1.01019
 ,0.24072\C,0,3.53305,1.39447,0.22111\H,0,5.58224,0.75423,-0.01889\H,0,
 4.96308,-1.62972,-0.3987\H,0,2.58288,-2.31361,-0.37763\H,0,0.20239,-1.
 24915,1.06907\H,0,0.22151,-1.54551,-0.68812\H,0,-2.12419,2.24095,-0.39
 47\H,0,-4.61075,1.99097,-0.31544\H,0,-4.3221,-2.07209,0.35219\H,0,-1.8
 5765,-2.01961,0.3045\H,0,1.40796,1.74816,0.41153\H,0,3.79654,2.44205,0
 .38303\\Version=ES64L-G16RevC.01\State=1-A\HF=-593.8709406\RMSD=2.521e
 -09\Dipole=1.178428,-0.3203056,0.0597789\Quadrupole=-6.8768405,9.22922
 35,-2.352383,-0.7911666,-0.1411913,0.0460712\PG=C01 [X(C12H11N1O1)]\\@
 The archive entry for this job was punched.


 "A LITTLE BIT GOES A LONG WAY"
 R.S. MULLIKEN AS QUOTED BY K. RUEDENBERG
 Job cpu time:       0 days  0 hours 55 minutes 32.2 seconds.
 Elapsed time:       0 days  0 hours  3 minutes 38.8 seconds.
 File lengths (MBytes):  RWF=    157 Int=      0 D2E=      0 Chk=     23 Scr=      2
 Normal termination of Gaussian 16 at Sun Jul 14 10:11:45 2024.
