 Entering Gaussian System, Link 0=g16
 Input=12326824_21.com
 Output=12326824_21.log
 Initial command:
 /uufs/chpc.utah.edu/sys/installdir/gaussian16/C01/AVX/g16/l1.exe "/scratch/general/vast/u6053008/1287121-notchpeak.peaks/Gau-1184091.inp" -scrdir="/scratch/general/vast/u6053008/1287121-notchpeak.peaks/"
 Entering Link 1 = /uufs/chpc.utah.edu/sys/installdir/gaussian16/C01/AVX/g16/l1.exe PID=   1184092.
  
 Copyright (c) 1988-2019, Gaussian, Inc.  All Rights Reserved.
  
 This is part of the Gaussian(R) 16 program.  It is based on
 the Gaussian(R) 09 system (copyright 2009, Gaussian, Inc.),
 the Gaussian(R) 03 system (copyright 2003, Gaussian, Inc.),
 the Gaussian(R) 98 system (copyright 1998, Gaussian, Inc.),
 the Gaussian(R) 94 system (copyright 1995, Gaussian, Inc.),
 the Gaussian 92(TM) system (copyright 1992, Gaussian, Inc.),
 the Gaussian 90(TM) system (copyright 1990, Gaussian, Inc.),
 the Gaussian 88(TM) system (copyright 1988, Gaussian, Inc.),
 the Gaussian 86(TM) system (copyright 1986, Carnegie Mellon
 University), and the Gaussian 82(TM) system (copyright 1983,
 Carnegie Mellon University). Gaussian is a federally registered
 trademark of Gaussian, Inc.
  
 This software contains proprietary and confidential information,
 including trade secrets, belonging to Gaussian, Inc.
  
 This software is provided under written license and may be
 used, copied, transmitted, or stored only in accord with that
 written license.
  
 The following legend is applicable only to US Government
 contracts under FAR:
  
                    RESTRICTED RIGHTS LEGEND
  
 Use, reproduction and disclosure by the US Government is
 subject to restrictions as set forth in subparagraphs (a)
 and (c) of the Commercial Computer Software - Restricted
 Rights clause in FAR 52.227-19.
  
 Gaussian, Inc.
 340 Quinnipiac St., Bldg. 40, Wallingford CT 06492
  
  
 ---------------------------------------------------------------
 Warning -- This program may not be used in any manner that
 competes with the business of Gaussian, Inc. or will provide
 assistance to any competitor of Gaussian, Inc.  The licensee
 of this program is prohibited from giving any competitor of
 Gaussian, Inc. access to this program.  By using this program,
 the user acknowledges that Gaussian, Inc. is engaged in the
 business of creating and licensing software in the field of
 computational chemistry and represents and warrants to the
 licensee that it is not a competitor of Gaussian, Inc. and that
 it will not use this program in any manner prohibited above.
 ---------------------------------------------------------------
  

 Cite this work as:
 Gaussian 16, Revision C.01,
 M. J. Frisch, G. W. Trucks, H. B. Schlegel, G. E. Scuseria, 
 M. A. Robb, J. R. Cheeseman, G. Scalmani, V. Barone, 
 G. A. Petersson, H. Nakatsuji, X. Li, M. Caricato, A. V. Marenich, 
 J. Bloino, B. G. Janesko, R. Gomperts, B. Mennucci, H. P. Hratchian, 
 J. V. Ortiz, A. F. Izmaylov, J. L. Sonnenberg, D. Williams-Young, 
 F. Ding, F. Lipparini, F. Egidi, J. Goings, B. Peng, A. Petrone, 
 T. Henderson, D. Ranasinghe, V. G. Zakrzewski, J. Gao, N. Rega, 
 G. Zheng, W. Liang, M. Hada, M. Ehara, K. Toyota, R. Fukuda, 
 J. Hasegawa, M. Ishida, T. Nakajima, Y. Honda, O. Kitao, H. Nakai, 
 T. Vreven, K. Throssell, J. A. Montgomery, Jr., J. E. Peralta, 
 F. Ogliaro, M. J. Bearpark, J. J. Heyd, E. N. Brothers, K. N. Kudin, 
 V. N. Staroverov, T. A. Keith, R. Kobayashi, J. Normand, 
 K. Raghavachari, A. P. Rendell, J. C. Burant, S. S. Iyengar, 
 J. Tomasi, M. Cossi, J. M. Millam, M. Klene, C. Adamo, R. Cammi, 
 J. W. Ochterski, R. L. Martin, K. Morokuma, O. Farkas, 
 J. B. Foresman, and D. J. Fox, Gaussian, Inc., Wallingford CT, 2019.
 
 ******************************************
 Gaussian 16:  ES64L-G16RevC.01  3-Jul-2019
                12-Jul-2024 
 ******************************************
 %NProcShared=16
 Will use up to   16 processors via shared memory.
 %Mem=32GB
 %chk=12326824_21.chk
 ------------------------------------------------------
 #N OPT FREQ=NORAMAN Integral(Ultrafine) wB97XD def2SVP
 ------------------------------------------------------
 1/18=20,19=15,26=4,38=1/1,3;
 2/9=110,12=2,17=6,18=5,40=1/2;
 3/5=43,7=101,11=2,25=1,30=1,71=1,74=-58,75=-5/1,2,3;
 4//1;
 5/5=2,38=5/2;
 6/7=2,8=2,9=2,10=2,28=1/1;
 7//1,2,3,16;
 1/18=20,19=15,26=4/3(2);
 2/9=110/2;
 99//99;
 2/9=110/2;
 3/5=43,7=101,11=2,25=1,30=1,71=1,74=-58,75=-5/1,2,3;
 4/5=5,16=3,69=1/1;
 5/5=2,38=5/2;
 7//1,2,3,16;
 1/18=20,19=15,26=4/3(-5);
 2/9=110/2;
 6/7=2,8=2,9=2,10=2,19=2,28=1/1;
 99/9=1/99;
 -----------
 12326824_21
 -----------
 Symbolic Z-matrix:
 Charge =  0 Multiplicity = 1
 C                     3.93053   0.15535   0.92027 
 C                     3.38174  -0.39706  -0.3801 
 O                     2.05995  -0.9154   -0.21613 
 C                     1.04484  -0.0472   -0.26962 
 O                     1.19772   1.13654  -0.442 
 C                    -0.26939  -0.73542  -0.10785 
 C                    -0.37972  -2.11838  -0.32059 
 N                    -1.50288  -2.81219  -0.18927 
 C                    -2.59212  -2.14494   0.19221 
 C                    -2.60861  -0.7785    0.44556 
 C                    -1.43021  -0.04394   0.29198 
 O                    -1.43077   1.26791   0.58687 
 C                    -1.59142   2.17715  -0.5003 
 C                    -1.19718   3.55359  -0.02417 
 H                     4.97437   0.47207   0.77917 
 H                     3.90434  -0.60873   1.71055 
 H                     3.34787   1.02742   1.24749 
 H                     3.36985   0.37637  -1.16173 
 H                     3.97381  -1.25223  -0.73219 
 H                     0.51289  -2.67539  -0.61862 
 H                    -3.50959  -2.73252   0.30692 
 H                    -3.51555  -0.26771   0.77186 
 H                    -2.64548   2.14972  -0.8334 
 H                    -0.95166   1.86314  -1.33935 
 H                    -1.34824   4.28967  -0.82692 
 H                    -0.13688   3.55361   0.26266 
 H                    -1.80158   3.85352   0.84415 
 

 GradGradGradGradGradGradGradGradGradGradGradGradGradGradGradGradGradGrad
 Berny optimization.
 Initialization pass.
                           ----------------------------
                           !    Initial Parameters    !
                           ! (Angstroms and Degrees)  !
 --------------------------                            --------------------------
 ! Name  Definition              Value          Derivative Info.                !
 --------------------------------------------------------------------------------
 ! R1    R(1,2)                  1.5157         estimate D2E/DX2                !
 ! R2    R(1,15)                 1.0999         estimate D2E/DX2                !
 ! R3    R(1,16)                 1.0996         estimate D2E/DX2                !
 ! R4    R(1,17)                 1.0987         estimate D2E/DX2                !
 ! R5    R(2,3)                  1.4292         estimate D2E/DX2                !
 ! R6    R(2,18)                 1.0997         estimate D2E/DX2                !
 ! R7    R(2,19)                 1.0981         estimate D2E/DX2                !
 ! R8    R(3,4)                  1.3368         estimate D2E/DX2                !
 ! R9    R(4,5)                  1.206          estimate D2E/DX2                !
 ! R10   R(4,6)                  1.4923         estimate D2E/DX2                !
 ! R11   R(6,7)                  1.4036         estimate D2E/DX2                !
 ! R12   R(6,11)                 1.4091         estimate D2E/DX2                !
 ! R13   R(7,8)                  1.3267         estimate D2E/DX2                !
 ! R14   R(7,20)                 1.0935         estimate D2E/DX2                !
 ! R15   R(8,9)                  1.3331         estimate D2E/DX2                !
 ! R16   R(9,10)                 1.3898         estimate D2E/DX2                !
 ! R17   R(9,21)                 1.0955         estimate D2E/DX2                !
 ! R18   R(10,11)                1.3971         estimate D2E/DX2                !
 ! R19   R(10,22)                1.0908         estimate D2E/DX2                !
 ! R20   R(11,12)                1.3446         estimate D2E/DX2                !
 ! R21   R(12,13)                1.4263         estimate D2E/DX2                !
 ! R22   R(13,14)                1.5089         estimate D2E/DX2                !
 ! R23   R(13,23)                1.1058         estimate D2E/DX2                !
 ! R24   R(13,24)                1.1009         estimate D2E/DX2                !
 ! R25   R(14,25)                1.0996         estimate D2E/DX2                !
 ! R26   R(14,26)                1.0984         estimate D2E/DX2                !
 ! R27   R(14,27)                1.0997         estimate D2E/DX2                !
 ! A1    A(2,1,15)             109.7856         estimate D2E/DX2                !
 ! A2    A(2,1,16)             110.7772         estimate D2E/DX2                !
 ! A3    A(2,1,17)             110.6585         estimate D2E/DX2                !
 ! A4    A(15,1,16)            108.3545         estimate D2E/DX2                !
 ! A5    A(15,1,17)            108.2366         estimate D2E/DX2                !
 ! A6    A(16,1,17)            108.9584         estimate D2E/DX2                !
 ! A7    A(1,2,3)              111.6298         estimate D2E/DX2                !
 ! A8    A(1,2,18)             110.9401         estimate D2E/DX2                !
 ! A9    A(1,2,19)             111.3275         estimate D2E/DX2                !
 ! A10   A(3,2,18)             109.0639         estimate D2E/DX2                !
 ! A11   A(3,2,19)             104.6546         estimate D2E/DX2                !
 ! A12   A(18,2,19)            109.0054         estimate D2E/DX2                !
 ! A13   A(2,3,4)              117.5252         estimate D2E/DX2                !
 ! A14   A(3,4,5)              123.1577         estimate D2E/DX2                !
 ! A15   A(3,4,6)              111.4003         estimate D2E/DX2                !
 ! A16   A(5,4,6)              125.4377         estimate D2E/DX2                !
 ! A17   A(4,6,7)              120.4774         estimate D2E/DX2                !
 ! A18   A(4,6,11)             122.0019         estimate D2E/DX2                !
 ! A19   A(7,6,11)             117.5018         estimate D2E/DX2                !
 ! A20   A(6,7,8)              124.5294         estimate D2E/DX2                !
 ! A21   A(6,7,20)             118.622          estimate D2E/DX2                !
 ! A22   A(8,7,20)             116.8484         estimate D2E/DX2                !
 ! A23   A(7,8,9)              117.2767         estimate D2E/DX2                !
 ! A24   A(8,9,10)             123.6388         estimate D2E/DX2                !
 ! A25   A(8,9,21)             116.4733         estimate D2E/DX2                !
 ! A26   A(10,9,21)            119.8876         estimate D2E/DX2                !
 ! A27   A(9,10,11)            119.1366         estimate D2E/DX2                !
 ! A28   A(9,10,22)            121.6528         estimate D2E/DX2                !
 ! A29   A(11,10,22)           119.2071         estimate D2E/DX2                !
 ! A30   A(6,11,10)            117.9074         estimate D2E/DX2                !
 ! A31   A(6,11,12)            122.7761         estimate D2E/DX2                !
 ! A32   A(10,11,12)           119.2437         estimate D2E/DX2                !
 ! A33   A(11,12,13)           117.0536         estimate D2E/DX2                !
 ! A34   A(12,13,14)           108.1536         estimate D2E/DX2                !
 ! A35   A(12,13,23)           108.7327         estimate D2E/DX2                !
 ! A36   A(12,13,24)           109.4905         estimate D2E/DX2                !
 ! A37   A(14,13,23)           111.5149         estimate D2E/DX2                !
 ! A38   A(14,13,24)           110.4181         estimate D2E/DX2                !
 ! A39   A(23,13,24)           108.4993         estimate D2E/DX2                !
 ! A40   A(13,14,25)           110.1454         estimate D2E/DX2                !
 ! A41   A(13,14,26)           109.5502         estimate D2E/DX2                !
 ! A42   A(13,14,27)           110.755          estimate D2E/DX2                !
 ! A43   A(25,14,26)           108.8593         estimate D2E/DX2                !
 ! A44   A(25,14,27)           108.5652         estimate D2E/DX2                !
 ! A45   A(26,14,27)           108.9265         estimate D2E/DX2                !
 ! D1    D(15,1,2,3)           175.532          estimate D2E/DX2                !
 ! D2    D(15,1,2,18)          -62.601          estimate D2E/DX2                !
 ! D3    D(15,1,2,19)           58.9817         estimate D2E/DX2                !
 ! D4    D(16,1,2,3)            55.9007         estimate D2E/DX2                !
 ! D5    D(16,1,2,18)          177.7677         estimate D2E/DX2                !
 ! D6    D(16,1,2,19)          -60.6497         estimate D2E/DX2                !
 ! D7    D(17,1,2,3)           -65.0573         estimate D2E/DX2                !
 ! D8    D(17,1,2,18)           56.8097         estimate D2E/DX2                !
 ! D9    D(17,1,2,19)          178.3923         estimate D2E/DX2                !
 ! D10   D(1,2,3,4)             83.1879         estimate D2E/DX2                !
 ! D11   D(18,2,3,4)           -39.755          estimate D2E/DX2                !
 ! D12   D(19,2,3,4)          -156.2749         estimate D2E/DX2                !
 ! D13   D(2,3,4,5)             -0.3258         estimate D2E/DX2                !
 ! D14   D(2,3,4,6)            178.9509         estimate D2E/DX2                !
 ! D15   D(3,4,6,7)            -18.8823         estimate D2E/DX2                !
 ! D16   D(3,4,6,11)           159.4969         estimate D2E/DX2                !
 ! D17   D(5,4,6,7)            160.3746         estimate D2E/DX2                !
 ! D18   D(5,4,6,11)           -21.2462         estimate D2E/DX2                !
 ! D19   D(4,6,7,8)            179.438          estimate D2E/DX2                !
 ! D20   D(4,6,7,20)            -0.7601         estimate D2E/DX2                !
 ! D21   D(11,6,7,8)             0.9876         estimate D2E/DX2                !
 ! D22   D(11,6,7,20)         -179.2105         estimate D2E/DX2                !
 ! D23   D(4,6,11,10)         -178.5884         estimate D2E/DX2                !
 ! D24   D(4,6,11,12)           -1.7159         estimate D2E/DX2                !
 ! D25   D(7,6,11,10)           -0.1633         estimate D2E/DX2                !
 ! D26   D(7,6,11,12)          176.7093         estimate D2E/DX2                !
 ! D27   D(6,7,8,9)             -1.124          estimate D2E/DX2                !
 ! D28   D(20,7,8,9)           179.071          estimate D2E/DX2                !
 ! D29   D(7,8,9,10)             0.4566         estimate D2E/DX2                !
 ! D30   D(7,8,9,21)          -179.3628         estimate D2E/DX2                !
 ! D31   D(8,9,10,11)            0.3021         estimate D2E/DX2                !
 ! D32   D(8,9,10,22)         -179.0047         estimate D2E/DX2                !
 ! D33   D(21,9,10,11)        -179.8844         estimate D2E/DX2                !
 ! D34   D(21,9,10,22)           0.8088         estimate D2E/DX2                !
 ! D35   D(9,10,11,6)           -0.4252         estimate D2E/DX2                !
 ! D36   D(9,10,11,12)        -177.4116         estimate D2E/DX2                !
 ! D37   D(22,10,11,6)         178.8988         estimate D2E/DX2                !
 ! D38   D(22,10,11,12)          1.9124         estimate D2E/DX2                !
 ! D39   D(6,11,12,13)          85.6426         estimate D2E/DX2                !
 ! D40   D(10,11,12,13)        -97.5249         estimate D2E/DX2                !
 ! D41   D(11,12,13,14)       -164.9976         estimate D2E/DX2                !
 ! D42   D(11,12,13,23)         73.755          estimate D2E/DX2                !
 ! D43   D(11,12,13,24)        -44.6324         estimate D2E/DX2                !
 ! D44   D(12,13,14,25)       -177.6824         estimate D2E/DX2                !
 ! D45   D(12,13,14,26)         62.6055         estimate D2E/DX2                !
 ! D46   D(12,13,14,27)        -57.5705         estimate D2E/DX2                !
 ! D47   D(23,13,14,25)        -58.1744         estimate D2E/DX2                !
 ! D48   D(23,13,14,26)       -177.8865         estimate D2E/DX2                !
 ! D49   D(23,13,14,27)         61.9375         estimate D2E/DX2                !
 ! D50   D(24,13,14,25)         62.534          estimate D2E/DX2                !
 ! D51   D(24,13,14,26)        -57.1781         estimate D2E/DX2                !
 ! D52   D(24,13,14,27)       -177.3541         estimate D2E/DX2                !
 --------------------------------------------------------------------------------
 Trust Radius=3.00D-01 FncErr=1.00D-07 GrdErr=1.00D-06 EigMax=2.50D+02 EigMin=1.00D-04
 Number of steps in this run=    134 maximum allowed number of steps=    162.
 GradGradGradGradGradGradGradGradGradGradGradGradGradGradGradGradGradGrad

                          Input orientation:                          
 ---------------------------------------------------------------------
 Center     Atomic      Atomic             Coordinates (Angstroms)
 Number     Number       Type             X           Y           Z
 ---------------------------------------------------------------------
      1          6           0        3.930530    0.155350    0.920270
      2          6           0        3.381740   -0.397060   -0.380100
      3          8           0        2.059950   -0.915400   -0.216130
      4          6           0        1.044840   -0.047200   -0.269620
      5          8           0        1.197720    1.136540   -0.442000
      6          6           0       -0.269390   -0.735420   -0.107850
      7          6           0       -0.379720   -2.118380   -0.320590
      8          7           0       -1.502880   -2.812190   -0.189270
      9          6           0       -2.592120   -2.144940    0.192210
     10          6           0       -2.608610   -0.778500    0.445560
     11          6           0       -1.430210   -0.043940    0.291980
     12          8           0       -1.430770    1.267910    0.586870
     13          6           0       -1.591420    2.177150   -0.500300
     14          6           0       -1.197180    3.553590   -0.024170
     15          1           0        4.974370    0.472070    0.779170
     16          1           0        3.904340   -0.608730    1.710550
     17          1           0        3.347870    1.027420    1.247490
     18          1           0        3.369850    0.376370   -1.161730
     19          1           0        3.973810   -1.252230   -0.732190
     20          1           0        0.512890   -2.675390   -0.618620
     21          1           0       -3.509590   -2.732520    0.306920
     22          1           0       -3.515550   -0.267710    0.771860
     23          1           0       -2.645480    2.149720   -0.833400
     24          1           0       -0.951660    1.863140   -1.339350
     25          1           0       -1.348240    4.289670   -0.826920
     26          1           0       -0.136880    3.553610    0.262660
     27          1           0       -1.801580    3.853520    0.844150
 ---------------------------------------------------------------------
                    Distance matrix (angstroms):
                    1          2          3          4          5
     1  C    0.000000
     2  C    1.515681   0.000000
     3  O    2.436592   1.429228   0.000000
     4  C    3.127950   2.365525   1.336817   0.000000
     5  O    3.207299   2.669401   2.237167   1.205955   0.000000
     6  C    4.414729   3.676868   2.338791   1.492319   2.401729
     7  C    5.028701   4.137036   2.722143   2.514310   3.619055
     8  N    6.289620   5.452411   4.036371   3.760652   4.790572
     9  C    6.954593   6.250570   4.829106   4.223894   5.053041
    10  C    6.622520   6.059002   4.717206   3.793940   4.352389
    11  C    5.401111   4.871473   3.633020   2.537967   2.972924
    12  O    5.485662   5.183378   4.194851   2.931166   2.825737
    13  C    6.049597   5.601190   4.793446   3.456995   2.977511
    14  C    6.223617   6.058121   5.533319   4.248834   3.428157
    15  H    1.099919   2.153082   3.377801   4.100099   4.024408
    16  H    1.099567   2.165348   2.684756   3.523227   3.873659
    17  H    1.098668   2.163178   2.752357   2.959794   2.736682
    18  H    2.167472   1.099673   2.068494   2.526053   2.411228
    19  H    2.171124   1.098103   2.010630   3.200771   3.673841
    20  H    4.696971   3.671237   2.377595   2.704100   3.876983
    21  H    8.004460   7.308680   5.881775   5.318475   6.139159
    22  H    7.459565   6.994023   5.699283   4.682997   5.065599
    23  H    7.092022   6.558883   5.649518   4.331601   3.993734
    24  H    5.644308   4.980665   4.248730   2.963061   2.439881
    25  H    6.928974   6.673664   6.251526   4.984562   4.070910
    26  H    5.340828   5.329317   5.002734   3.826959   2.849549
    27  H    6.821975   6.814178   6.227215   4.955624   4.246406
                    6          7          8          9         10
     6  C    0.000000
     7  C    1.403570   0.000000
     8  N    2.416837   1.326690   0.000000
     9  C    2.733470   2.271207   1.333114   0.000000
    10  C    2.404177   2.711128   2.400321   1.389826   0.000000
    11  C    1.409082   2.404594   2.810710   2.402954   1.397065
    12  O    2.417596   3.659938   4.153891   3.626574   2.365390
    13  C    3.222552   4.466776   4.999809   4.490148   3.265761
    14  C    4.389009   5.738236   6.375254   5.870768   4.580369
    15  H    5.453609   6.048651   7.326596   8.027766   7.692646
    16  H    4.554410   4.975715   6.140243   6.846115   6.636832
    17  H    4.246071   5.123462   6.351115   6.816228   6.275675
    18  H    3.948520   4.581547   5.903905   6.613263   6.297546
    19  H    4.319912   4.457898   5.720347   6.690507   6.703713
    20  H    2.153214   1.093542   2.065523   3.252677   3.804528
    21  H    3.828752   3.250696   2.068680   1.095518   2.156196
    22  H    3.395614   3.801560   3.383636   2.170878   1.090834
    23  H    3.807395   4.859354   5.132347   4.415748   3.195555
    24  H    2.955435   4.149396   4.846157   4.593636   3.593000
    25  H    5.189654   6.500577   7.132105   6.632501   5.375322
    26  H    4.307042   5.707068   6.526378   6.205372   4.991000
    27  H    4.930748   6.248351   6.751953   6.085351   4.718663
                   11         12         13         14         15
    11  C    0.000000
    12  O    1.344586   0.000000
    13  C    2.363670   1.426347   0.000000
    14  C    3.618905   2.377450   1.508878   0.000000
    15  H    6.443777   6.457256   6.903183   6.944721   0.000000
    16  H    5.548761   5.766093   6.546172   6.808793   1.783413
    17  H    4.989074   4.830078   5.364069   5.353142   1.781359
    18  H    5.032942   5.186367   5.319257   5.678603   2.520067
    19  H    5.631369   6.107414   6.541117   7.094810   2.501707
    20  H    3.395491   4.558578   5.290488   6.486748   5.636056
    21  H    3.398898   4.517002   5.332527   6.706120   9.081299
    22  H    2.151511   2.595892   3.361251   4.539916   8.522093
    23  H    2.748728   2.066465   1.105780   2.173310   7.967246
    24  H    2.554839   2.072238   1.100863   2.155829   6.445233
    25  H    4.476475   3.337161   2.151408   1.099564   7.558372
    26  H    3.823078   2.646448   2.142997   1.098411   5.990622
    27  H    3.953859   2.624704   2.159150   1.099653   7.573105
                   16         17         18         19         20
    16  H    0.000000
    17  H    1.789154   0.000000
    18  H    3.083195   2.495734   0.000000
    19  H    2.527033   3.083462   1.789304   0.000000
    20  H    4.604134   5.022975   4.215499   3.743828   0.000000
    21  H    7.838815   7.876965   7.690827   7.698850   4.127982
    22  H    7.486802   7.000723   7.180692   7.702075   4.894761
    23  H    7.548567   6.442818   6.279870   7.443017   5.770885
    24  H    6.244419   5.086858   4.573563   5.859559   4.823133
    25  H    7.617262   6.082672   6.138924   7.684129   7.212437
    26  H    5.979374   4.415315   4.941750   6.401843   6.324500
    27  H    7.295193   5.887815   6.546588   7.868206   7.079769
                   21         22         23         24         25
    21  H    0.000000
    22  H    2.508285   0.000000
    23  H    5.087562   3.029497   0.000000
    24  H    5.511198   3.946044   1.790849   0.000000
    25  H    7.434257   5.293679   2.502451   2.511555   0.000000
    26  H    7.133902   5.126127   3.076577   2.467386   1.787837
    27  H    6.825089   4.464018   2.535602   3.074353   1.785558
                   26         27
    26  H    0.000000
    27  H    1.788659   0.000000
 Stoichiometry    C10H13NO3
 Framework group  C1[X(C10H13NO3)]
 Deg. of freedom    75
 Full point group                 C1      NOp   1
 Largest Abelian subgroup         C1      NOp   1
 Largest concise Abelian subgroup C1      NOp   1
                         Standard orientation:                         
 ---------------------------------------------------------------------
 Center     Atomic      Atomic             Coordinates (Angstroms)
 Number     Number       Type             X           Y           Z
 ---------------------------------------------------------------------
      1          6           0        3.930531    0.155349    0.920270
      2          6           0        3.381740   -0.397061   -0.380100
      3          8           0        2.059950   -0.915400   -0.216130
      4          6           0        1.044840   -0.047200   -0.269620
      5          8           0        1.197721    1.136540   -0.442000
      6          6           0       -0.269390   -0.735419   -0.107850
      7          6           0       -0.379720   -2.118379   -0.320590
      8          7           0       -1.502881   -2.812188   -0.189270
      9          6           0       -2.592120   -2.144938    0.192210
     10          6           0       -2.608610   -0.778498    0.445560
     11          6           0       -1.430210   -0.043938    0.291980
     12          8           0       -1.430769    1.267912    0.586870
     13          6           0       -1.591419    2.177152   -0.500300
     14          6           0       -1.197178    3.553591   -0.024170
     15          1           0        4.974371    0.472069    0.779170
     16          1           0        3.904340   -0.608731    1.710550
     17          1           0        3.347871    1.027419    1.247490
     18          1           0        3.369851    0.376369   -1.161730
     19          1           0        3.973810   -1.252231   -0.732190
     20          1           0        0.512889   -2.675389   -0.618620
     21          1           0       -3.509591   -2.732518    0.306920
     22          1           0       -3.515550   -0.267708    0.771860
     23          1           0       -2.645479    2.149722   -0.833400
     24          1           0       -0.951659    1.863141   -1.339350
     25          1           0       -1.348238    4.289671   -0.826920
     26          1           0       -0.136878    3.553611    0.262660
     27          1           0       -1.801578    3.853522    0.844150
 ---------------------------------------------------------------------
 Rotational constants (GHZ):           0.8170975           0.5688792           0.3556363
 Standard basis: def2SVP (5D, 7F)
 There are   275 symmetry adapted cartesian basis functions of A   symmetry.
 There are   261 symmetry adapted basis functions of A   symmetry.
   261 basis functions,   441 primitive gaussians,   275 cartesian basis functions
    52 alpha electrons       52 beta electrons
       nuclear repulsion energy       904.7319681201 Hartrees.
 NAtoms=   27 NActive=   27 NUniq=   27 SFac= 1.00D+00 NAtFMM=   60 NAOKFM=F Big=F
 Integral buffers will be    131072 words long.
 Raffenetti 2 integral format.
 Two-electron integral symmetry is turned on.
 Nuclear repulsion after empirical dispersion term =      904.7165667297 Hartrees.
 One-electron integrals computed using PRISM.
   1 Symmetry operations used in ECPInt.
 ECPInt:  NShTT=    7626 NPrTT=   27482 LenC2=    7221 LenP2D=   18812.
 LDataN:  DoStor=T MaxTD1= 4 Len=   56
 NBasis=   261 RedAO= T EigKep=  5.48D-04  NBF=   261
 NBsUse=   261 1.00D-06 EigRej= -1.00D+00 NBFU=   261
 ExpMin= 1.22D-01 ExpMax= 2.27D+03 ExpMxC= 3.41D+02 IAcc=3 IRadAn=         5 AccDes= 0.00D+00
 Harris functional with IExCor= 4639 and IRadAn=       5 diagonalized for initial guess.
 HarFok:  IExCor= 4639 AccDes= 0.00D+00 IRadAn=         5 IDoV= 1 UseB2=F ITyADJ=14
 ICtDFT=  3500011 ScaDFX=  1.000000  1.000000  1.000000  1.000000
 FoFCou: FMM=F IPFlag=           0 FMFlag=      100000 FMFlg1=           0
         NFxFlg=           0 DoJE=T BraDBF=F KetDBF=T FulRan=T
         wScrn=  0.000000 ICntrl=       500 IOpCl=  0 I1Cent=   200000004 NGrid=           0
         NMat0=    1 NMatS0=      1 NMatT0=    0 NMatD0=    1 NMtDS0=    0 NMtDT0=    0
 Petite list used in FoFCou.
 Requested convergence on RMS density matrix=1.00D-08 within 128 cycles.
 Requested convergence on MAX density matrix=1.00D-06.
 Requested convergence on             energy=1.00D-06.
 No special actions if energy rises.
 Integral accuracy reduced to 1.0D-05 until final iterations.
 Initial convergence to 1.0D-05 achieved.  Increase integral accuracy.
 SCF Done:  E(RwB97XD) =  -668.616228697     A.U. after   16 cycles
            NFock= 16  Conv=0.49D-08     -V/T= 2.0098

 **********************************************************************

            Population analysis using the SCF Density.

 **********************************************************************

 Orbital symmetries:
       Occupied  (A) (A) (A) (A) (A) (A) (A) (A) (A) (A) (A) (A)
                 (A) (A) (A) (A) (A) (A) (A) (A) (A) (A) (A) (A)
                 (A) (A) (A) (A) (A) (A) (A) (A) (A) (A) (A) (A)
                 (A) (A) (A) (A) (A) (A) (A) (A) (A) (A) (A) (A)
                 (A) (A) (A) (A)
       Virtual   (A) (A) (A) (A) (A) (A) (A) (A) (A) (A) (A) (A)
                 (A) (A) (A) (A) (A) (A) (A) (A) (A) (A) (A) (A)
                 (A) (A) (A) (A) (A) (A) (A) (A) (A) (A) (A) (A)
                 (A) (A) (A) (A) (A) (A) (A) (A) (A) (A) (A) (A)
                 (A) (A) (A) (A) (A) (A) (A) (A) (A) (A) (A) (A)
                 (A) (A) (A) (A) (A) (A) (A) (A) (A) (A) (A) (A)
                 (A) (A) (A) (A) (A) (A) (A) (A) (A) (A) (A) (A)
                 (A) (A) (A) (A) (A) (A) (A) (A) (A) (A) (A) (A)
                 (A) (A) (A) (A) (A) (A) (A) (A) (A) (A) (A) (A)
                 (A) (A) (A) (A) (A) (A) (A) (A) (A) (A) (A) (A)
                 (A) (A) (A) (A) (A) (A) (A) (A) (A) (A) (A) (A)
                 (A) (A) (A) (A) (A) (A) (A) (A) (A) (A) (A) (A)
                 (A) (A) (A) (A) (A) (A) (A) (A) (A) (A) (A) (A)
                 (A) (A) (A) (A) (A) (A) (A) (A) (A) (A) (A) (A)
                 (A) (A) (A) (A) (A) (A) (A) (A) (A) (A) (A) (A)
                 (A) (A) (A) (A) (A) (A) (A) (A) (A) (A) (A) (A)
                 (A) (A) (A) (A) (A) (A) (A) (A) (A) (A) (A) (A)
                 (A) (A) (A) (A) (A)
 The electronic state is 1-A.
 Alpha  occ. eigenvalues --  -19.30737 -19.27986 -19.25034 -14.44365 -10.43880
 Alpha  occ. eigenvalues --  -10.38649 -10.36102 -10.35157 -10.34709 -10.34703
 Alpha  occ. eigenvalues --  -10.32431 -10.31380 -10.29933 -10.28868  -1.21095
 Alpha  occ. eigenvalues --   -1.16457  -1.11509  -1.04786  -0.91539  -0.88807
 Alpha  occ. eigenvalues --   -0.85850  -0.84668  -0.77385  -0.73979  -0.73231
 Alpha  occ. eigenvalues --   -0.69489  -0.65651  -0.64047  -0.61710  -0.60672
 Alpha  occ. eigenvalues --   -0.57994  -0.56677  -0.55604  -0.54955  -0.54130
 Alpha  occ. eigenvalues --   -0.53358  -0.52798  -0.49873  -0.48753  -0.47995
 Alpha  occ. eigenvalues --   -0.47517  -0.46921  -0.46199  -0.44487  -0.43380
 Alpha  occ. eigenvalues --   -0.42858  -0.39505  -0.37589  -0.36453  -0.35443
 Alpha  occ. eigenvalues --   -0.35237  -0.34133
 Alpha virt. eigenvalues --    0.01132   0.04256   0.11657   0.14672   0.15384
 Alpha virt. eigenvalues --    0.15889   0.18040   0.18353   0.18998   0.19828
 Alpha virt. eigenvalues --    0.20551   0.20705   0.22078   0.22460   0.22561
 Alpha virt. eigenvalues --    0.23326   0.23786   0.24659   0.25580   0.28290
 Alpha virt. eigenvalues --    0.29049   0.30880   0.32588   0.34513   0.35519
 Alpha virt. eigenvalues --    0.36577   0.39209   0.41243   0.42170   0.46051
 Alpha virt. eigenvalues --    0.47349   0.48605   0.49279   0.50383   0.51227
 Alpha virt. eigenvalues --    0.51274   0.52290   0.52582   0.54953   0.56028
 Alpha virt. eigenvalues --    0.57239   0.58391   0.58984   0.60596   0.60899
 Alpha virt. eigenvalues --    0.62698   0.65941   0.66868   0.67412   0.68040
 Alpha virt. eigenvalues --    0.68918   0.70060   0.71051   0.71975   0.72339
 Alpha virt. eigenvalues --    0.73190   0.73595   0.74437   0.74791   0.75075
 Alpha virt. eigenvalues --    0.75925   0.76288   0.76821   0.77259   0.77915
 Alpha virt. eigenvalues --    0.78454   0.79112   0.79660   0.80263   0.81101
 Alpha virt. eigenvalues --    0.81873   0.83688   0.85013   0.86825   0.89826
 Alpha virt. eigenvalues --    0.92692   0.94524   0.95776   0.98406   1.00468
 Alpha virt. eigenvalues --    1.02428   1.03967   1.07522   1.09635   1.12504
 Alpha virt. eigenvalues --    1.14617   1.15362   1.18258   1.19733   1.21046
 Alpha virt. eigenvalues --    1.23946   1.27871   1.28602   1.29777   1.31376
 Alpha virt. eigenvalues --    1.35164   1.35888   1.38160   1.40803   1.41950
 Alpha virt. eigenvalues --    1.43689   1.44650   1.45236   1.46424   1.47101
 Alpha virt. eigenvalues --    1.52366   1.53983   1.56888   1.58007   1.60893
 Alpha virt. eigenvalues --    1.61682   1.62182   1.68563   1.72269   1.73215
 Alpha virt. eigenvalues --    1.73946   1.77214   1.77944   1.79208   1.81864
 Alpha virt. eigenvalues --    1.82493   1.83361   1.83919   1.84904   1.85594
 Alpha virt. eigenvalues --    1.86030   1.86859   1.87103   1.87490   1.88117
 Alpha virt. eigenvalues --    1.89916   1.90544   1.91652   1.92445   1.93510
 Alpha virt. eigenvalues --    1.94349   1.95073   1.95731   1.97951   2.00018
 Alpha virt. eigenvalues --    2.01478   2.03061   2.03303   2.04747   2.05750
 Alpha virt. eigenvalues --    2.08365   2.10944   2.13685   2.14117   2.14465
 Alpha virt. eigenvalues --    2.18784   2.21424   2.24268   2.27113   2.28388
 Alpha virt. eigenvalues --    2.30948   2.33961   2.35793   2.37820   2.42040
 Alpha virt. eigenvalues --    2.43223   2.43825   2.45956   2.47196   2.47756
 Alpha virt. eigenvalues --    2.47972   2.51119   2.56689   2.57334   2.57542
 Alpha virt. eigenvalues --    2.59986   2.63450   2.65237   2.67912   2.69109
 Alpha virt. eigenvalues --    2.72358   2.72522   2.76934   2.77890   2.80394
 Alpha virt. eigenvalues --    2.83144   2.84658   2.86537   2.87987   2.89538
 Alpha virt. eigenvalues --    2.95816   2.97388   2.98063   2.99805   3.02775
 Alpha virt. eigenvalues --    3.03940   3.05105   3.05864   3.09114   3.10625
 Alpha virt. eigenvalues --    3.12316   3.13127   3.14217   3.16748   3.27824
 Alpha virt. eigenvalues --    3.30490   3.34438   3.42389   3.44756   3.53987
 Alpha virt. eigenvalues --    3.57643   3.68459   3.78462   3.82473
          Condensed to atoms (all electrons):
               1          2          3          4          5          6
     1  C    4.601184   0.446552  -0.036151  -0.007916  -0.008452  -0.002118
     2  C    0.446552   4.460503   0.248568  -0.032457   0.001354   0.008948
     3  O   -0.036151   0.248568   7.960702   0.421548  -0.080877  -0.155040
     4  C   -0.007916  -0.032457   0.421548   4.586352   0.696353   0.117791
     5  O   -0.008452   0.001354  -0.080877   0.696353   7.692760  -0.100713
     6  C   -0.002118   0.008948  -0.155040   0.117791  -0.100713   5.896121
     7  C    0.000141  -0.000214   0.015595  -0.034159   0.002340   0.390638
     8  N    0.000000   0.000005   0.000267   0.006467  -0.000008  -0.037532
     9  C   -0.000000   0.000002  -0.000042   0.000199  -0.000029  -0.054385
    10  C    0.000000   0.000005   0.000024   0.014165   0.000395  -0.071003
    11  C    0.000008   0.000147  -0.001876  -0.051248  -0.003087   0.312054
    12  O   -0.000004   0.000010   0.000014   0.006159  -0.004905  -0.095633
    13  C    0.000002   0.000006   0.000024  -0.003381   0.002814  -0.005245
    14  C    0.000000  -0.000002  -0.000006  -0.001478  -0.005586   0.001417
    15  H    0.383728  -0.016759   0.003555   0.000293  -0.000060   0.000053
    16  H    0.388412  -0.020708   0.001356   0.000026   0.000215  -0.000108
    17  H    0.395033  -0.015738  -0.005453   0.003915   0.008451   0.000050
    18  H   -0.029423   0.389281  -0.027785  -0.006711   0.017226   0.002384
    19  H   -0.025596   0.390206  -0.024074   0.004585   0.000385   0.000415
    20  H    0.000049  -0.000213   0.011546  -0.010333   0.000164  -0.060114
    21  H   -0.000000   0.000000  -0.000000   0.000061  -0.000000   0.000474
    22  H    0.000000  -0.000000   0.000001  -0.000123   0.000004   0.018635
    23  H   -0.000000   0.000000   0.000002   0.000916   0.000359  -0.003923
    24  H    0.000001  -0.000051   0.000049  -0.002494   0.012168   0.011163
    25  H   -0.000000   0.000000  -0.000000   0.000088  -0.000043  -0.000066
    26  H   -0.000008   0.000004   0.000017   0.000713   0.008377  -0.000659
    27  H   -0.000000  -0.000000  -0.000000  -0.000039   0.000035   0.000085
               7          8          9         10         11         12
     1  C    0.000141   0.000000  -0.000000   0.000000   0.000008  -0.000004
     2  C   -0.000214   0.000005   0.000002   0.000005   0.000147   0.000010
     3  O    0.015595   0.000267  -0.000042   0.000024  -0.001876   0.000014
     4  C   -0.034159   0.006467   0.000199   0.014165  -0.051248   0.006159
     5  O    0.002340  -0.000008  -0.000029   0.000395  -0.003087  -0.004905
     6  C    0.390638  -0.037532  -0.054385  -0.071003   0.312054  -0.095633
     7  C    4.728644   0.537735  -0.069110  -0.047764  -0.027087   0.003081
     8  N    0.537735   6.282751   0.513119  -0.034563  -0.055426  -0.000064
     9  C   -0.069110   0.513119   4.767581   0.403401   0.003448   0.005299
    10  C   -0.047764  -0.034563   0.403401   5.035108   0.489274  -0.064781
    11  C   -0.027087  -0.055426   0.003448   0.489274   4.797794   0.412827
    12  O    0.003081  -0.000064   0.005299  -0.064781   0.412827   7.929719
    13  C    0.000322   0.000025   0.000152  -0.009390  -0.039395   0.270737
    14  C    0.000032   0.000000   0.000016  -0.000262   0.002269  -0.047658
    15  H   -0.000002  -0.000000   0.000000   0.000000  -0.000002   0.000000
    16  H    0.000040   0.000000  -0.000000   0.000000  -0.000027   0.000000
    17  H   -0.000083   0.000000   0.000000  -0.000001   0.000115   0.000001
    18  H    0.000024   0.000001  -0.000000  -0.000001  -0.000122   0.000005
    19  H   -0.000295  -0.000003   0.000000  -0.000000   0.000024  -0.000000
    20  H    0.427356  -0.033774   0.004705   0.000670   0.005072  -0.000076
    21  H    0.004699  -0.038719   0.417938  -0.060036   0.006480  -0.000110
    22  H   -0.000332   0.005272  -0.046759   0.411784  -0.049956   0.000329
    23  H   -0.000007  -0.000006  -0.000662   0.006447   0.004826  -0.035315
    24  H   -0.001121  -0.000011   0.000235  -0.002099  -0.002618  -0.034386
    25  H   -0.000001   0.000000  -0.000001   0.000035   0.000046   0.003531
    26  H   -0.000001   0.000000  -0.000002   0.000016   0.000253   0.001754
    27  H   -0.000003  -0.000000   0.000003  -0.000060   0.000231   0.002334
              13         14         15         16         17         18
     1  C    0.000002   0.000000   0.383728   0.388412   0.395033  -0.029423
     2  C    0.000006  -0.000002  -0.016759  -0.020708  -0.015738   0.389281
     3  O    0.000024  -0.000006   0.003555   0.001356  -0.005453  -0.027785
     4  C   -0.003381  -0.001478   0.000293   0.000026   0.003915  -0.006711
     5  O    0.002814  -0.005586  -0.000060   0.000215   0.008451   0.017226
     6  C   -0.005245   0.001417   0.000053  -0.000108   0.000050   0.002384
     7  C    0.000322   0.000032  -0.000002   0.000040  -0.000083   0.000024
     8  N    0.000025   0.000000  -0.000000   0.000000   0.000000   0.000001
     9  C    0.000152   0.000016   0.000000  -0.000000   0.000000  -0.000000
    10  C   -0.009390  -0.000262   0.000000   0.000000  -0.000001  -0.000001
    11  C   -0.039395   0.002269  -0.000002  -0.000027   0.000115  -0.000122
    12  O    0.270737  -0.047658   0.000000   0.000000   0.000001   0.000005
    13  C    4.469179   0.430245  -0.000000  -0.000000  -0.000002  -0.000010
    14  C    0.430245   4.589959   0.000000   0.000000  -0.000003  -0.000000
    15  H   -0.000000   0.000000   0.620062  -0.017057  -0.017297  -0.001320
    16  H   -0.000000   0.000000  -0.017057   0.619896  -0.023415   0.007546
    17  H   -0.000002  -0.000003  -0.017297  -0.023415   0.594066  -0.010087
    18  H   -0.000010  -0.000000  -0.001320   0.007546  -0.010087   0.637545
    19  H   -0.000000  -0.000000  -0.003219  -0.009307   0.006448  -0.028638
    20  H   -0.000001  -0.000000  -0.000003   0.000024  -0.000005   0.000097
    21  H   -0.000005  -0.000000  -0.000000   0.000000   0.000000   0.000000
    22  H   -0.000642  -0.000233  -0.000000   0.000000  -0.000000   0.000000
    23  H    0.381097  -0.026436   0.000000  -0.000000  -0.000000   0.000000
    24  H    0.384534  -0.021704   0.000000   0.000000  -0.000003   0.000041
    25  H   -0.011409   0.374763  -0.000000  -0.000000   0.000000  -0.000000
    26  H   -0.017331   0.391033  -0.000000  -0.000000   0.000058  -0.000003
    27  H   -0.020915   0.389313  -0.000000  -0.000000   0.000000  -0.000000
              19         20         21         22         23         24
     1  C   -0.025596   0.000049  -0.000000   0.000000  -0.000000   0.000001
     2  C    0.390206  -0.000213   0.000000  -0.000000   0.000000  -0.000051
     3  O   -0.024074   0.011546  -0.000000   0.000001   0.000002   0.000049
     4  C    0.004585  -0.010333   0.000061  -0.000123   0.000916  -0.002494
     5  O    0.000385   0.000164  -0.000000   0.000004   0.000359   0.012168
     6  C    0.000415  -0.060114   0.000474   0.018635  -0.003923   0.011163
     7  C   -0.000295   0.427356   0.004699  -0.000332  -0.000007  -0.001121
     8  N   -0.000003  -0.033774  -0.038719   0.005272  -0.000006  -0.000011
     9  C    0.000000   0.004705   0.417938  -0.046759  -0.000662   0.000235
    10  C   -0.000000   0.000670  -0.060036   0.411784   0.006447  -0.002099
    11  C    0.000024   0.005072   0.006480  -0.049956   0.004826  -0.002618
    12  O   -0.000000  -0.000076  -0.000110   0.000329  -0.035315  -0.034386
    13  C   -0.000000  -0.000001  -0.000005  -0.000642   0.381097   0.384534
    14  C   -0.000000  -0.000000  -0.000000  -0.000233  -0.026436  -0.021704
    15  H   -0.003219  -0.000003  -0.000000  -0.000000   0.000000   0.000000
    16  H   -0.009307   0.000024   0.000000   0.000000  -0.000000   0.000000
    17  H    0.006448  -0.000005   0.000000  -0.000000  -0.000000  -0.000003
    18  H   -0.028638   0.000097   0.000000   0.000000   0.000000   0.000041
    19  H    0.642615  -0.000264   0.000000   0.000000  -0.000000   0.000001
    20  H   -0.000264   0.610338  -0.000283   0.000052  -0.000002   0.000022
    21  H    0.000000  -0.000283   0.633501  -0.006548   0.000018  -0.000005
    22  H    0.000000   0.000052  -0.006548   0.641088  -0.000340   0.000550
    23  H   -0.000000  -0.000002   0.000018  -0.000340   0.703314  -0.044886
    24  H    0.000001   0.000022  -0.000005   0.000550  -0.044886   0.672711
    25  H    0.000000   0.000000   0.000000   0.000007  -0.001773  -0.003506
    26  H    0.000000  -0.000000   0.000000  -0.000008   0.007988  -0.012026
    27  H    0.000000   0.000000  -0.000000   0.000075  -0.010841   0.008490
              25         26         27
     1  C   -0.000000  -0.000008  -0.000000
     2  C    0.000000   0.000004  -0.000000
     3  O   -0.000000   0.000017  -0.000000
     4  C    0.000088   0.000713  -0.000039
     5  O   -0.000043   0.008377   0.000035
     6  C   -0.000066  -0.000659   0.000085
     7  C   -0.000001  -0.000001  -0.000003
     8  N    0.000000   0.000000  -0.000000
     9  C   -0.000001  -0.000002   0.000003
    10  C    0.000035   0.000016  -0.000060
    11  C    0.000046   0.000253   0.000231
    12  O    0.003531   0.001754   0.002334
    13  C   -0.011409  -0.017331  -0.020915
    14  C    0.374763   0.391033   0.389313
    15  H   -0.000000  -0.000000  -0.000000
    16  H   -0.000000  -0.000000  -0.000000
    17  H    0.000000   0.000058   0.000000
    18  H   -0.000000  -0.000003  -0.000000
    19  H    0.000000   0.000000   0.000000
    20  H    0.000000  -0.000000   0.000000
    21  H    0.000000   0.000000  -0.000000
    22  H    0.000007  -0.000008   0.000075
    23  H   -0.001773   0.007988  -0.010841
    24  H   -0.003506  -0.012026   0.008490
    25  H    0.635023  -0.015766  -0.019266
    26  H   -0.015766   0.597729  -0.023572
    27  H   -0.019266  -0.023572   0.628517
 Mulliken charges:
               1
     1  C   -0.105441
     2  C    0.140550
     3  O   -0.331967
     4  C    0.290706
     5  O   -0.239641
     6  C   -0.173692
     7  C    0.069531
     8  N   -0.145537
     9  C    0.054892
    10  C   -0.071366
    11  C    0.195973
    12  O   -0.352868
    13  C    0.168590
    14  C   -0.075681
    15  H    0.048026
    16  H    0.053108
    17  H    0.063949
    18  H    0.049950
    19  H    0.046717
    20  H    0.044972
    21  H    0.042534
    22  H    0.027144
    23  H    0.019221
    24  H    0.034942
    25  H    0.038340
    26  H    0.061436
    27  H    0.045611
 Sum of Mulliken charges =  -0.00000
 Mulliken charges with hydrogens summed into heavy atoms:
               1
     1  C    0.059642
     2  C    0.237217
     3  O   -0.331967
     4  C    0.290706
     5  O   -0.239641
     6  C   -0.173692
     7  C    0.114503
     8  N   -0.145537
     9  C    0.097426
    10  C   -0.044222
    11  C    0.195973
    12  O   -0.352868
    13  C    0.222754
    14  C    0.069706
 Electronic spatial extent (au):  <R**2>=           3146.9882
 Charge=             -0.0000 electrons
 Dipole moment (field-independent basis, Debye):
    X=              0.5386    Y=              1.0016    Z=             -0.4945  Tot=              1.2401
 Quadrupole moment (field-independent basis, Debye-Ang):
   XX=            -66.5777   YY=            -88.6101   ZZ=            -82.7128
   XY=             -4.6426   XZ=             -0.5569   YZ=             -1.9155
 Traceless Quadrupole moment (field-independent basis, Debye-Ang):
   XX=             12.7225   YY=             -9.3099   ZZ=             -3.4126
   XY=             -4.6426   XZ=             -0.5569   YZ=             -1.9155
 Octapole moment (field-independent basis, Debye-Ang**2):
  XXX=             24.5267  YYY=             46.2994  ZZZ=             -2.5681  XYY=              5.2821
  XXY=             -4.7408  XXZ=              2.0837  XZZ=              7.8279  YZZ=              3.6365
  YYZ=             -0.4229  XYZ=              8.3548
 Hexadecapole moment (field-independent basis, Debye-Ang**3):
 XXXX=          -2071.1402 YYYY=          -1719.9120 ZZZZ=           -207.7589 XXXY=             14.4255
 XXXZ=            -37.8637 YYYX=            -77.1168 YYYZ=            -17.1213 ZZZX=             -6.0718
 ZZZY=             -0.8293 XXYY=           -643.5148 XXZZ=           -427.3393 YYZZ=           -305.1906
 XXYZ=             -8.0473 YYXZ=             -6.7090 ZZXY=            -10.3551
 N-N= 9.047165667297D+02 E-N=-3.366933957176D+03  KE= 6.621414936589D+02
   1 Symmetry operations used in ECPInt.
 ECPInt:  NShTT=    7626 NPrTT=   27482 LenC2=    7221 LenP2D=   18812.
 LDataN:  DoStor=T MaxTD1= 5 Len=  102
 Calling FoFJK, ICntrl=      2127 FMM=F ISym2X=0 I1Cent= 0 IOpClX= 0 NMat=1 NMatS=1 NMatT=0.
 ***** Axes restored to original set *****
 -------------------------------------------------------------------
 Center     Atomic                   Forces (Hartrees/Bohr)
 Number     Number              X              Y              Z
 -------------------------------------------------------------------
      1        6           0.000004271   -0.000003970   -0.000001306
      2        6           0.000006450    0.000003016    0.000001639
      3        8          -0.000000581   -0.000001554   -0.000000607
      4        6          -0.000001350    0.000001707    0.000004167
      5        8          -0.000001356    0.000001083   -0.000000171
      6        6          -0.000000176   -0.000003162   -0.000005191
      7        6           0.000000927    0.000003576    0.000003197
      8        7          -0.000004530    0.000001710   -0.000001084
      9        6           0.000006745   -0.000008527   -0.000002815
     10        6          -0.000005237    0.000009361    0.000000950
     11        6           0.000001313    0.000001309    0.000001239
     12        8          -0.000000234    0.000003729   -0.000004040
     13        6           0.000001244   -0.000006558    0.000004132
     14        6           0.000003739    0.000000065    0.000001396
     15        1          -0.000004002   -0.000000785    0.000001973
     16        1           0.000000232    0.000000848    0.000000528
     17        1          -0.000000868    0.000000525    0.000000150
     18        1          -0.000000221   -0.000000864   -0.000000049
     19        1          -0.000001553    0.000001300    0.000000573
     20        1          -0.000002265   -0.000001568   -0.000001241
     21        1          -0.000001209    0.000000777   -0.000000425
     22        1           0.000003360   -0.000003204   -0.000002059
     23        1          -0.000001614    0.000000090   -0.000000988
     24        1          -0.000000662    0.000001454   -0.000000983
     25        1           0.000001056   -0.000001832    0.000002798
     26        1          -0.000004942    0.000001825   -0.000000318
     27        1           0.000001461   -0.000000351   -0.000001465
 -------------------------------------------------------------------
 Cartesian Forces:  Max     0.000009361 RMS     0.000002886

 GradGradGradGradGradGradGradGradGradGradGradGradGradGradGradGradGradGrad
 Berny optimization.
 FormGI is forming the generalized inverse of G from B-inverse, IUseBI=4.
 Internal  Forces:  Max     0.000006075 RMS     0.000001744
 Search for a local minimum.
 Step number   1 out of a maximum of  134
 All quantities printed in internal units (Hartrees-Bohrs-Radians)
 Mixed Optimization -- En-DIIS/RFO-DIIS
 Second derivative matrix not updated -- first step.
 ITU=  0
     Eigenvalues ---    0.00559   0.00649   0.00868   0.01305   0.01343
     Eigenvalues ---    0.01402   0.01652   0.02025   0.02122   0.02177
     Eigenvalues ---    0.02198   0.02240   0.02339   0.02425   0.02508
     Eigenvalues ---    0.02528   0.05018   0.05434   0.05690   0.05696
     Eigenvalues ---    0.05813   0.05828   0.05881   0.05917   0.11286
     Eigenvalues ---    0.11729   0.13654   0.13898   0.15999   0.16000
     Eigenvalues ---    0.16000   0.16000   0.16000   0.16000   0.16000
     Eigenvalues ---    0.16000   0.16000   0.21988   0.22056   0.22337
     Eigenvalues ---    0.23247   0.24564   0.24959   0.24991   0.24999
     Eigenvalues ---    0.25000   0.25000   0.25000   0.30786   0.31464
     Eigenvalues ---    0.33051   0.33197   0.33587   0.33691   0.33718
     Eigenvalues ---    0.33721   0.33730   0.33730   0.33830   0.33858
     Eigenvalues ---    0.33893   0.34183   0.34406   0.34716   0.41100
     Eigenvalues ---    0.41519   0.41750   0.43004   0.45395   0.46673
     Eigenvalues ---    0.56190   0.56878   0.57924   0.58872   1.01887
 RFO step:  Lambda= 0.00000000D+00 EMin= 5.58515709D-03
 Linear search not attempted -- first point.
 Iteration  1 RMS(Cart)=  0.00010778 RMS(Int)=  0.00000000
 Iteration  2 RMS(Cart)=  0.00000001 RMS(Int)=  0.00000000
 Variable       Old X    -DE/DX   Delta X   Delta X   Delta X     New X
                                 (Linear)    (Quad)   (Total)
    R1        2.86422  -0.00000   0.00000  -0.00001  -0.00001   2.86422
    R2        2.07855  -0.00000   0.00000  -0.00001  -0.00001   2.07853
    R3        2.07788  -0.00000   0.00000  -0.00000  -0.00000   2.07788
    R4        2.07618   0.00000   0.00000   0.00000   0.00000   2.07618
    R5        2.70085   0.00000   0.00000   0.00001   0.00001   2.70086
    R6        2.07808  -0.00000   0.00000  -0.00000  -0.00000   2.07808
    R7        2.07511  -0.00000   0.00000  -0.00001  -0.00001   2.07511
    R8        2.52622   0.00000   0.00000   0.00001   0.00001   2.52623
    R9        2.27892   0.00000   0.00000   0.00000   0.00000   2.27893
   R10        2.82007   0.00000   0.00000   0.00000   0.00000   2.82008
   R11        2.65236  -0.00000   0.00000  -0.00000  -0.00000   2.65236
   R12        2.66278   0.00000   0.00000   0.00000   0.00000   2.66278
   R13        2.50708   0.00000   0.00000   0.00000   0.00000   2.50708
   R14        2.06650  -0.00000   0.00000  -0.00000  -0.00000   2.06649
   R15        2.51922  -0.00001   0.00000  -0.00001  -0.00001   2.51921
   R16        2.62639   0.00000   0.00000   0.00001   0.00001   2.62640
   R17        2.07023   0.00000   0.00000   0.00000   0.00000   2.07023
   R18        2.64007  -0.00000   0.00000  -0.00000  -0.00000   2.64007
   R19        2.06138  -0.00000   0.00000  -0.00001  -0.00001   2.06136
   R20        2.54090  -0.00000   0.00000  -0.00000  -0.00000   2.54090
   R21        2.69540  -0.00001   0.00000  -0.00001  -0.00001   2.69539
   R22        2.85137   0.00000   0.00000   0.00000   0.00000   2.85137
   R23        2.08962   0.00000   0.00000   0.00001   0.00001   2.08963
   R24        2.08033  -0.00000   0.00000  -0.00000  -0.00000   2.08033
   R25        2.07787  -0.00000   0.00000  -0.00001  -0.00001   2.07786
   R26        2.07570  -0.00000   0.00000  -0.00001  -0.00001   2.07568
   R27        2.07804  -0.00000   0.00000  -0.00001  -0.00001   2.07804
    A1        1.91612   0.00000   0.00000   0.00001   0.00001   1.91613
    A2        1.93343   0.00000   0.00000   0.00001   0.00001   1.93344
    A3        1.93136  -0.00000   0.00000  -0.00001  -0.00001   1.93134
    A4        1.89114  -0.00000   0.00000  -0.00000  -0.00000   1.89114
    A5        1.88908  -0.00000   0.00000  -0.00001  -0.00001   1.88908
    A6        1.90168  -0.00000   0.00000  -0.00000  -0.00000   1.90168
    A7        1.94831   0.00000   0.00000   0.00000   0.00000   1.94831
    A8        1.93627   0.00000   0.00000   0.00001   0.00001   1.93628
    A9        1.94303   0.00000   0.00000  -0.00000  -0.00000   1.94303
   A10        1.90352  -0.00000   0.00000  -0.00000  -0.00000   1.90352
   A11        1.82657  -0.00000   0.00000  -0.00001  -0.00001   1.82656
   A12        1.90250  -0.00000   0.00000  -0.00000  -0.00000   1.90250
   A13        2.05120   0.00000   0.00000   0.00002   0.00002   2.05122
   A14        2.14951   0.00000   0.00000   0.00000   0.00000   2.14951
   A15        1.94430   0.00000   0.00000   0.00001   0.00001   1.94431
   A16        2.18930  -0.00000   0.00000  -0.00001  -0.00001   2.18929
   A17        2.10273   0.00000   0.00000   0.00002   0.00002   2.10275
   A18        2.12934  -0.00000   0.00000  -0.00002  -0.00002   2.12932
   A19        2.05079  -0.00000   0.00000  -0.00000  -0.00000   2.05079
   A20        2.17345   0.00000   0.00000   0.00000   0.00000   2.17345
   A21        2.07034   0.00000   0.00000   0.00002   0.00002   2.07036
   A22        2.03939  -0.00000   0.00000  -0.00002  -0.00002   2.03937
   A23        2.04686   0.00000   0.00000  -0.00000  -0.00000   2.04686
   A24        2.15790   0.00000   0.00000   0.00000   0.00000   2.15791
   A25        2.03284   0.00000   0.00000   0.00001   0.00001   2.03285
   A26        2.09243  -0.00000   0.00000  -0.00001  -0.00001   2.09242
   A27        2.07933  -0.00000   0.00000  -0.00000  -0.00000   2.07932
   A28        2.12324  -0.00000   0.00000  -0.00000  -0.00000   2.12324
   A29        2.08056   0.00000   0.00000   0.00001   0.00001   2.08056
   A30        2.05787   0.00000   0.00000   0.00000   0.00000   2.05788
   A31        2.14285   0.00000   0.00000   0.00000   0.00000   2.14285
   A32        2.08120  -0.00000   0.00000  -0.00000  -0.00000   2.08119
   A33        2.04297  -0.00000   0.00000  -0.00001  -0.00001   2.04296
   A34        1.88764  -0.00000   0.00000  -0.00001  -0.00001   1.88763
   A35        1.89774   0.00000   0.00000   0.00000   0.00000   1.89774
   A36        1.91097   0.00000   0.00000   0.00002   0.00002   1.91099
   A37        1.94630   0.00000   0.00000  -0.00000  -0.00000   1.94630
   A38        1.92716  -0.00000   0.00000  -0.00000  -0.00000   1.92716
   A39        1.89367  -0.00000   0.00000  -0.00001  -0.00001   1.89366
   A40        1.92240  -0.00000   0.00000  -0.00000  -0.00000   1.92240
   A41        1.91201   0.00000   0.00000   0.00002   0.00002   1.91203
   A42        1.93304   0.00000   0.00000   0.00000   0.00000   1.93304
   A43        1.89995  -0.00000   0.00000  -0.00001  -0.00001   1.89995
   A44        1.89482  -0.00000   0.00000  -0.00000  -0.00000   1.89482
   A45        1.90113  -0.00000   0.00000  -0.00001  -0.00001   1.90112
    D1        3.06361   0.00000   0.00000   0.00001   0.00001   3.06362
    D2       -1.09259   0.00000   0.00000   0.00001   0.00001  -1.09258
    D3        1.02942   0.00000   0.00000   0.00002   0.00002   1.02944
    D4        0.97565  -0.00000   0.00000  -0.00000  -0.00000   0.97565
    D5        3.10263  -0.00000   0.00000   0.00000   0.00000   3.10264
    D6       -1.05854   0.00000   0.00000   0.00001   0.00001  -1.05853
    D7       -1.13546  -0.00000   0.00000  -0.00000  -0.00000  -1.13547
    D8        0.99152  -0.00000   0.00000   0.00000   0.00000   0.99152
    D9        3.11353   0.00000   0.00000   0.00001   0.00001   3.11354
   D10        1.45190   0.00000   0.00000   0.00005   0.00005   1.45195
   D11       -0.69386  -0.00000   0.00000   0.00003   0.00003  -0.69383
   D12       -2.72751   0.00000   0.00000   0.00004   0.00004  -2.72747
   D13       -0.00569   0.00000   0.00000   0.00004   0.00004  -0.00564
   D14        3.12328  -0.00000   0.00000  -0.00003  -0.00003   3.12325
   D15       -0.32956   0.00000   0.00000   0.00012   0.00012  -0.32944
   D16        2.78375   0.00000   0.00000   0.00007   0.00007   2.78382
   D17        2.79906   0.00000   0.00000   0.00004   0.00004   2.79911
   D18       -0.37082  -0.00000   0.00000  -0.00000  -0.00000  -0.37082
   D19        3.13178  -0.00000   0.00000  -0.00003  -0.00003   3.13175
   D20       -0.01327  -0.00000   0.00000  -0.00006  -0.00006  -0.01333
   D21        0.01724   0.00000   0.00000   0.00002   0.00002   0.01725
   D22       -3.12781  -0.00000   0.00000  -0.00002  -0.00002  -3.12783
   D23       -3.11696   0.00000   0.00000   0.00004   0.00004  -3.11692
   D24       -0.02995   0.00000   0.00000   0.00007   0.00007  -0.02988
   D25       -0.00285   0.00000   0.00000  -0.00000  -0.00000  -0.00285
   D26        3.08416   0.00000   0.00000   0.00003   0.00003   3.08419
   D27       -0.01962  -0.00000   0.00000  -0.00003  -0.00003  -0.01964
   D28        3.12538   0.00000   0.00000   0.00001   0.00001   3.12538
   D29        0.00797   0.00000   0.00000   0.00003   0.00003   0.00800
   D30       -3.13047   0.00000   0.00000   0.00001   0.00001  -3.13046
   D31        0.00527  -0.00000   0.00000  -0.00002  -0.00002   0.00525
   D32       -3.12422  -0.00000   0.00000  -0.00002  -0.00002  -3.12424
   D33       -3.13957  -0.00000   0.00000  -0.00000  -0.00000  -3.13958
   D34        0.01412  -0.00000   0.00000   0.00000   0.00000   0.01412
   D35       -0.00742   0.00000   0.00000   0.00001   0.00001  -0.00742
   D36       -3.09642  -0.00000   0.00000  -0.00002  -0.00002  -3.09644
   D37        3.12237   0.00000   0.00000   0.00000   0.00000   3.12238
   D38        0.03338  -0.00000   0.00000  -0.00003  -0.00003   0.03335
   D39        1.49475   0.00000   0.00000   0.00005   0.00005   1.49480
   D40       -1.70213   0.00000   0.00000   0.00008   0.00008  -1.70205
   D41       -2.87975   0.00000   0.00000   0.00000   0.00000  -2.87975
   D42        1.28727   0.00000   0.00000   0.00001   0.00001   1.28728
   D43       -0.77898  -0.00000   0.00000   0.00001   0.00001  -0.77898
   D44       -3.10114   0.00000   0.00000  -0.00000  -0.00000  -3.10115
   D45        1.09267   0.00000   0.00000  -0.00000  -0.00000   1.09267
   D46       -1.00480   0.00000   0.00000  -0.00001  -0.00001  -1.00480
   D47       -1.01533   0.00000   0.00000  -0.00001  -0.00001  -1.01534
   D48       -3.10471   0.00000   0.00000  -0.00001  -0.00001  -3.10471
   D49        1.08101  -0.00000   0.00000  -0.00001  -0.00001   1.08100
   D50        1.09142  -0.00000   0.00000  -0.00002  -0.00002   1.09141
   D51       -0.99795  -0.00000   0.00000  -0.00002  -0.00002  -0.99796
   D52       -3.09541  -0.00000   0.00000  -0.00002  -0.00002  -3.09543
         Item               Value     Threshold  Converged?
 Maximum Force            0.000006     0.000450     YES
 RMS     Force            0.000002     0.000300     YES
 Maximum Displacement     0.000425     0.001800     YES
 RMS     Displacement     0.000108     0.001200     YES
 Predicted change in Energy=-1.083671D-09
 Optimization completed.
    -- Stationary point found.
                           ----------------------------
                           !   Optimized Parameters   !
                           ! (Angstroms and Degrees)  !
 --------------------------                            --------------------------
 ! Name  Definition              Value          Derivative Info.                !
 --------------------------------------------------------------------------------
 ! R1    R(1,2)                  1.5157         -DE/DX =    0.0                 !
 ! R2    R(1,15)                 1.0999         -DE/DX =    0.0                 !
 ! R3    R(1,16)                 1.0996         -DE/DX =    0.0                 !
 ! R4    R(1,17)                 1.0987         -DE/DX =    0.0                 !
 ! R5    R(2,3)                  1.4292         -DE/DX =    0.0                 !
 ! R6    R(2,18)                 1.0997         -DE/DX =    0.0                 !
 ! R7    R(2,19)                 1.0981         -DE/DX =    0.0                 !
 ! R8    R(3,4)                  1.3368         -DE/DX =    0.0                 !
 ! R9    R(4,5)                  1.206          -DE/DX =    0.0                 !
 ! R10   R(4,6)                  1.4923         -DE/DX =    0.0                 !
 ! R11   R(6,7)                  1.4036         -DE/DX =    0.0                 !
 ! R12   R(6,11)                 1.4091         -DE/DX =    0.0                 !
 ! R13   R(7,8)                  1.3267         -DE/DX =    0.0                 !
 ! R14   R(7,20)                 1.0935         -DE/DX =    0.0                 !
 ! R15   R(8,9)                  1.3331         -DE/DX =    0.0                 !
 ! R16   R(9,10)                 1.3898         -DE/DX =    0.0                 !
 ! R17   R(9,21)                 1.0955         -DE/DX =    0.0                 !
 ! R18   R(10,11)                1.3971         -DE/DX =    0.0                 !
 ! R19   R(10,22)                1.0908         -DE/DX =    0.0                 !
 ! R20   R(11,12)                1.3446         -DE/DX =    0.0                 !
 ! R21   R(12,13)                1.4263         -DE/DX =    0.0                 !
 ! R22   R(13,14)                1.5089         -DE/DX =    0.0                 !
 ! R23   R(13,23)                1.1058         -DE/DX =    0.0                 !
 ! R24   R(13,24)                1.1009         -DE/DX =    0.0                 !
 ! R25   R(14,25)                1.0996         -DE/DX =    0.0                 !
 ! R26   R(14,26)                1.0984         -DE/DX =    0.0                 !
 ! R27   R(14,27)                1.0997         -DE/DX =    0.0                 !
 ! A1    A(2,1,15)             109.7856         -DE/DX =    0.0                 !
 ! A2    A(2,1,16)             110.7772         -DE/DX =    0.0                 !
 ! A3    A(2,1,17)             110.6585         -DE/DX =    0.0                 !
 ! A4    A(15,1,16)            108.3545         -DE/DX =    0.0                 !
 ! A5    A(15,1,17)            108.2366         -DE/DX =    0.0                 !
 ! A6    A(16,1,17)            108.9584         -DE/DX =    0.0                 !
 ! A7    A(1,2,3)              111.6298         -DE/DX =    0.0                 !
 ! A8    A(1,2,18)             110.9401         -DE/DX =    0.0                 !
 ! A9    A(1,2,19)             111.3275         -DE/DX =    0.0                 !
 ! A10   A(3,2,18)             109.0639         -DE/DX =    0.0                 !
 ! A11   A(3,2,19)             104.6546         -DE/DX =    0.0                 !
 ! A12   A(18,2,19)            109.0054         -DE/DX =    0.0                 !
 ! A13   A(2,3,4)              117.5252         -DE/DX =    0.0                 !
 ! A14   A(3,4,5)              123.1577         -DE/DX =    0.0                 !
 ! A15   A(3,4,6)              111.4003         -DE/DX =    0.0                 !
 ! A16   A(5,4,6)              125.4377         -DE/DX =    0.0                 !
 ! A17   A(4,6,7)              120.4774         -DE/DX =    0.0                 !
 ! A18   A(4,6,11)             122.0019         -DE/DX =    0.0                 !
 ! A19   A(7,6,11)             117.5018         -DE/DX =    0.0                 !
 ! A20   A(6,7,8)              124.5294         -DE/DX =    0.0                 !
 ! A21   A(6,7,20)             118.622          -DE/DX =    0.0                 !
 ! A22   A(8,7,20)             116.8484         -DE/DX =    0.0                 !
 ! A23   A(7,8,9)              117.2767         -DE/DX =    0.0                 !
 ! A24   A(8,9,10)             123.6388         -DE/DX =    0.0                 !
 ! A25   A(8,9,21)             116.4733         -DE/DX =    0.0                 !
 ! A26   A(10,9,21)            119.8876         -DE/DX =    0.0                 !
 ! A27   A(9,10,11)            119.1366         -DE/DX =    0.0                 !
 ! A28   A(9,10,22)            121.6528         -DE/DX =    0.0                 !
 ! A29   A(11,10,22)           119.2071         -DE/DX =    0.0                 !
 ! A30   A(6,11,10)            117.9074         -DE/DX =    0.0                 !
 ! A31   A(6,11,12)            122.7761         -DE/DX =    0.0                 !
 ! A32   A(10,11,12)           119.2437         -DE/DX =    0.0                 !
 ! A33   A(11,12,13)           117.0536         -DE/DX =    0.0                 !
 ! A34   A(12,13,14)           108.1536         -DE/DX =    0.0                 !
 ! A35   A(12,13,23)           108.7327         -DE/DX =    0.0                 !
 ! A36   A(12,13,24)           109.4905         -DE/DX =    0.0                 !
 ! A37   A(14,13,23)           111.5149         -DE/DX =    0.0                 !
 ! A38   A(14,13,24)           110.4181         -DE/DX =    0.0                 !
 ! A39   A(23,13,24)           108.4993         -DE/DX =    0.0                 !
 ! A40   A(13,14,25)           110.1454         -DE/DX =    0.0                 !
 ! A41   A(13,14,26)           109.5502         -DE/DX =    0.0                 !
 ! A42   A(13,14,27)           110.755          -DE/DX =    0.0                 !
 ! A43   A(25,14,26)           108.8593         -DE/DX =    0.0                 !
 ! A44   A(25,14,27)           108.5652         -DE/DX =    0.0                 !
 ! A45   A(26,14,27)           108.9265         -DE/DX =    0.0                 !
 ! D1    D(15,1,2,3)           175.532          -DE/DX =    0.0                 !
 ! D2    D(15,1,2,18)          -62.601          -DE/DX =    0.0                 !
 ! D3    D(15,1,2,19)           58.9817         -DE/DX =    0.0                 !
 ! D4    D(16,1,2,3)            55.9007         -DE/DX =    0.0                 !
 ! D5    D(16,1,2,18)          177.7677         -DE/DX =    0.0                 !
 ! D6    D(16,1,2,19)          -60.6497         -DE/DX =    0.0                 !
 ! D7    D(17,1,2,3)           -65.0573         -DE/DX =    0.0                 !
 ! D8    D(17,1,2,18)           56.8097         -DE/DX =    0.0                 !
 ! D9    D(17,1,2,19)          178.3923         -DE/DX =    0.0                 !
 ! D10   D(1,2,3,4)             83.1879         -DE/DX =    0.0                 !
 ! D11   D(18,2,3,4)           -39.755          -DE/DX =    0.0                 !
 ! D12   D(19,2,3,4)          -156.2749         -DE/DX =    0.0                 !
 ! D13   D(2,3,4,5)             -0.3258         -DE/DX =    0.0                 !
 ! D14   D(2,3,4,6)            178.9509         -DE/DX =    0.0                 !
 ! D15   D(3,4,6,7)            -18.8823         -DE/DX =    0.0                 !
 ! D16   D(3,4,6,11)           159.4969         -DE/DX =    0.0                 !
 ! D17   D(5,4,6,7)            160.3746         -DE/DX =    0.0                 !
 ! D18   D(5,4,6,11)           -21.2462         -DE/DX =    0.0                 !
 ! D19   D(4,6,7,8)            179.438          -DE/DX =    0.0                 !
 ! D20   D(4,6,7,20)            -0.7601         -DE/DX =    0.0                 !
 ! D21   D(11,6,7,8)             0.9876         -DE/DX =    0.0                 !
 ! D22   D(11,6,7,20)         -179.2105         -DE/DX =    0.0                 !
 ! D23   D(4,6,11,10)         -178.5884         -DE/DX =    0.0                 !
 ! D24   D(4,6,11,12)           -1.7159         -DE/DX =    0.0                 !
 ! D25   D(7,6,11,10)           -0.1633         -DE/DX =    0.0                 !
 ! D26   D(7,6,11,12)          176.7093         -DE/DX =    0.0                 !
 ! D27   D(6,7,8,9)             -1.124          -DE/DX =    0.0                 !
 ! D28   D(20,7,8,9)           179.071          -DE/DX =    0.0                 !
 ! D29   D(7,8,9,10)             0.4566         -DE/DX =    0.0                 !
 ! D30   D(7,8,9,21)          -179.3628         -DE/DX =    0.0                 !
 ! D31   D(8,9,10,11)            0.3021         -DE/DX =    0.0                 !
 ! D32   D(8,9,10,22)         -179.0047         -DE/DX =    0.0                 !
 ! D33   D(21,9,10,11)        -179.8844         -DE/DX =    0.0                 !
 ! D34   D(21,9,10,22)           0.8088         -DE/DX =    0.0                 !
 ! D35   D(9,10,11,6)           -0.4252         -DE/DX =    0.0                 !
 ! D36   D(9,10,11,12)        -177.4116         -DE/DX =    0.0                 !
 ! D37   D(22,10,11,6)         178.8988         -DE/DX =    0.0                 !
 ! D38   D(22,10,11,12)          1.9124         -DE/DX =    0.0                 !
 ! D39   D(6,11,12,13)          85.6426         -DE/DX =    0.0                 !
 ! D40   D(10,11,12,13)        -97.5249         -DE/DX =    0.0                 !
 ! D41   D(11,12,13,14)       -164.9976         -DE/DX =    0.0                 !
 ! D42   D(11,12,13,23)         73.755          -DE/DX =    0.0                 !
 ! D43   D(11,12,13,24)        -44.6324         -DE/DX =    0.0                 !
 ! D44   D(12,13,14,25)       -177.6824         -DE/DX =    0.0                 !
 ! D45   D(12,13,14,26)         62.6055         -DE/DX =    0.0                 !
 ! D46   D(12,13,14,27)        -57.5705         -DE/DX =    0.0                 !
 ! D47   D(23,13,14,25)        -58.1744         -DE/DX =    0.0                 !
 ! D48   D(23,13,14,26)       -177.8865         -DE/DX =    0.0                 !
 ! D49   D(23,13,14,27)         61.9375         -DE/DX =    0.0                 !
 ! D50   D(24,13,14,25)         62.534          -DE/DX =    0.0                 !
 ! D51   D(24,13,14,26)        -57.1781         -DE/DX =    0.0                 !
 ! D52   D(24,13,14,27)       -177.3541         -DE/DX =    0.0                 !
 --------------------------------------------------------------------------------
 GradGradGradGradGradGradGradGradGradGradGradGradGradGradGradGradGradGrad

                          Input orientation:                          
 ---------------------------------------------------------------------
 Center     Atomic      Atomic             Coordinates (Angstroms)
 Number     Number       Type             X           Y           Z
 ---------------------------------------------------------------------
      1          6           0        3.930530    0.155350    0.920270
      2          6           0        3.381740   -0.397060   -0.380100
      3          8           0        2.059950   -0.915400   -0.216130
      4          6           0        1.044840   -0.047200   -0.269620
      5          8           0        1.197720    1.136540   -0.442000
      6          6           0       -0.269390   -0.735420   -0.107850
      7          6           0       -0.379720   -2.118380   -0.320590
      8          7           0       -1.502880   -2.812190   -0.189270
      9          6           0       -2.592120   -2.144940    0.192210
     10          6           0       -2.608610   -0.778500    0.445560
     11          6           0       -1.430210   -0.043940    0.291980
     12          8           0       -1.430770    1.267910    0.586870
     13          6           0       -1.591420    2.177150   -0.500300
     14          6           0       -1.197180    3.553590   -0.024170
     15          1           0        4.974370    0.472070    0.779170
     16          1           0        3.904340   -0.608730    1.710550
     17          1           0        3.347870    1.027420    1.247490
     18          1           0        3.369850    0.376370   -1.161730
     19          1           0        3.973810   -1.252230   -0.732190
     20          1           0        0.512890   -2.675390   -0.618620
     21          1           0       -3.509590   -2.732520    0.306920
     22          1           0       -3.515550   -0.267710    0.771860
     23          1           0       -2.645480    2.149720   -0.833400
     24          1           0       -0.951660    1.863140   -1.339350
     25          1           0       -1.348240    4.289670   -0.826920
     26          1           0       -0.136880    3.553610    0.262660
     27          1           0       -1.801580    3.853520    0.844150
 ---------------------------------------------------------------------
                    Distance matrix (angstroms):
                    1          2          3          4          5
     1  C    0.000000
     2  C    1.515681   0.000000
     3  O    2.436592   1.429228   0.000000
     4  C    3.127950   2.365525   1.336817   0.000000
     5  O    3.207299   2.669401   2.237167   1.205955   0.000000
     6  C    4.414729   3.676868   2.338791   1.492319   2.401729
     7  C    5.028701   4.137036   2.722143   2.514310   3.619055
     8  N    6.289620   5.452411   4.036371   3.760652   4.790572
     9  C    6.954593   6.250570   4.829106   4.223894   5.053041
    10  C    6.622520   6.059002   4.717206   3.793940   4.352389
    11  C    5.401111   4.871473   3.633020   2.537967   2.972924
    12  O    5.485662   5.183378   4.194851   2.931166   2.825737
    13  C    6.049597   5.601190   4.793446   3.456995   2.977511
    14  C    6.223617   6.058121   5.533319   4.248834   3.428157
    15  H    1.099919   2.153082   3.377801   4.100099   4.024408
    16  H    1.099567   2.165348   2.684756   3.523227   3.873659
    17  H    1.098668   2.163178   2.752357   2.959794   2.736682
    18  H    2.167472   1.099673   2.068494   2.526053   2.411228
    19  H    2.171124   1.098103   2.010630   3.200771   3.673841
    20  H    4.696971   3.671237   2.377595   2.704100   3.876983
    21  H    8.004460   7.308680   5.881775   5.318475   6.139159
    22  H    7.459565   6.994023   5.699283   4.682997   5.065599
    23  H    7.092022   6.558883   5.649518   4.331601   3.993734
    24  H    5.644308   4.980665   4.248730   2.963061   2.439881
    25  H    6.928974   6.673664   6.251526   4.984562   4.070910
    26  H    5.340828   5.329317   5.002734   3.826959   2.849549
    27  H    6.821975   6.814178   6.227215   4.955624   4.246406
                    6          7          8          9         10
     6  C    0.000000
     7  C    1.403570   0.000000
     8  N    2.416837   1.326690   0.000000
     9  C    2.733470   2.271207   1.333114   0.000000
    10  C    2.404177   2.711128   2.400321   1.389826   0.000000
    11  C    1.409082   2.404594   2.810710   2.402954   1.397065
    12  O    2.417596   3.659938   4.153891   3.626574   2.365390
    13  C    3.222552   4.466776   4.999809   4.490148   3.265761
    14  C    4.389009   5.738236   6.375254   5.870768   4.580369
    15  H    5.453609   6.048651   7.326596   8.027766   7.692646
    16  H    4.554410   4.975715   6.140243   6.846115   6.636832
    17  H    4.246071   5.123462   6.351115   6.816228   6.275675
    18  H    3.948520   4.581547   5.903905   6.613263   6.297546
    19  H    4.319912   4.457898   5.720347   6.690507   6.703713
    20  H    2.153214   1.093542   2.065523   3.252677   3.804528
    21  H    3.828752   3.250696   2.068680   1.095518   2.156196
    22  H    3.395614   3.801560   3.383636   2.170878   1.090834
    23  H    3.807395   4.859354   5.132347   4.415748   3.195555
    24  H    2.955435   4.149396   4.846157   4.593636   3.593000
    25  H    5.189654   6.500577   7.132105   6.632501   5.375322
    26  H    4.307042   5.707068   6.526378   6.205372   4.991000
    27  H    4.930748   6.248351   6.751953   6.085351   4.718663
                   11         12         13         14         15
    11  C    0.000000
    12  O    1.344586   0.000000
    13  C    2.363670   1.426347   0.000000
    14  C    3.618905   2.377450   1.508878   0.000000
    15  H    6.443777   6.457256   6.903183   6.944721   0.000000
    16  H    5.548761   5.766093   6.546172   6.808793   1.783413
    17  H    4.989074   4.830078   5.364069   5.353142   1.781359
    18  H    5.032942   5.186367   5.319257   5.678603   2.520067
    19  H    5.631369   6.107414   6.541117   7.094810   2.501707
    20  H    3.395491   4.558578   5.290488   6.486748   5.636056
    21  H    3.398898   4.517002   5.332527   6.706120   9.081299
    22  H    2.151511   2.595892   3.361251   4.539916   8.522093
    23  H    2.748728   2.066465   1.105780   2.173310   7.967246
    24  H    2.554839   2.072238   1.100863   2.155829   6.445233
    25  H    4.476475   3.337161   2.151408   1.099564   7.558372
    26  H    3.823078   2.646448   2.142997   1.098411   5.990622
    27  H    3.953859   2.624704   2.159150   1.099653   7.573105
                   16         17         18         19         20
    16  H    0.000000
    17  H    1.789154   0.000000
    18  H    3.083195   2.495734   0.000000
    19  H    2.527033   3.083462   1.789304   0.000000
    20  H    4.604134   5.022975   4.215499   3.743828   0.000000
    21  H    7.838815   7.876965   7.690827   7.698850   4.127982
    22  H    7.486802   7.000723   7.180692   7.702075   4.894761
    23  H    7.548567   6.442818   6.279870   7.443017   5.770885
    24  H    6.244419   5.086858   4.573563   5.859559   4.823133
    25  H    7.617262   6.082672   6.138924   7.684129   7.212437
    26  H    5.979374   4.415315   4.941750   6.401843   6.324500
    27  H    7.295193   5.887815   6.546588   7.868206   7.079769
                   21         22         23         24         25
    21  H    0.000000
[...]
 Alpha virt. eigenvalues --    6.05803   6.09186   6.15979   6.22037   6.30353
 Alpha virt. eigenvalues --    6.31143   6.32948   6.42596   6.46785   6.51510
 Alpha virt. eigenvalues --    6.57780   6.67289   6.75229   6.80186   6.84514
 Alpha virt. eigenvalues --    6.89964   6.90757   7.04139   7.05372   7.15693
 Alpha virt. eigenvalues --    7.18715   7.26700   7.30334   7.40489   7.44936
 Alpha virt. eigenvalues --    7.53528  22.39727  22.40961  22.52428  22.56346
 Alpha virt. eigenvalues --   22.60184  22.81930  22.93882  22.99290  23.33459
 Alpha virt. eigenvalues --   23.62256  32.53351  44.07360  44.32626  44.48501
          Condensed to atoms (all electrons):
               1          2          3          4          5          6
     1  C    4.960198   0.323291  -0.036115   0.000036  -0.011802  -0.000387
     2  C    0.323291   4.785591   0.219552  -0.035897   0.005646  -0.002997
     3  O   -0.036115   0.219552   7.974568   0.373883  -0.080976  -0.136797
     4  C    0.000036  -0.035897   0.373883   4.581497   0.574668   0.183550
     5  O   -0.011802   0.005646  -0.080976   0.574668   7.953426  -0.072248
     6  C   -0.000387  -0.002997  -0.136797   0.183550  -0.072248   5.565362
     7  C    0.000731  -0.001747   0.024147  -0.072077   0.004446   0.418360
     8  N   -0.000005   0.000033   0.000015   0.005575  -0.000237  -0.050889
     9  C    0.000005  -0.000000   0.000188  -0.004024   0.000145  -0.039820
    10  C   -0.000011  -0.000023  -0.000676   0.014673  -0.000496  -0.022599
    11  C   -0.000145   0.001118  -0.003433  -0.048131  -0.001329   0.274526
    12  O   -0.000097   0.000216  -0.000138   0.029825  -0.007221  -0.100305
    13  C    0.000044   0.000029  -0.000049  -0.023126   0.000382   0.021614
    14  C   -0.000017  -0.000015  -0.000014  -0.000592  -0.005994  -0.000663
    15  H    0.398677  -0.033558   0.004039   0.000734   0.000149   0.000041
    16  H    0.396099  -0.029644   0.002877  -0.002268   0.000463  -0.001025
    17  H    0.418665  -0.039867  -0.002651   0.003688   0.005950   0.002028
    18  H   -0.046111   0.425199  -0.036103  -0.012164   0.012942   0.000453
    19  H   -0.028520   0.395248  -0.032562   0.004177   0.001112   0.003647
    20  H    0.000191  -0.000459   0.012396  -0.007992   0.000121  -0.064520
    21  H   -0.000000   0.000000  -0.000002   0.000144  -0.000001  -0.000393
    22  H    0.000000  -0.000002   0.000006  -0.000057  -0.000006   0.020487
    23  H   -0.000001   0.000004   0.000007   0.003571   0.000964  -0.008779
    24  H    0.000022  -0.000256  -0.000017  -0.014247   0.006149   0.030827
    25  H   -0.000000   0.000002   0.000000   0.000355   0.000033  -0.000140
    26  H   -0.000046   0.000065   0.000012   0.000601   0.005334  -0.001467
    27  H    0.000000  -0.000001  -0.000000  -0.000325   0.000068   0.000576
               7          8          9         10         11         12
     1  C    0.000731  -0.000005   0.000005  -0.000011  -0.000145  -0.000097
     2  C   -0.001747   0.000033  -0.000000  -0.000023   0.001118   0.000216
     3  O    0.024147   0.000015   0.000188  -0.000676  -0.003433  -0.000138
     4  C   -0.072077   0.005575  -0.004024   0.014673  -0.048131   0.029825
     5  O    0.004446  -0.000237   0.000145  -0.000496  -0.001329  -0.007221
     6  C    0.418360  -0.050889  -0.039820  -0.022599   0.274526  -0.100305
     7  C    4.846782   0.521302  -0.091761  -0.048091   0.016886   0.002535
     8  N    0.521302   6.441500   0.503549  -0.049284  -0.055610  -0.000214
     9  C   -0.091761   0.503549   4.746690   0.474247   0.002052   0.006209
    10  C   -0.048091  -0.049284   0.474247   5.012191   0.476976  -0.040293
    11  C    0.016886  -0.055610   0.002052   0.476976   4.945614   0.342450
    12  O    0.002535  -0.000214   0.006209  -0.040293   0.342450   7.986612
    13  C    0.003376   0.000108   0.000873  -0.008321  -0.069987   0.210004
    14  C   -0.000027   0.000009  -0.000055   0.000228   0.000257  -0.036062
    15  H   -0.000013  -0.000000  -0.000000   0.000000  -0.000011   0.000000
    16  H    0.000082   0.000001   0.000000  -0.000003  -0.000040   0.000001
    17  H   -0.000162   0.000002   0.000000   0.000008   0.000117   0.000048
    18  H    0.000437   0.000004  -0.000005  -0.000000  -0.000639   0.000006
    19  H   -0.000721  -0.000002  -0.000001   0.000004   0.000036   0.000000
    20  H    0.435876  -0.025363   0.004591   0.000110   0.001216  -0.000174
    21  H    0.003419  -0.030473   0.428477  -0.062328   0.003979  -0.000252
    22  H   -0.003042   0.006422  -0.032996   0.415076  -0.067050   0.004671
    23  H   -0.000655  -0.000012  -0.001078   0.000151   0.018309  -0.040086
    24  H   -0.000152  -0.000017   0.000198   0.005729  -0.021932  -0.047259
    25  H   -0.000012   0.000000  -0.000005   0.000068   0.000732   0.004716
    26  H   -0.000062   0.000000  -0.000004  -0.000074   0.002223   0.001667
    27  H    0.000008  -0.000000   0.000011   0.000274  -0.000564   0.001516
              13         14         15         16         17         18
     1  C    0.000044  -0.000017   0.398677   0.396099   0.418665  -0.046111
     2  C    0.000029  -0.000015  -0.033558  -0.029644  -0.039867   0.425199
     3  O   -0.000049  -0.000014   0.004039   0.002877  -0.002651  -0.036103
     4  C   -0.023126  -0.000592   0.000734  -0.002268   0.003688  -0.012164
     5  O    0.000382  -0.005994   0.000149   0.000463   0.005950   0.012942
     6  C    0.021614  -0.000663   0.000041  -0.001025   0.002028   0.000453
     7  C    0.003376  -0.000027  -0.000013   0.000082  -0.000162   0.000437
     8  N    0.000108   0.000009  -0.000000   0.000001   0.000002   0.000004
     9  C    0.000873  -0.000055  -0.000000   0.000000   0.000000  -0.000005
    10  C   -0.008321   0.000228   0.000000  -0.000003   0.000008  -0.000000
    11  C   -0.069987   0.000257  -0.000011  -0.000040   0.000117  -0.000639
    12  O    0.210004  -0.036062   0.000000   0.000001   0.000048   0.000006
    13  C    4.865601   0.322985  -0.000001  -0.000003   0.000007  -0.000045
    14  C    0.322985   4.898946   0.000000   0.000001  -0.000004   0.000006
    15  H   -0.000001   0.000000   0.552298  -0.018966  -0.020803   0.000908
    16  H   -0.000003   0.000001  -0.018966   0.554144  -0.022741   0.006998
    17  H    0.000007  -0.000004  -0.020803  -0.022741   0.509018  -0.005221
    18  H   -0.000045   0.000006   0.000908   0.006998  -0.005221   0.568072
    19  H   -0.000001   0.000000  -0.002705  -0.005606   0.004786  -0.031263
    20  H    0.000044  -0.000001  -0.000006   0.000021  -0.000003   0.000051
    21  H   -0.000011   0.000001  -0.000000   0.000000   0.000000   0.000000
    22  H   -0.000742  -0.000204   0.000000  -0.000000   0.000000   0.000000
    23  H    0.376456  -0.021069   0.000000   0.000000   0.000000   0.000001
    24  H    0.417366  -0.031938   0.000001   0.000000  -0.000003   0.000086
    25  H   -0.035814   0.402269  -0.000000  -0.000000   0.000001  -0.000000
    26  H   -0.041965   0.420407   0.000000   0.000000   0.000079  -0.000000
    27  H   -0.032455   0.401534  -0.000000  -0.000000   0.000001  -0.000000
              19         20         21         22         23         24
     1  C   -0.028520   0.000191  -0.000000   0.000000  -0.000001   0.000022
     2  C    0.395248  -0.000459   0.000000  -0.000002   0.000004  -0.000256
     3  O   -0.032562   0.012396  -0.000002   0.000006   0.000007  -0.000017
     4  C    0.004177  -0.007992   0.000144  -0.000057   0.003571  -0.014247
     5  O    0.001112   0.000121  -0.000001  -0.000006   0.000964   0.006149
     6  C    0.003647  -0.064520  -0.000393   0.020487  -0.008779   0.030827
     7  C   -0.000721   0.435876   0.003419  -0.003042  -0.000655  -0.000152
     8  N   -0.000002  -0.025363  -0.030473   0.006422  -0.000012  -0.000017
     9  C   -0.000001   0.004591   0.428477  -0.032996  -0.001078   0.000198
    10  C    0.000004   0.000110  -0.062328   0.415076   0.000151   0.005729
    11  C    0.000036   0.001216   0.003979  -0.067050   0.018309  -0.021932
    12  O    0.000000  -0.000174  -0.000252   0.004671  -0.040086  -0.047259
    13  C   -0.000001   0.000044  -0.000011  -0.000742   0.376456   0.417366
    14  C    0.000000  -0.000001   0.000001  -0.000204  -0.021069  -0.031938
    15  H   -0.002705  -0.000006  -0.000000   0.000000   0.000000   0.000001
    16  H   -0.005606   0.000021   0.000000  -0.000000   0.000000   0.000000
    17  H    0.004786  -0.000003   0.000000   0.000000   0.000000  -0.000003
    18  H   -0.031263   0.000051   0.000000   0.000000   0.000001   0.000086
    19  H    0.575548  -0.000286   0.000000   0.000000  -0.000000   0.000002
    20  H   -0.000286   0.493689  -0.000163   0.000075  -0.000007   0.000019
    21  H    0.000000  -0.000163   0.526368  -0.002367   0.000035  -0.000009
    22  H    0.000000   0.000075  -0.002367   0.519645  -0.001328   0.000857
    23  H   -0.000000  -0.000007   0.000035  -0.001328   0.634740  -0.049921
    24  H    0.000002   0.000019  -0.000009   0.000857  -0.049921   0.589061
    25  H    0.000000  -0.000000   0.000000   0.000021  -0.001487  -0.002304
    26  H    0.000000  -0.000000   0.000000  -0.000015   0.006418  -0.006404
    27  H    0.000000   0.000000  -0.000000   0.000150  -0.009140   0.008171
              25         26         27
     1  C   -0.000000  -0.000046   0.000000
     2  C    0.000002   0.000065  -0.000001
     3  O    0.000000   0.000012  -0.000000
     4  C    0.000355   0.000601  -0.000325
     5  O    0.000033   0.005334   0.000068
     6  C   -0.000140  -0.001467   0.000576
     7  C   -0.000012  -0.000062   0.000008
     8  N    0.000000   0.000000  -0.000000
     9  C   -0.000005  -0.000004   0.000011
    10  C    0.000068  -0.000074   0.000274
    11  C    0.000732   0.002223  -0.000564
    12  O    0.004716   0.001667   0.001516
    13  C   -0.035814  -0.041965  -0.032455
    14  C    0.402269   0.420407   0.401534
    15  H   -0.000000   0.000000  -0.000000
    16  H   -0.000000   0.000000  -0.000000
    17  H    0.000001   0.000079   0.000001
    18  H   -0.000000  -0.000000  -0.000000
    19  H    0.000000   0.000000   0.000000
    20  H   -0.000000  -0.000000   0.000000
    21  H    0.000000   0.000000  -0.000000
    22  H    0.000021  -0.000015   0.000150
    23  H   -0.001487   0.006418  -0.009140
    24  H   -0.002304  -0.006404   0.008171
    25  H    0.564478  -0.019967  -0.023514
    26  H   -0.019967   0.516065  -0.024506
    27  H   -0.023514  -0.024506   0.564957
 Mulliken charges:
               1
     1  C   -0.374703
     2  C   -0.011529
     3  O   -0.282157
     4  C    0.443921
     5  O   -0.391689
     6  C   -0.018442
     7  C   -0.059866
     8  N   -0.266412
     9  C    0.002516
    10  C   -0.167537
    11  C    0.182378
    12  O   -0.318376
    13  C   -0.006370
    14  C   -0.349989
    15  H    0.119214
    16  H    0.119609
    17  H    0.147058
    18  H    0.116389
    19  H    0.117106
    20  H    0.150575
    21  H    0.133575
    22  H    0.140400
    23  H    0.092906
    24  H    0.115971
    25  H    0.110569
    26  H    0.141640
    27  H    0.113243
 Sum of Mulliken charges =  -0.00000
 Mulliken charges with hydrogens summed into heavy atoms:
               1
     1  C    0.011178
     2  C    0.221965
     3  O   -0.282157
     4  C    0.443921
     5  O   -0.391689
     6  C   -0.018442
     7  C    0.090709
     8  N   -0.266412
     9  C    0.136091
    10  C   -0.027136
    11  C    0.182378
    12  O   -0.318376
    13  C    0.202507
    14  C    0.015463
 Electronic spatial extent (au):  <R**2>=           3147.9098
 Charge=             -0.0000 electrons
 Dipole moment (field-independent basis, Debye):
    X=              0.4590    Y=              0.9440    Z=             -0.4027  Tot=              1.1243
 Quadrupole moment (field-independent basis, Debye-Ang):
   XX=            -66.8544   YY=            -88.9729   ZZ=            -83.3129
   XY=             -4.7680   XZ=             -0.7754   YZ=             -1.8652
 Traceless Quadrupole moment (field-independent basis, Debye-Ang):
   XX=             12.8590   YY=             -9.2595   ZZ=             -3.5995
   XY=             -4.7680   XZ=             -0.7754   YZ=             -1.8652
 Octapole moment (field-independent basis, Debye-Ang**2):
  XXX=             21.0284  YYY=             46.0093  ZZZ=             -2.3863  XYY=              5.4510
  XXY=             -6.1895  XXZ=              2.6949  XZZ=              7.6644  YZZ=              3.7569
  YYZ=             -0.4987  XYZ=              8.5100
 Hexadecapole moment (field-independent basis, Debye-Ang**3):
 XXXX=          -2085.7311 YYYY=          -1744.9750 ZZZZ=           -214.9838 XXXY=             17.3136
 XXXZ=            -41.4714 YYYX=            -78.1512 YYYZ=            -18.0346 ZZZX=             -6.9436
 ZZZY=             -1.4850 XXYY=           -647.1453 XXZZ=           -433.2642 YYZZ=           -310.3174
 XXYZ=             -8.3264 YYXZ=             -7.8835 ZZXY=            -11.5629
 N-N= 9.047165667297D+02 E-N=-3.372219476723D+03  KE= 6.660429776894D+02
 Breneman (CHELPG) radii used.
 Read replacement radii for each type of atom:
 Atom Element Radius
    1     6    1.50
    2     6    1.50
    3     8    1.70
    4     6    1.50
    5     8    1.70
    6     6    1.50
    7     6    1.50
    8     7    1.70
    9     6    1.50
   10     6    1.50
   11     6    1.50
   12     8    1.70
   13     6    1.50
   14     6    1.50
   15     1    1.45
   16     1    1.45
   17     1    1.45
   18     1    1.45
   19     1    1.45
   20     1    1.45
   21     1    1.45
   22     1    1.45
   23     1    1.45
   24     1    1.45
   25     1    1.45
   26     1    1.45
   27     1    1.45
 Generate Potential Derived Charges using the Breneman model, NDens= 1.
 Grid spacing= 0.300 Box extension= 2.800
 NStep X,Y,Z=   47     44     30   Total possible points=       62040
 Number of Points to Fit=   16936

 **********************************************************************

            Electrostatic Properties Using The SCF Density.

 **********************************************************************

       Atomic Center    1 is at   3.930531  0.155349  0.920270
       Atomic Center    2 is at   3.381740 -0.397061 -0.380100
       Atomic Center    3 is at   2.059950 -0.915400 -0.216130
       Atomic Center    4 is at   1.044840 -0.047200 -0.269620
       Atomic Center    5 is at   1.197721  1.136540 -0.442000
       Atomic Center    6 is at  -0.269390 -0.735419 -0.107850
       Atomic Center    7 is at  -0.379720 -2.118379 -0.320590
       Atomic Center    8 is at  -1.502881 -2.812188 -0.189270
       Atomic Center    9 is at  -2.592120 -2.144938  0.192210
       Atomic Center   10 is at  -2.608610 -0.778498  0.445560
       Atomic Center   11 is at  -1.430210 -0.043938  0.291980
       Atomic Center   12 is at  -1.430769  1.267912  0.586870
       Atomic Center   13 is at  -1.591419  2.177152 -0.500300
       Atomic Center   14 is at  -1.197178  3.553591 -0.024170
       Atomic Center   15 is at   4.974371  0.472069  0.779170
       Atomic Center   16 is at   3.904340 -0.608731  1.710550
       Atomic Center   17 is at   3.347871  1.027419  1.247490
       Atomic Center   18 is at   3.369851  0.376369 -1.161730
       Atomic Center   19 is at   3.973810 -1.252231 -0.732190
       Atomic Center   20 is at   0.512889 -2.675389 -0.618620
       Atomic Center   21 is at  -3.509591 -2.732518  0.306920
       Atomic Center   22 is at  -3.515550 -0.267708  0.771860
       Atomic Center   23 is at  -2.645479  2.149722 -0.833400
       Atomic Center   24 is at  -0.951659  1.863141 -1.339350
       Atomic Center   25 is at  -1.348238  4.289671 -0.826920
       Atomic Center   26 is at  -0.136878  3.553611  0.262660
       Atomic Center   27 is at  -1.801578  3.853522  0.844150
   16936 points will be used for fitting atomic charges
 Fitting point charges to electrostatic potential
 Charges from ESP fit, RMS=   0.00300 RRMS=   0.26577:
 ESP charges:
               1
     1  C   -0.207272
     2  C    0.276296
     3  O   -0.419708
     4  C    0.730492
     5  O   -0.440820
     6  C   -0.503705
     7  C    0.441118
     8  N   -0.645812
     9  C    0.456524
    10  C   -0.554795
    11  C    0.673195
    12  O   -0.482904
    13  C    0.373319
    14  C   -0.146918
    15  H    0.053921
    16  H    0.061874
    17  H    0.063841
    18  H   -0.017416
    19  H    0.030933
    20  H    0.023584
    21  H    0.021926
    22  H    0.193318
    23  H   -0.040333
    24  H   -0.073606
    25  H    0.037729
    26  H    0.050947
    27  H    0.044273
 Sum of ESP charges =  -0.00000
 ESP charges with hydrogens summed into heavy atoms:
               1
     1  C   -0.027637
     2  C    0.289814
     3  O   -0.419708
     4  C    0.730492
     5  O   -0.440820
     6  C   -0.503705
     7  C    0.464702
     8  N   -0.645812
     9  C    0.478450
    10  C   -0.361477
    11  C    0.673195
    12  O   -0.482904
    13  C    0.259381
    14  C   -0.013970
 Charge=  -0.00000 Dipole=     0.4099     0.8810    -0.4004 Tot=     1.0510
 -----------------------------------------------------------------

              Electrostatic Properties (Atomic Units)

 -----------------------------------------------------------------
    Center     Electric         -------- Electric Field --------
               Potential          X             Y             Z
 -----------------------------------------------------------------
    1 Atom    -14.769592
    2 Atom    -14.705095
    3 Atom    -22.309525
    4 Atom    -14.632698
    5 Atom    -22.376462
    6 Atom    -14.742355
    7 Atom    -14.724607
    8 Atom    -18.395815
    9 Atom    -14.724603
   10 Atom    -14.757593
   11 Atom    -14.682260
   12 Atom    -22.332828
   13 Atom    -14.714158
   14 Atom    -14.779365
   15 Atom     -1.107371
   16 Atom     -1.113910
   17 Atom     -1.116153
   18 Atom     -1.108019
   19 Atom     -1.106002
   20 Atom     -1.099861
   21 Atom     -1.097005
   22 Atom     -1.084385
   23 Atom     -1.120085
   24 Atom     -1.121105
   25 Atom     -1.116378
   26 Atom     -1.127079
   27 Atom     -1.123215
 -----------------------------------------------------------------
 Unable to Open any file for archive entry.
 1\1\GINC-NOTCH165\SP\RwB97XD\def2TZVP\C10H13N1O3\U6053008\12-Jul-2024\
 0\\#N Guess=Read Geom=Check Integral(Ultrafine) Density Pop=(ChelpG,Re
 adRadii) NMR wB97XD def2TZVP\\12326824_21\\0,1\C,0,3.93053,0.15535,0.9
 2027\C,0,3.38174,-0.39706,-0.3801\O,0,2.05995,-0.9154,-0.21613\C,0,1.0
 4484,-0.0472,-0.26962\O,0,1.19772,1.13654,-0.442\C,0,-0.26939,-0.73542
 ,-0.10785\C,0,-0.37972,-2.11838,-0.32059\N,0,-1.50288,-2.81219,-0.1892
 7\C,0,-2.59212,-2.14494,0.19221\C,0,-2.60861,-0.7785,0.44556\C,0,-1.43
 021,-0.04394,0.29198\O,0,-1.43077,1.26791,0.58687\C,0,-1.59142,2.17715
 ,-0.5003\C,0,-1.19718,3.55359,-0.02417\H,0,4.97437,0.47207,0.77917\H,0
 ,3.90434,-0.60873,1.71055\H,0,3.34787,1.02742,1.24749\H,0,3.36985,0.37
 637,-1.16173\H,0,3.97381,-1.25223,-0.73219\H,0,0.51289,-2.67539,-0.618
 62\H,0,-3.50959,-2.73252,0.30692\H,0,-3.51555,-0.26771,0.77186\H,0,-2.
 64548,2.14972,-0.8334\H,0,-0.95166,1.86314,-1.33935\H,0,-1.34824,4.289
 67,-0.82692\H,0,-0.13688,3.55361,0.26266\H,0,-1.80158,3.85352,0.84415\
 \Version=ES64L-G16RevC.01\State=1-A\HF=-669.3507524\RMSD=1.466e-09\Dip
 ole=0.1806001,0.3713926,-0.1584515\Quadrupole=9.5603825,-6.8842319,-2.
 6761506,-3.5448523,-0.5765068,-1.3867479\PG=C01 [X(C10H13N1O3)]\\@
 The archive entry for this job was punched.


 IN NATURE THERE ARE NEITHER REWARDS OR
 PUNISHMENTS -- THERE ARE CONSEQUENCES.

                            -- ROBERT GREEN INGERSOLL
 Job cpu time:       0 days  1 hours 11 minutes 21.1 seconds.
 Elapsed time:       0 days  0 hours  4 minutes 43.3 seconds.
 File lengths (MBytes):  RWF=    165 Int=      0 D2E=      0 Chk=     25 Scr=      2
 Normal termination of Gaussian 16 at Fri Jul 12 13:31:08 2024.
