 Entering Gaussian System, Link 0=g16
 Input=12326832_6.com
 Output=12326832_6.log
 Initial command:
 /uufs/chpc.utah.edu/sys/installdir/gaussian16/C01/AVX/g16/l1.exe "/scratch/general/vast/u6053008/1287145-notchpeak.peaks/Gau-2616178.inp" -scrdir="/scratch/general/vast/u6053008/1287145-notchpeak.peaks/"
 Entering Link 1 = /uufs/chpc.utah.edu/sys/installdir/gaussian16/C01/AVX/g16/l1.exe PID=   2616179.
  
 Copyright (c) 1988-2019, Gaussian, Inc.  All Rights Reserved.
  
 This is part of the Gaussian(R) 16 program.  It is based on
 the Gaussian(R) 09 system (copyright 2009, Gaussian, Inc.),
 the Gaussian(R) 03 system (copyright 2003, Gaussian, Inc.),
 the Gaussian(R) 98 system (copyright 1998, Gaussian, Inc.),
 the Gaussian(R) 94 system (copyright 1995, Gaussian, Inc.),
 the Gaussian 92(TM) system (copyright 1992, Gaussian, Inc.),
 the Gaussian 90(TM) system (copyright 1990, Gaussian, Inc.),
 the Gaussian 88(TM) system (copyright 1988, Gaussian, Inc.),
 the Gaussian 86(TM) system (copyright 1986, Carnegie Mellon
 University), and the Gaussian 82(TM) system (copyright 1983,
 Carnegie Mellon University). Gaussian is a federally registered
 trademark of Gaussian, Inc.
  
 This software contains proprietary and confidential information,
 including trade secrets, belonging to Gaussian, Inc.
  
 This software is provided under written license and may be
 used, copied, transmitted, or stored only in accord with that
 written license.
  
 The following legend is applicable only to US Government
 contracts under FAR:
  
                    RESTRICTED RIGHTS LEGEND
  
 Use, reproduction and disclosure by the US Government is
 subject to restrictions as set forth in subparagraphs (a)
 and (c) of the Commercial Computer Software - Restricted
 Rights clause in FAR 52.227-19.
  
 Gaussian, Inc.
 340 Quinnipiac St., Bldg. 40, Wallingford CT 06492
  
  
 ---------------------------------------------------------------
 Warning -- This program may not be used in any manner that
 competes with the business of Gaussian, Inc. or will provide
 assistance to any competitor of Gaussian, Inc.  The licensee
 of this program is prohibited from giving any competitor of
 Gaussian, Inc. access to this program.  By using this program,
 the user acknowledges that Gaussian, Inc. is engaged in the
 business of creating and licensing software in the field of
 computational chemistry and represents and warrants to the
 licensee that it is not a competitor of Gaussian, Inc. and that
 it will not use this program in any manner prohibited above.
 ---------------------------------------------------------------
  

 Cite this work as:
 Gaussian 16, Revision C.01,
 M. J. Frisch, G. W. Trucks, H. B. Schlegel, G. E. Scuseria, 
 M. A. Robb, J. R. Cheeseman, G. Scalmani, V. Barone, 
 G. A. Petersson, H. Nakatsuji, X. Li, M. Caricato, A. V. Marenich, 
 J. Bloino, B. G. Janesko, R. Gomperts, B. Mennucci, H. P. Hratchian, 
 J. V. Ortiz, A. F. Izmaylov, J. L. Sonnenberg, D. Williams-Young, 
 F. Ding, F. Lipparini, F. Egidi, J. Goings, B. Peng, A. Petrone, 
 T. Henderson, D. Ranasinghe, V. G. Zakrzewski, J. Gao, N. Rega, 
 G. Zheng, W. Liang, M. Hada, M. Ehara, K. Toyota, R. Fukuda, 
 J. Hasegawa, M. Ishida, T. Nakajima, Y. Honda, O. Kitao, H. Nakai, 
 T. Vreven, K. Throssell, J. A. Montgomery, Jr., J. E. Peralta, 
 F. Ogliaro, M. J. Bearpark, J. J. Heyd, E. N. Brothers, K. N. Kudin, 
 V. N. Staroverov, T. A. Keith, R. Kobayashi, J. Normand, 
 K. Raghavachari, A. P. Rendell, J. C. Burant, S. S. Iyengar, 
 J. Tomasi, M. Cossi, J. M. Millam, M. Klene, C. Adamo, R. Cammi, 
 J. W. Ochterski, R. L. Martin, K. Morokuma, O. Farkas, 
 J. B. Foresman, and D. J. Fox, Gaussian, Inc., Wallingford CT, 2019.
 
 ******************************************
 Gaussian 16:  ES64L-G16RevC.01  3-Jul-2019
                12-Jul-2024 
 ******************************************
 %NProcShared=16
 Will use up to   16 processors via shared memory.
 %Mem=32GB
 %chk=12326832_6.chk
 ------------------------------------------------------
 #N OPT FREQ=NORAMAN Integral(Ultrafine) wB97XD def2SVP
 ------------------------------------------------------
 1/18=20,19=15,26=4,38=1/1,3;
 2/9=110,12=2,17=6,18=5,40=1/2;
 3/5=43,7=101,11=2,25=1,30=1,71=1,74=-58,75=-5/1,2,3;
 4//1;
 5/5=2,38=5/2;
 6/7=2,8=2,9=2,10=2,28=1/1;
 7//1,2,3,16;
 1/18=20,19=15,26=4/3(2);
 2/9=110/2;
 99//99;
 2/9=110/2;
 3/5=43,7=101,11=2,25=1,30=1,71=1,74=-58,75=-5/1,2,3;
 4/5=5,16=3,69=1/1;
 5/5=2,38=5/2;
 7//1,2,3,16;
 1/18=20,19=15,26=4/3(-5);
 2/9=110/2;
 6/7=2,8=2,9=2,10=2,19=2,28=1/1;
 99/9=1/99;
 ----------
 12326832_6
 ----------
 Symbolic Z-matrix:
 Charge =  0 Multiplicity = 1
 C                     4.20323  -0.77517   0.81106 
 C                     3.64441  -0.29811  -0.51532 
 O                     2.42597   0.42407  -0.34698 
 C                     1.2945   -0.29629  -0.23699 
 O                     1.27868  -1.49734  -0.28054 
 C                     0.10926   0.59644  -0.07291 
 C                     0.24082   1.98073  -0.17674 
 C                    -0.87034   2.80931  -0.03967 
 C                    -2.09569   2.2016    0.20215 
 N                    -2.25098   0.88503   0.31136 
 C                    -1.1949    0.09223   0.18563 
 O                    -1.35565  -1.2156    0.32208 
 C                    -2.65503  -1.74722   0.56236 
 C                    -3.45637  -1.88511  -0.71738 
 H                     5.17883  -1.25852   0.65393 
 H                     4.3424    0.06858   1.50264 
 H                     3.52748  -1.50776   1.27343 
 H                     3.46941  -1.14681  -1.19253 
 H                     4.32679   0.41177  -1.00238 
 H                     1.23013   2.39632  -0.36873 
 H                    -0.78715   3.89322  -0.12162 
 H                    -3.00387   2.80418   0.31316 
 H                    -2.46361  -2.73038   1.01303 
 H                    -3.18417  -1.1162    1.29089 
 H                    -3.67652  -0.89758  -1.14569 
 H                    -4.41083  -2.39051  -0.50755 
 H                    -2.9033   -2.48107  -1.45772 
 

 GradGradGradGradGradGradGradGradGradGradGradGradGradGradGradGradGradGrad
 Berny optimization.
 Initialization pass.
                           ----------------------------
                           !    Initial Parameters    !
                           ! (Angstroms and Degrees)  !
 --------------------------                            --------------------------
 ! Name  Definition              Value          Derivative Info.                !
 --------------------------------------------------------------------------------
 ! R1    R(1,2)                  1.5163         estimate D2E/DX2                !
 ! R2    R(1,15)                 1.1001         estimate D2E/DX2                !
 ! R3    R(1,16)                 1.0998         estimate D2E/DX2                !
 ! R4    R(1,17)                 1.0987         estimate D2E/DX2                !
 ! R5    R(2,3)                  1.4264         estimate D2E/DX2                !
 ! R6    R(2,18)                 1.0998         estimate D2E/DX2                !
 ! R7    R(2,19)                 1.0985         estimate D2E/DX2                !
 ! R8    R(3,4)                  1.3458         estimate D2E/DX2                !
 ! R9    R(4,5)                  1.2019         estimate D2E/DX2                !
 ! R10   R(4,6)                  1.4929         estimate D2E/DX2                !
 ! R11   R(6,7)                  1.3944         estimate D2E/DX2                !
 ! R12   R(6,11)                 1.4219         estimate D2E/DX2                !
 ! R13   R(7,8)                  1.3928         estimate D2E/DX2                !
 ! R14   R(7,20)                 1.0901         estimate D2E/DX2                !
 ! R15   R(8,9)                  1.389          estimate D2E/DX2                !
 ! R16   R(8,21)                 1.0902         estimate D2E/DX2                !
 ! R17   R(9,10)                 1.3302         estimate D2E/DX2                !
 ! R18   R(9,22)                 1.0955         estimate D2E/DX2                !
 ! R19   R(10,11)                1.3265         estimate D2E/DX2                !
 ! R20   R(11,12)                1.3247         estimate D2E/DX2                !
 ! R21   R(12,13)                1.4243         estimate D2E/DX2                !
 ! R22   R(13,14)                1.5162         estimate D2E/DX2                !
 ! R23   R(13,23)                1.0983         estimate D2E/DX2                !
 ! R24   R(13,24)                1.0995         estimate D2E/DX2                !
 ! R25   R(14,25)                1.0987         estimate D2E/DX2                !
 ! R26   R(14,26)                1.1002         estimate D2E/DX2                !
 ! R27   R(14,27)                1.0996         estimate D2E/DX2                !
 ! A1    A(2,1,15)             109.8855         estimate D2E/DX2                !
 ! A2    A(2,1,16)             110.8134         estimate D2E/DX2                !
 ! A3    A(2,1,17)             110.5633         estimate D2E/DX2                !
 ! A4    A(15,1,16)            108.3419         estimate D2E/DX2                !
 ! A5    A(15,1,17)            108.2162         estimate D2E/DX2                !
 ! A6    A(16,1,17)            108.9501         estimate D2E/DX2                !
 ! A7    A(1,2,3)              111.7699         estimate D2E/DX2                !
 ! A8    A(1,2,18)             110.7623         estimate D2E/DX2                !
 ! A9    A(1,2,19)             111.2365         estimate D2E/DX2                !
 ! A10   A(3,2,18)             109.115          estimate D2E/DX2                !
 ! A11   A(3,2,19)             104.8193         estimate D2E/DX2                !
 ! A12   A(18,2,19)            108.9353         estimate D2E/DX2                !
 ! A13   A(2,3,4)              117.1819         estimate D2E/DX2                !
 ! A14   A(3,4,5)              122.8855         estimate D2E/DX2                !
 ! A15   A(3,4,6)              110.8781         estimate D2E/DX2                !
 ! A16   A(5,4,6)              126.2338         estimate D2E/DX2                !
 ! A17   A(4,6,7)              120.7016         estimate D2E/DX2                !
 ! A18   A(4,6,11)             122.4192         estimate D2E/DX2                !
 ! A19   A(7,6,11)             116.8783         estimate D2E/DX2                !
 ! A20   A(6,7,8)              120.5291         estimate D2E/DX2                !
 ! A21   A(6,7,20)             118.5039         estimate D2E/DX2                !
 ! A22   A(8,7,20)             120.967          estimate D2E/DX2                !
 ! A23   A(7,8,9)              117.4284         estimate D2E/DX2                !
 ! A24   A(7,8,21)             121.5463         estimate D2E/DX2                !
 ! A25   A(9,8,21)             121.0249         estimate D2E/DX2                !
 ! A26   A(8,9,10)             123.3894         estimate D2E/DX2                !
 ! A27   A(8,9,22)             120.5512         estimate D2E/DX2                !
 ! A28   A(10,9,22)            116.0593         estimate D2E/DX2                !
 ! A29   A(9,10,11)            119.394          estimate D2E/DX2                !
 ! A30   A(6,11,10)            122.3776         estimate D2E/DX2                !
 ! A31   A(6,11,12)            118.6917         estimate D2E/DX2                !
 ! A32   A(10,11,12)           118.9251         estimate D2E/DX2                !
 ! A33   A(11,12,13)           119.7726         estimate D2E/DX2                !
 ! A34   A(12,13,14)           111.9443         estimate D2E/DX2                !
 ! A35   A(12,13,23)           104.1421         estimate D2E/DX2                !
 ! A36   A(12,13,24)           109.6698         estimate D2E/DX2                !
 ! A37   A(14,13,23)           110.9178         estimate D2E/DX2                !
 ! A38   A(14,13,24)           110.9222         estimate D2E/DX2                !
 ! A39   A(23,13,24)           109.0093         estimate D2E/DX2                !
 ! A40   A(13,14,25)           110.6828         estimate D2E/DX2                !
 ! A41   A(13,14,26)           109.8345         estimate D2E/DX2                !
 ! A42   A(13,14,27)           110.5932         estimate D2E/DX2                !
 ! A43   A(25,14,26)           108.2648         estimate D2E/DX2                !
 ! A44   A(25,14,27)           108.9929         estimate D2E/DX2                !
 ! A45   A(26,14,27)           108.4078         estimate D2E/DX2                !
 ! D1    D(15,1,2,3)          -175.6299         estimate D2E/DX2                !
 ! D2    D(15,1,2,18)           62.4656         estimate D2E/DX2                !
 ! D3    D(15,1,2,19)          -58.843          estimate D2E/DX2                !
 ! D4    D(16,1,2,3)           -55.9272         estimate D2E/DX2                !
 ! D5    D(16,1,2,18)         -177.8317         estimate D2E/DX2                !
 ! D6    D(16,1,2,19)           60.8597         estimate D2E/DX2                !
 ! D7    D(17,1,2,3)            64.9809         estimate D2E/DX2                !
 ! D8    D(17,1,2,18)          -56.9237         estimate D2E/DX2                !
 ! D9    D(17,1,2,19)         -178.2322         estimate D2E/DX2                !
 ! D10   D(1,2,3,4)            -83.0841         estimate D2E/DX2                !
 ! D11   D(18,2,3,4)            39.763          estimate D2E/DX2                !
 ! D12   D(19,2,3,4)           156.3109         estimate D2E/DX2                !
 ! D13   D(2,3,4,5)             -0.3052         estimate D2E/DX2                !
 ! D14   D(2,3,4,6)           -179.755          estimate D2E/DX2                !
 ! D15   D(3,4,6,7)              6.162          estimate D2E/DX2                !
 ! D16   D(3,4,6,11)          -174.2037         estimate D2E/DX2                !
 ! D17   D(5,4,6,7)           -173.2652         estimate D2E/DX2                !
 ! D18   D(5,4,6,11)             6.3691         estimate D2E/DX2                !
 ! D19   D(4,6,7,8)            179.1914         estimate D2E/DX2                !
 ! D20   D(4,6,7,20)            -0.7028         estimate D2E/DX2                !
 ! D21   D(11,6,7,8)            -0.4624         estimate D2E/DX2                !
 ! D22   D(11,6,7,20)          179.6434         estimate D2E/DX2                !
 ! D23   D(4,6,11,10)         -178.9636         estimate D2E/DX2                !
 ! D24   D(4,6,11,12)            1.9017         estimate D2E/DX2                !
 ! D25   D(7,6,11,10)            0.6838         estimate D2E/DX2                !
 ! D26   D(7,6,11,12)         -178.4509         estimate D2E/DX2                !
 ! D27   D(6,7,8,9)              0.0346         estimate D2E/DX2                !
 ! D28   D(6,7,8,21)          -179.759          estimate D2E/DX2                !
 ! D29   D(20,7,8,9)           179.9261         estimate D2E/DX2                !
 ! D30   D(20,7,8,21)            0.1325         estimate D2E/DX2                !
 ! D31   D(7,8,9,10)             0.2386         estimate D2E/DX2                !
 ! D32   D(7,8,9,22)          -179.673          estimate D2E/DX2                !
 ! D33   D(21,8,9,10)         -179.9667         estimate D2E/DX2                !
 ! D34   D(21,8,9,22)            0.1217         estimate D2E/DX2                !
 ! D35   D(8,9,10,11)           -0.0371         estimate D2E/DX2                !
 ! D36   D(22,9,10,11)         179.8782         estimate D2E/DX2                !
 ! D37   D(9,10,11,6)           -0.4407         estimate D2E/DX2                !
 ! D38   D(9,10,11,12)         178.692          estimate D2E/DX2                !
 ! D39   D(6,11,12,13)        -179.0992         estimate D2E/DX2                !
 ! D40   D(10,11,12,13)          1.7358         estimate D2E/DX2                !
 ! D41   D(11,12,13,14)         81.5299         estimate D2E/DX2                !
 ! D42   D(11,12,13,23)       -158.5717         estimate D2E/DX2                !
 ! D43   D(11,12,13,24)        -42.0342         estimate D2E/DX2                !
 ! D44   D(12,13,14,25)        -66.1818         estimate D2E/DX2                !
 ! D45   D(12,13,14,26)        174.3262         estimate D2E/DX2                !
 ! D46   D(12,13,14,27)         54.7133         estimate D2E/DX2                !
 ! D47   D(23,13,14,25)        177.9697         estimate D2E/DX2                !
 ! D48   D(23,13,14,26)         58.4778         estimate D2E/DX2                !
 ! D49   D(23,13,14,27)        -61.1352         estimate D2E/DX2                !
 ! D50   D(24,13,14,25)         56.6747         estimate D2E/DX2                !
 ! D51   D(24,13,14,26)        -62.8172         estimate D2E/DX2                !
 ! D52   D(24,13,14,27)        177.5699         estimate D2E/DX2                !
 --------------------------------------------------------------------------------
 Trust Radius=3.00D-01 FncErr=1.00D-07 GrdErr=1.00D-06 EigMax=2.50D+02 EigMin=1.00D-04
 Number of steps in this run=    134 maximum allowed number of steps=    162.
 GradGradGradGradGradGradGradGradGradGradGradGradGradGradGradGradGradGrad

                          Input orientation:                          
 ---------------------------------------------------------------------
 Center     Atomic      Atomic             Coordinates (Angstroms)
 Number     Number       Type             X           Y           Z
 ---------------------------------------------------------------------
      1          6           0        4.203230   -0.775170    0.811060
      2          6           0        3.644410   -0.298110   -0.515320
      3          8           0        2.425970    0.424070   -0.346980
      4          6           0        1.294500   -0.296290   -0.236990
      5          8           0        1.278680   -1.497340   -0.280540
      6          6           0        0.109260    0.596440   -0.072910
      7          6           0        0.240820    1.980730   -0.176740
      8          6           0       -0.870340    2.809310   -0.039670
      9          6           0       -2.095690    2.201600    0.202150
     10          7           0       -2.250980    0.885030    0.311360
     11          6           0       -1.194900    0.092230    0.185630
     12          8           0       -1.355650   -1.215600    0.322080
     13          6           0       -2.655030   -1.747220    0.562360
     14          6           0       -3.456370   -1.885110   -0.717380
     15          1           0        5.178830   -1.258520    0.653930
     16          1           0        4.342400    0.068580    1.502640
     17          1           0        3.527480   -1.507760    1.273430
     18          1           0        3.469410   -1.146810   -1.192530
     19          1           0        4.326790    0.411770   -1.002380
     20          1           0        1.230130    2.396320   -0.368730
     21          1           0       -0.787150    3.893220   -0.121620
     22          1           0       -3.003870    2.804180    0.313160
     23          1           0       -2.463610   -2.730380    1.013030
     24          1           0       -3.184170   -1.116200    1.290890
     25          1           0       -3.676520   -0.897580   -1.145690
     26          1           0       -4.410830   -2.390510   -0.507550
     27          1           0       -2.903300   -2.481070   -1.457720
 ---------------------------------------------------------------------
                    Distance matrix (angstroms):
                    1          2          3          4          5
     1  C    0.000000
     2  C    1.516295   0.000000
     3  O    2.436778   1.426351   0.000000
     4  C    3.128649   2.366336   1.345823   0.000000
     5  O    3.204078   2.662697   2.238862   1.201943   0.000000
     6  C    4.407188   3.673313   2.339224   1.492877   2.407191
     7  C    4.926604   4.110009   2.688318   2.509719   3.631102
     8  C    6.270036   5.501388   4.080376   3.790807   4.819081
     9  C    6.993449   6.301751   4.889434   4.233874   5.030062
    10  N    6.683023   6.069501   4.745499   3.777120   4.299364
    11  C    5.503031   4.905366   3.674846   2.554734   2.977020
    12  O    5.597698   5.152051   4.175741   2.860242   2.717025
    13  C    6.931267   6.553187   5.599818   4.282867   4.030756
    14  C    7.889079   7.278769   6.330200   5.032483   4.770943
    15  H    1.100051   2.154989   3.378042   4.099713   4.017641
    16  H    1.099802   2.166521   2.687038   3.528333   3.875334
    17  H    1.098687   2.162534   2.751549   2.955542   2.733502
    18  H    2.165867   1.099786   2.066733   2.523227   2.398728
    19  H    2.170866   1.098544   2.010676   3.206549   3.668341
    20  H    4.504395   3.620800   2.306572   2.696599   3.894961
    21  H    6.896930   6.112362   4.733913   4.679591   5.775036
    22  H    8.062378   7.383103   5.965222   5.328373   6.098835
    23  H    6.950568   6.749793   5.975632   4.648735   4.147101
    24  H    7.410818   7.110638   6.043899   4.802620   4.746756
    25  H    8.119995   7.372432   6.294846   5.089040   5.065788
    26  H    8.862849   8.322565   7.395233   6.083564   5.763663
    27  H    7.652465   6.966056   6.170470   4.887225   4.454485
                    6          7          8          9         10
     6  C    0.000000
     7  C    1.394399   0.000000
     8  C    2.420230   1.392842   0.000000
     9  C    2.741168   2.377314   1.388982   0.000000
    10  N    2.408668   2.765478   2.394210   1.330187   0.000000
    11  C    1.421937   2.399799   2.745655   2.293717   1.326516
    12  O    2.363359   3.607501   4.070171   3.498471   2.283501
    13  C    3.679349   4.778057   4.930469   4.004471   2.674883
    14  C    4.391714   5.376451   5.402261   4.404337   3.191386
    15  H    5.446991   5.963782   7.322621   8.068158   7.740429
    16  H    4.547578   4.826965   6.087937   6.905798   6.749696
    17  H    4.233736   5.007463   6.300964   6.821073   6.327845
    18  H    3.947541   4.608376   5.984430   6.642840   6.254032
    19  H    4.322682   4.454039   5.803893   6.775148   6.724355
    20  H    2.140894   1.090096   2.165829   3.380074   3.855470
    21  H    3.416823   2.171953   1.090182   2.163026   3.373348
    22  H    3.835980   3.383206   2.162514   1.095544   2.061549
    23  H    4.343577   5.560940   5.859595   5.011718   3.689003
    24  H    3.954715   4.845149   4.746981   3.657587   2.415625
    25  H    4.208929   4.956721   4.779012   3.731034   2.707925
    26  H    5.435255   6.391793   6.308099   5.191437   4.008083
    27  H    4.523747   5.606609   5.842252   5.033369   3.858211
                   11         12         13         14         15
    11  C    0.000000
    12  O    1.324718   0.000000
    13  C    2.378546   1.424339   0.000000
    14  C    3.136805   2.437570   1.516210   0.000000
    15  H    6.532095   6.543042   7.849623   8.765831   0.000000
    16  H    5.691816   5.959078   7.290081   8.340636   1.783569
    17  H    5.103347   4.983511   6.227872   7.271855   1.781252
    18  H    5.018997   5.057665   6.399132   6.981209   2.518732
    19  H    5.657078   6.057446   7.473651   8.120004   2.501840
    20  H    3.390710   4.495491   5.755894   6.357317   5.476853
    21  H    3.835126   5.159467   5.980917   6.392868   7.920532
    22  H    3.262408   4.344576   4.571546   4.822469   9.142113
    23  H    3.203333   1.999886   1.098339   2.166650   7.791163
    24  H    2.576645   2.071704   1.099514   2.167594   8.388429
    25  H    2.985059   2.764403   2.163970   1.098695   9.043569
    26  H    4.121493   3.376807   2.154382   1.100205   9.725843
    27  H    3.498729   2.676625   2.163538   1.099617   8.442424
                   16         17         18         19         20
    16  H    0.000000
    17  H    1.789268   0.000000
    18  H    3.082730   2.492913   0.000000
    19  H    2.528468   3.082662   1.788974   0.000000
    20  H    4.313540   4.818334   4.271626   3.732192   0.000000
    21  H    6.601392   7.052147   6.683342   6.248889   2.524122
    22  H    7.928812   7.885016   7.731803   7.822586   4.307909
    23  H    7.375342   6.120112   6.524792   7.748840   6.468078
    24  H    7.622191   6.723085   7.102002   8.000519   5.880321
    25  H    8.500011   7.623784   7.150428   8.110974   5.960592
    26  H    9.311661   8.183392   8.007132   9.189322   7.399557
    27  H    8.231927   7.054179   6.516288   7.800645   6.485374
                   21         22         23         24         25
    21  H    0.000000
    22  H    2.507766   0.000000
    23  H    6.926040   5.604735   0.000000
    24  H    5.730199   4.044483   1.789411   0.000000
    25  H    5.687613   4.035310   3.080646   2.495421   0.000000
    26  H    7.263970   5.444071   2.493861   2.522488   1.781930
    27  H    6.847980   5.574944   2.521922   3.081658   1.789601
                   26         27
    26  H    0.000000
    27  H    1.784284   0.000000
 Stoichiometry    C10H13NO3
 Framework group  C1[X(C10H13NO3)]
 Deg. of freedom    75
 Full point group                 C1      NOp   1
 Largest Abelian subgroup         C1      NOp   1
 Largest concise Abelian subgroup C1      NOp   1
                         Standard orientation:                         
 ---------------------------------------------------------------------
 Center     Atomic      Atomic             Coordinates (Angstroms)
 Number     Number       Type             X           Y           Z
 ---------------------------------------------------------------------
      1          6           0        4.203229   -0.775172    0.811060
      2          6           0        3.644409   -0.298112   -0.515320
      3          8           0        2.425970    0.424069   -0.346980
      4          6           0        1.294499   -0.296290   -0.236990
      5          8           0        1.278678   -1.497340   -0.280540
      6          6           0        0.109260    0.596440   -0.072910
      7          6           0        0.240821    1.980730   -0.176740
      8          6           0       -0.870339    2.809311   -0.039670
      9          6           0       -2.095689    2.201602    0.202150
     10          7           0       -2.250980    0.885032    0.311360
     11          6           0       -1.194901    0.092231    0.185630
     12          8           0       -1.355651   -1.215599    0.322080
     13          6           0       -2.655032   -1.747218    0.562360
     14          6           0       -3.456372   -1.885107   -0.717380
     15          1           0        5.178829   -1.258523    0.653930
     16          1           0        4.342399    0.068578    1.502640
     17          1           0        3.527478   -1.507762    1.273430
     18          1           0        3.469409   -1.146812   -1.192530
     19          1           0        4.326790    0.411768   -1.002380
     20          1           0        1.230131    2.396320   -0.368730
     21          1           0       -0.787148    3.893221   -0.121620
     22          1           0       -3.003869    2.804182    0.313160
     23          1           0       -2.463612   -2.730378    1.013030
     24          1           0       -3.184171   -1.116198    1.290890
     25          1           0       -3.676521   -0.897577   -1.145690
     26          1           0       -4.410832   -2.390507   -0.507550
     27          1           0       -2.903302   -2.481068   -1.457720
 ---------------------------------------------------------------------
 Rotational constants (GHZ):           1.0875851           0.4505910           0.3367194
 Standard basis: def2SVP (5D, 7F)
 There are   275 symmetry adapted cartesian basis functions of A   symmetry.
 There are   261 symmetry adapted basis functions of A   symmetry.
   261 basis functions,   441 primitive gaussians,   275 cartesian basis functions
    52 alpha electrons       52 beta electrons
       nuclear repulsion energy       899.4784752088 Hartrees.
 NAtoms=   27 NActive=   27 NUniq=   27 SFac= 1.00D+00 NAtFMM=   60 NAOKFM=F Big=F
 Integral buffers will be    131072 words long.
 Raffenetti 2 integral format.
 Two-electron integral symmetry is turned on.
 Nuclear repulsion after empirical dispersion term =      899.4638949208 Hartrees.
 One-electron integrals computed using PRISM.
   1 Symmetry operations used in ECPInt.
 ECPInt:  NShTT=    7626 NPrTT=   27482 LenC2=    7126 LenP2D=   18522.
 LDataN:  DoStor=T MaxTD1= 4 Len=   56
 NBasis=   261 RedAO= T EigKep=  6.16D-04  NBF=   261
 NBsUse=   261 1.00D-06 EigRej= -1.00D+00 NBFU=   261
 ExpMin= 1.22D-01 ExpMax= 2.27D+03 ExpMxC= 3.41D+02 IAcc=3 IRadAn=         5 AccDes= 0.00D+00
 Harris functional with IExCor= 4639 and IRadAn=       5 diagonalized for initial guess.
 HarFok:  IExCor= 4639 AccDes= 0.00D+00 IRadAn=         5 IDoV= 1 UseB2=F ITyADJ=14
 ICtDFT=  3500011 ScaDFX=  1.000000  1.000000  1.000000  1.000000
 FoFCou: FMM=F IPFlag=           0 FMFlag=      100000 FMFlg1=           0
         NFxFlg=           0 DoJE=T BraDBF=F KetDBF=T FulRan=T
         wScrn=  0.000000 ICntrl=       500 IOpCl=  0 I1Cent=   200000004 NGrid=           0
         NMat0=    1 NMatS0=      1 NMatT0=    0 NMatD0=    1 NMtDS0=    0 NMtDT0=    0
 Petite list used in FoFCou.
 Requested convergence on RMS density matrix=1.00D-08 within 128 cycles.
 Requested convergence on MAX density matrix=1.00D-06.
 Requested convergence on             energy=1.00D-06.
 No special actions if energy rises.
 Integral accuracy reduced to 1.0D-05 until final iterations.
 Initial convergence to 1.0D-05 achieved.  Increase integral accuracy.
 SCF Done:  E(RwB97XD) =  -668.629614330     A.U. after   16 cycles
            NFock= 16  Conv=0.52D-08     -V/T= 2.0098

 **********************************************************************

            Population analysis using the SCF Density.

 **********************************************************************

 Orbital symmetries:
       Occupied  (A) (A) (A) (A) (A) (A) (A) (A) (A) (A) (A) (A)
                 (A) (A) (A) (A) (A) (A) (A) (A) (A) (A) (A) (A)
                 (A) (A) (A) (A) (A) (A) (A) (A) (A) (A) (A) (A)
                 (A) (A) (A) (A) (A) (A) (A) (A) (A) (A) (A) (A)
                 (A) (A) (A) (A)
       Virtual   (A) (A) (A) (A) (A) (A) (A) (A) (A) (A) (A) (A)
                 (A) (A) (A) (A) (A) (A) (A) (A) (A) (A) (A) (A)
                 (A) (A) (A) (A) (A) (A) (A) (A) (A) (A) (A) (A)
                 (A) (A) (A) (A) (A) (A) (A) (A) (A) (A) (A) (A)
                 (A) (A) (A) (A) (A) (A) (A) (A) (A) (A) (A) (A)
                 (A) (A) (A) (A) (A) (A) (A) (A) (A) (A) (A) (A)
                 (A) (A) (A) (A) (A) (A) (A) (A) (A) (A) (A) (A)
                 (A) (A) (A) (A) (A) (A) (A) (A) (A) (A) (A) (A)
                 (A) (A) (A) (A) (A) (A) (A) (A) (A) (A) (A) (A)
                 (A) (A) (A) (A) (A) (A) (A) (A) (A) (A) (A) (A)
                 (A) (A) (A) (A) (A) (A) (A) (A) (A) (A) (A) (A)
                 (A) (A) (A) (A) (A) (A) (A) (A) (A) (A) (A) (A)
                 (A) (A) (A) (A) (A) (A) (A) (A) (A) (A) (A) (A)
                 (A) (A) (A) (A) (A) (A) (A) (A) (A) (A) (A) (A)
                 (A) (A) (A) (A) (A) (A) (A) (A) (A) (A) (A) (A)
                 (A) (A) (A) (A) (A) (A) (A) (A) (A) (A) (A) (A)
                 (A) (A) (A) (A) (A) (A) (A) (A) (A) (A) (A) (A)
                 (A) (A) (A) (A) (A)
 The electronic state is 1-A.
 Alpha  occ. eigenvalues --  -19.29604 -19.28934 -19.23622 -14.44328 -10.42656
 Alpha  occ. eigenvalues --  -10.40507 -10.35372 -10.34902 -10.34721 -10.32908
 Alpha  occ. eigenvalues --  -10.32003 -10.30866 -10.29389 -10.28811  -1.19879
 Alpha  occ. eigenvalues --   -1.17987  -1.10339  -1.04230  -0.91798  -0.88056
 Alpha  occ. eigenvalues --   -0.86379  -0.83545  -0.76997  -0.75137  -0.73078
 Alpha  occ. eigenvalues --   -0.68873  -0.65576  -0.63131  -0.61366  -0.60116
 Alpha  occ. eigenvalues --   -0.56917  -0.56734  -0.55977  -0.54351  -0.53452
 Alpha  occ. eigenvalues --   -0.53030  -0.50291  -0.49550  -0.48588  -0.48286
 Alpha  occ. eigenvalues --   -0.46896  -0.46627  -0.45642  -0.45230  -0.42028
 Alpha  occ. eigenvalues --   -0.41829  -0.41306  -0.38228  -0.37381  -0.36166
 Alpha  occ. eigenvalues --   -0.34586  -0.31530
 Alpha virt. eigenvalues --    0.01321   0.05770   0.12730   0.14728   0.15621
 Alpha virt. eigenvalues --    0.16371   0.18711   0.19412   0.19601   0.19784
 Alpha virt. eigenvalues --    0.20517   0.21161   0.21565   0.22475   0.23705
 Alpha virt. eigenvalues --    0.24042   0.24673   0.24879   0.25406   0.28632
 Alpha virt. eigenvalues --    0.29488   0.31633   0.33187   0.33775   0.35329
 Alpha virt. eigenvalues --    0.37273   0.37412   0.40413   0.44671   0.46380
 Alpha virt. eigenvalues --    0.47837   0.49503   0.50744   0.50987   0.51493
 Alpha virt. eigenvalues --    0.51828   0.52357   0.53250   0.53837   0.54596
 Alpha virt. eigenvalues --    0.55822   0.57012   0.60149   0.60812   0.61148
 Alpha virt. eigenvalues --    0.63694   0.64820   0.66184   0.67143   0.69233
 Alpha virt. eigenvalues --    0.69811   0.70015   0.70639   0.71402   0.72729
 Alpha virt. eigenvalues --    0.73312   0.73847   0.74017   0.74245   0.75756
 Alpha virt. eigenvalues --    0.75874   0.76914   0.77364   0.77797   0.78084
 Alpha virt. eigenvalues --    0.79026   0.79470   0.79625   0.80044   0.81361
 Alpha virt. eigenvalues --    0.81989   0.83815   0.85476   0.86931   0.89301
 Alpha virt. eigenvalues --    0.91307   0.96724   0.99148   1.00435   1.01332
 Alpha virt. eigenvalues --    1.03469   1.04091   1.09176   1.11433   1.12608
 Alpha virt. eigenvalues --    1.13494   1.15119   1.18135   1.21504   1.22159
 Alpha virt. eigenvalues --    1.23923   1.27438   1.29427   1.31184   1.31983
 Alpha virt. eigenvalues --    1.33310   1.35535   1.36430   1.40794   1.41620
 Alpha virt. eigenvalues --    1.43057   1.46067   1.48208   1.48951   1.50865
 Alpha virt. eigenvalues --    1.53577   1.54870   1.58479   1.60471   1.61543
 Alpha virt. eigenvalues --    1.62973   1.66042   1.68236   1.69745   1.73777
 Alpha virt. eigenvalues --    1.74876   1.76440   1.77000   1.79916   1.80248
 Alpha virt. eigenvalues --    1.82245   1.83209   1.83550   1.85000   1.85180
 Alpha virt. eigenvalues --    1.85611   1.87141   1.87611   1.88083   1.88415
 Alpha virt. eigenvalues --    1.89153   1.89611   1.91855   1.92347   1.94687
 Alpha virt. eigenvalues --    1.95431   1.96126   1.97229   1.98911   1.99844
 Alpha virt. eigenvalues --    2.01815   2.02093   2.04520   2.05220   2.07356
 Alpha virt. eigenvalues --    2.10482   2.11636   2.12128   2.14505   2.17665
 Alpha virt. eigenvalues --    2.18825   2.20214   2.22962   2.26606   2.28727
 Alpha virt. eigenvalues --    2.29336   2.31427   2.32344   2.36730   2.41416
 Alpha virt. eigenvalues --    2.44160   2.44996   2.48268   2.48352   2.48999
 Alpha virt. eigenvalues --    2.49151   2.50768   2.55248   2.57772   2.59702
 Alpha virt. eigenvalues --    2.61819   2.62988   2.63961   2.65740   2.72679
 Alpha virt. eigenvalues --    2.73082   2.77133   2.77795   2.79685   2.80884
 Alpha virt. eigenvalues --    2.83937   2.84042   2.85590   2.90235   2.90826
 Alpha virt. eigenvalues --    2.95832   2.96210   2.98750   3.00520   3.02399
 Alpha virt. eigenvalues --    3.04715   3.05358   3.07156   3.08816   3.10023
 Alpha virt. eigenvalues --    3.12360   3.13330   3.17947   3.19630   3.22618
 Alpha virt. eigenvalues --    3.29607   3.31790   3.34826   3.51919   3.56069
 Alpha virt. eigenvalues --    3.63469   3.69525   3.79640   3.84383
          Condensed to atoms (all electrons):
               1          2          3          4          5          6
     1  C    4.605247   0.446790  -0.037189  -0.007847  -0.008559  -0.002308
     2  C    0.446790   4.453287   0.251118  -0.032903   0.001675   0.010714
     3  O   -0.037189   0.251118   7.990602   0.419013  -0.084761  -0.169858
     4  C   -0.007847  -0.032903   0.419013   4.577994   0.745428   0.083599
     5  O   -0.008559   0.001675  -0.084761   0.745428   7.647276  -0.115134
     6  C   -0.002308   0.010714  -0.169858   0.083599  -0.115134   5.919956
     7  C    0.000177  -0.000530   0.014629  -0.043133   0.003284   0.431809
     8  C    0.000001   0.000018   0.000922   0.012703  -0.000025   0.003545
     9  C   -0.000000   0.000000  -0.000000   0.000112   0.000008  -0.070067
    10  N   -0.000000   0.000002  -0.000007   0.006367   0.000049  -0.091896
    11  C   -0.000000  -0.000023   0.000314  -0.044885   0.005563   0.328351
    12  O   -0.000002   0.000013  -0.000013   0.009992  -0.007281  -0.115595
    13  C   -0.000000  -0.000000   0.000002  -0.000107   0.000266   0.005736
    14  C   -0.000000   0.000000  -0.000000  -0.000017  -0.000079  -0.001185
    15  H    0.382446  -0.016510   0.003646   0.000281  -0.000066   0.000044
    16  H    0.386799  -0.021021   0.001517   0.000083   0.000223  -0.000190
    17  H    0.394373  -0.014996  -0.005706   0.003898   0.008748   0.000354
    18  H   -0.029509   0.389449  -0.027604  -0.006895   0.017866   0.002071
    19  H   -0.027255   0.390301  -0.024573   0.004468   0.000391   0.000532
    20  H    0.000044  -0.000474   0.016341  -0.022109   0.000283  -0.044031
    21  H    0.000000   0.000000  -0.000026  -0.000164   0.000000   0.010929
    22  H   -0.000000   0.000000  -0.000000   0.000079  -0.000000   0.001078
    23  H    0.000000  -0.000000   0.000000  -0.000201   0.000175   0.000423
    24  H   -0.000000   0.000000   0.000000   0.000023  -0.000029   0.000235
    25  H    0.000000  -0.000000   0.000000  -0.000095   0.000006   0.000372
    26  H    0.000000   0.000000   0.000000   0.000000   0.000000   0.000033
    27  H   -0.000000   0.000000   0.000000   0.000089   0.000032  -0.000396
               7          8          9         10         11         12
     1  C    0.000177   0.000001  -0.000000  -0.000000  -0.000000  -0.000002
     2  C   -0.000530   0.000018   0.000000   0.000002  -0.000023   0.000013
     3  O    0.014629   0.000922  -0.000000  -0.000007   0.000314  -0.000013
     4  C   -0.043133   0.012703   0.000112   0.006367  -0.044885   0.009992
     5  O    0.003284  -0.000025   0.000008   0.000049   0.005563  -0.007281
     6  C    0.431809   0.003545  -0.070067  -0.091896   0.328351  -0.115595
     7  C    4.813368   0.408454   0.000694  -0.038457  -0.052854  -0.000029
     8  C    0.408454   5.012700   0.439021  -0.043112  -0.067194   0.000440
     9  C    0.000694   0.439021   4.707185   0.511582  -0.035013   0.001794
    10  N   -0.038457  -0.043112   0.511582   6.408614   0.529618  -0.083749
    11  C   -0.052854  -0.067194  -0.035013   0.529618   4.723189   0.460447
    12  O   -0.000029   0.000440   0.001794  -0.083749   0.460447   7.845407
    13  C   -0.000273   0.000029   0.000264  -0.009891  -0.040294   0.271090
    14  C    0.000008  -0.000071  -0.000270  -0.010889  -0.006539  -0.041402
    15  H   -0.000001  -0.000000   0.000000   0.000000  -0.000001   0.000000
    16  H    0.000057   0.000002   0.000000  -0.000000  -0.000013   0.000000
    17  H   -0.000117   0.000000  -0.000000   0.000000   0.000049  -0.000000
    18  H    0.000040   0.000007  -0.000000  -0.000000  -0.000056   0.000002
    19  H   -0.000292  -0.000012  -0.000000  -0.000000   0.000024   0.000000
    20  H    0.439501  -0.056731   0.009066  -0.000097   0.010923  -0.000055
    21  H   -0.053426   0.425063  -0.045691   0.005233   0.001100   0.000014
    22  H    0.006297  -0.066377   0.421481  -0.038819   0.004312  -0.000079
    23  H    0.000032   0.000002   0.000030   0.000414   0.004882  -0.025448
    24  H    0.000011   0.000089   0.000489   0.027019  -0.013811  -0.025416
    25  H    0.000113   0.000096   0.000398   0.011866   0.004035  -0.004728
    26  H   -0.000001   0.000001   0.000006  -0.000045   0.000193   0.003712
    27  H   -0.000011   0.000002  -0.000001   0.000407   0.000002   0.001567
              13         14         15         16         17         18
     1  C   -0.000000  -0.000000   0.382446   0.386799   0.394373  -0.029509
     2  C   -0.000000   0.000000  -0.016510  -0.021021  -0.014996   0.389449
     3  O    0.000002  -0.000000   0.003646   0.001517  -0.005706  -0.027604
     4  C   -0.000107  -0.000017   0.000281   0.000083   0.003898  -0.006895
     5  O    0.000266  -0.000079  -0.000066   0.000223   0.008748   0.017866
     6  C    0.005736  -0.001185   0.000044  -0.000190   0.000354   0.002071
     7  C   -0.000273   0.000008  -0.000001   0.000057  -0.000117   0.000040
     8  C    0.000029  -0.000071  -0.000000   0.000002   0.000000   0.000007
     9  C    0.000264  -0.000270   0.000000   0.000000  -0.000000  -0.000000
    10  N   -0.009891  -0.010889   0.000000  -0.000000   0.000000  -0.000000
    11  C   -0.040294  -0.006539  -0.000001  -0.000013   0.000049  -0.000056
    12  O    0.271090  -0.041402   0.000000   0.000000  -0.000000   0.000002
    13  C    4.448586   0.447281   0.000000  -0.000000   0.000000  -0.000000
    14  C    0.447281   4.614803   0.000000   0.000000   0.000000   0.000000
    15  H    0.000000   0.000000   0.624362  -0.017661  -0.017401  -0.001259
    16  H   -0.000000   0.000000  -0.017661   0.628310  -0.023748   0.007679
    17  H    0.000000   0.000000  -0.017401  -0.023748   0.594554  -0.010193
    18  H   -0.000000   0.000000  -0.001259   0.007679  -0.010193   0.637341
    19  H    0.000000   0.000000  -0.003154  -0.009366   0.006559  -0.029039
    20  H    0.000007  -0.000000  -0.000003   0.000091  -0.000023   0.000179
    21  H    0.000001   0.000001   0.000000  -0.000000  -0.000000  -0.000000
    22  H   -0.000019   0.000105  -0.000000   0.000000   0.000000   0.000000
    23  H    0.388622  -0.025884  -0.000000  -0.000000  -0.000000  -0.000000
    24  H    0.386284  -0.029660  -0.000000   0.000000  -0.000000   0.000000
    25  H   -0.018442   0.390453  -0.000000  -0.000000  -0.000000  -0.000000
    26  H   -0.015542   0.378759  -0.000000  -0.000000  -0.000000  -0.000000
    27  H   -0.020282   0.388425   0.000000   0.000000  -0.000000   0.000000
              19         20         21         22         23         24
     1  C   -0.027255   0.000044   0.000000  -0.000000   0.000000  -0.000000
     2  C    0.390301  -0.000474   0.000000   0.000000  -0.000000   0.000000
     3  O   -0.024573   0.016341  -0.000026  -0.000000   0.000000   0.000000
     4  C    0.004468  -0.022109  -0.000164   0.000079  -0.000201   0.000023
     5  O    0.000391   0.000283   0.000000  -0.000000   0.000175  -0.000029
     6  C    0.000532  -0.044031   0.010929   0.001078   0.000423   0.000235
     7  C   -0.000292   0.439501  -0.053426   0.006297   0.000032   0.000011
     8  C   -0.000012  -0.056731   0.425063  -0.066377   0.000002   0.000089
     9  C   -0.000000   0.009066  -0.045691   0.421481   0.000030   0.000489
    10  N   -0.000000  -0.000097   0.005233  -0.038819   0.000414   0.027019
    11  C    0.000024   0.010923   0.001100   0.004312   0.004882  -0.013811
    12  O    0.000000  -0.000055   0.000014  -0.000079  -0.025448  -0.025416
    13  C    0.000000   0.000007   0.000001  -0.000019   0.388622   0.386284
    14  C    0.000000  -0.000000   0.000001   0.000105  -0.025884  -0.029660
    15  H   -0.003154  -0.000003   0.000000  -0.000000  -0.000000  -0.000000
    16  H   -0.009366   0.000091  -0.000000   0.000000  -0.000000   0.000000
    17  H    0.006559  -0.000023  -0.000000   0.000000  -0.000000  -0.000000
    18  H   -0.029039   0.000179  -0.000000   0.000000  -0.000000   0.000000
    19  H    0.651011  -0.000387   0.000000  -0.000000  -0.000000   0.000000
    20  H   -0.000387   0.613759  -0.009235  -0.000241  -0.000000   0.000001
    21  H    0.000000  -0.009235   0.642225  -0.006068  -0.000000  -0.000005
    22  H   -0.000000  -0.000241  -0.006068   0.639266  -0.000006  -0.000129
    23  H   -0.000000  -0.000000  -0.000000  -0.000006   0.646914  -0.029670
    24  H    0.000000   0.000001  -0.000005  -0.000129  -0.029670   0.646460
    25  H    0.000000   0.000000  -0.000005  -0.000304   0.006896  -0.010061
    26  H   -0.000000   0.000000  -0.000000  -0.000002  -0.003120  -0.001011
    27  H    0.000000  -0.000000  -0.000000   0.000002  -0.009481   0.007680
              25         26         27
     1  C    0.000000   0.000000  -0.000000
     2  C   -0.000000   0.000000   0.000000
     3  O    0.000000   0.000000   0.000000
     4  C   -0.000095   0.000000   0.000089
     5  O    0.000006   0.000000   0.000032
     6  C    0.000372   0.000033  -0.000396
     7  C    0.000113  -0.000001  -0.000011
     8  C    0.000096   0.000001   0.000002
     9  C    0.000398   0.000006  -0.000001
    10  N    0.011866  -0.000045   0.000407
    11  C    0.004035   0.000193   0.000002
    12  O   -0.004728   0.003712   0.001567
    13  C   -0.018442  -0.015542  -0.020282
    14  C    0.390453   0.378759   0.388425
    15  H   -0.000000  -0.000000   0.000000
    16  H   -0.000000  -0.000000   0.000000
    17  H   -0.000000  -0.000000  -0.000000
    18  H   -0.000000  -0.000000   0.000000
    19  H    0.000000  -0.000000   0.000000
    20  H    0.000000   0.000000  -0.000000
    21  H   -0.000005  -0.000000  -0.000000
    22  H   -0.000304  -0.000002   0.000002
    23  H    0.006896  -0.003120  -0.009481
    24  H   -0.010061  -0.001011   0.007680
    25  H    0.609907  -0.017468  -0.024246
    26  H   -0.017468   0.629700  -0.017180
    27  H   -0.024246  -0.017180   0.619933
 Mulliken charges:
               1
     1  C   -0.103208
     2  C    0.143090
     3  O   -0.348366
     4  C    0.294227
     5  O   -0.215340
     6  C   -0.189122
     7  C    0.070650
     8  C   -0.069576
     9  C    0.058912
    10  N   -0.184209
    11  C    0.187682
    12  O   -0.290678
    13  C    0.156683
    14  C   -0.103838
    15  H    0.045277
    16  H    0.047237
    17  H    0.063650
    18  H    0.049922
    19  H    0.040791
    20  H    0.043191
    21  H    0.030052
    22  H    0.039423
    23  H    0.045419
    24  H    0.041502
    25  H    0.051205
    26  H    0.041964
    27  H    0.053458
 Sum of Mulliken charges =  -0.00000
 Mulliken charges with hydrogens summed into heavy atoms:
               1
     1  C    0.052956
     2  C    0.233803
     3  O   -0.348366
     4  C    0.294227
     5  O   -0.215340
     6  C   -0.189122
     7  C    0.113841
     8  C   -0.039524
     9  C    0.098335
    10  N   -0.184209
    11  C    0.187682
    12  O   -0.290678
    13  C    0.243605
    14  C    0.042790
 Electronic spatial extent (au):  <R**2>=           3328.4733
 Charge=              0.0000 electrons
 Dipole moment (field-independent basis, Debye):
    X=              0.4420    Y=              1.8558    Z=             -0.0017  Tot=              1.9077
 Quadrupole moment (field-independent basis, Debye-Ang):
   XX=            -69.8254   YY=            -77.6272   ZZ=            -82.3355
   XY=              2.3989   XZ=             -1.3485   YZ=             -1.2929
 Traceless Quadrupole moment (field-independent basis, Debye-Ang):
   XX=              6.7706   YY=             -1.0312   ZZ=             -5.7395
   XY=              2.3989   XZ=             -1.3485   YZ=             -1.2929
 Octapole moment (field-independent basis, Debye-Ang**2):
  XXX=             41.7801  YYY=             12.5598  ZZZ=             -0.8658  XYY=            -16.6643
  XXY=            -16.0250  XXZ=             -2.6306  XZZ=              5.4650  YZZ=             -9.1270
  YYZ=              1.5991  XYZ=              1.0985
 Hexadecapole moment (field-independent basis, Debye-Ang**3):
 XXXX=          -2771.9204 YYYY=          -1119.1138 ZZZZ=           -212.9092 XXXY=              1.7121
 XXXZ=            -38.1795 YYYX=              4.8277 YYYZ=            -11.2051 ZZZX=            -12.8097
 ZZZY=              0.1111 XXYY=           -644.3892 XXZZ=           -532.4803 YYZZ=           -244.3011
 XXYZ=             -5.0538 YYXZ=            -11.3029 ZZXY=              6.6371
 N-N= 8.994638949208D+02 E-N=-3.356771337130D+03  KE= 6.621229674261D+02
   1 Symmetry operations used in ECPInt.
 ECPInt:  NShTT=    7626 NPrTT=   27482 LenC2=    7126 LenP2D=   18522.
 LDataN:  DoStor=T MaxTD1= 5 Len=  102
 Calling FoFJK, ICntrl=      2127 FMM=F ISym2X=0 I1Cent= 0 IOpClX= 0 NMat=1 NMatS=1 NMatT=0.
 ***** Axes restored to original set *****
 -------------------------------------------------------------------
 Center     Atomic                   Forces (Hartrees/Bohr)
 Number     Number              X              Y              Z
 -------------------------------------------------------------------
      1        6          -0.000002147   -0.000003310   -0.000002028
      2        6          -0.000004831    0.000003752    0.000000837
      3        8           0.000012982   -0.000003539    0.000005270
      4        6          -0.000008536    0.000002580   -0.000001964
      5        8          -0.000002451   -0.000006560    0.000001984
      6        6           0.000001367    0.000000127   -0.000001392
      7        6           0.000000284   -0.000000842   -0.000000671
      8        6          -0.000011059   -0.000006785    0.000001987
      9        6           0.000009995    0.000019279   -0.000007493
     10        7           0.000000803   -0.000015861    0.000000950
     11        6          -0.000002402    0.000003546    0.000000945
     12        8          -0.000005325   -0.000001667    0.000002233
     13        6           0.000002014    0.000006939   -0.000005508
     14        6           0.000006534    0.000002930    0.000002627
     15        1          -0.000000096    0.000000799    0.000000950
     16        1           0.000000490    0.000001039    0.000001231
     17        1          -0.000000916    0.000001278    0.000000619
     18        1           0.000002566   -0.000002230    0.000001097
     19        1           0.000004140   -0.000001184   -0.000003359
     20        1           0.000003180   -0.000000772   -0.000002192
     21        1           0.000001756    0.000003632   -0.000002018
     22        1          -0.000000850    0.000000190   -0.000000682
     23        1          -0.000000715   -0.000001071    0.000001138
     24        1          -0.000001714    0.000001035    0.000002201
     25        1           0.000000165   -0.000001046    0.000000561
     26        1          -0.000003229   -0.000001168    0.000002180
     27        1          -0.000002007   -0.000001093    0.000000500
 -------------------------------------------------------------------
 Cartesian Forces:  Max     0.000019279 RMS     0.000004553

 GradGradGradGradGradGradGradGradGradGradGradGradGradGradGradGradGradGrad
 Berny optimization.
 FormGI is forming the generalized inverse of G from B-inverse, IUseBI=4.
 Internal  Forces:  Max     0.000013070 RMS     0.000002621
 Search for a local minimum.
 Step number   1 out of a maximum of  134
 All quantities printed in internal units (Hartrees-Bohrs-Radians)
 Mixed Optimization -- En-DIIS/RFO-DIIS
 Second derivative matrix not updated -- first step.
 ITU=  0
     Eigenvalues ---    0.00550   0.00552   0.00860   0.01343   0.01349
     Eigenvalues ---    0.01370   0.01628   0.01986   0.02173   0.02210
     Eigenvalues ---    0.02219   0.02232   0.02356   0.02408   0.02528
     Eigenvalues ---    0.02688   0.04975   0.05007   0.05688   0.05700
     Eigenvalues ---    0.05711   0.05737   0.05814   0.05822   0.11738
     Eigenvalues ---    0.11759   0.13912   0.13930   0.16000   0.16000
     Eigenvalues ---    0.16000   0.16000   0.16000   0.16000   0.16000
     Eigenvalues ---    0.16000   0.16000   0.22058   0.22065   0.22084
     Eigenvalues ---    0.23315   0.24910   0.24998   0.24999   0.25000
     Eigenvalues ---    0.25000   0.25000   0.25000   0.30726   0.30735
     Eigenvalues ---    0.33136   0.33659   0.33676   0.33704   0.33706
     Eigenvalues ---    0.33724   0.33736   0.33827   0.33828   0.33844
     Eigenvalues ---    0.33866   0.34180   0.34792   0.34802   0.40338
     Eigenvalues ---    0.41518   0.41814   0.44411   0.45456   0.47034
     Eigenvalues ---    0.55920   0.57353   0.59088   0.60771   1.03853
 RFO step:  Lambda= 0.00000000D+00 EMin= 5.50398474D-03
 Linear search not attempted -- first point.
 Iteration  1 RMS(Cart)=  0.00005692 RMS(Int)=  0.00000000
 Iteration  2 RMS(Cart)=  0.00000000 RMS(Int)=  0.00000000
 Variable       Old X    -DE/DX   Delta X   Delta X   Delta X     New X
                                 (Linear)    (Quad)   (Total)
    R1        2.86538  -0.00000   0.00000  -0.00001  -0.00001   2.86537
    R2        2.07880  -0.00000   0.00000  -0.00000  -0.00000   2.07879
    R3        2.07833   0.00000   0.00000   0.00000   0.00000   2.07833
    R4        2.07622  -0.00000   0.00000  -0.00000  -0.00000   2.07621
    R5        2.69541  -0.00000   0.00000  -0.00001  -0.00001   2.69541
    R6        2.07830   0.00000   0.00000   0.00000   0.00000   2.07830
    R7        2.07595   0.00000   0.00000   0.00001   0.00001   2.07596
    R8        2.54324   0.00001   0.00000   0.00002   0.00002   2.54326
    R9        2.27134   0.00001   0.00000   0.00001   0.00001   2.27135
   R10        2.82113   0.00000   0.00000   0.00001   0.00001   2.82114
   R11        2.63503   0.00000   0.00000   0.00000   0.00000   2.63503
   R12        2.68707   0.00000   0.00000   0.00000   0.00000   2.68708
   R13        2.63209   0.00000   0.00000   0.00001   0.00001   2.63210
   R14        2.05998   0.00000   0.00000   0.00001   0.00001   2.05999
   R15        2.62480  -0.00001   0.00000  -0.00002  -0.00002   2.62478
   R16        2.06015   0.00000   0.00000   0.00001   0.00001   2.06016
   R17        2.51369   0.00001   0.00000   0.00002   0.00002   2.51371
   R18        2.07028   0.00000   0.00000   0.00000   0.00000   2.07028
   R19        2.50675  -0.00000   0.00000  -0.00001  -0.00001   2.50675
   R20        2.50335   0.00000   0.00000   0.00000   0.00000   2.50335
   R21        2.69161  -0.00000   0.00000  -0.00001  -0.00001   2.69160
   R22        2.86522  -0.00000   0.00000  -0.00001  -0.00001   2.86521
   R23        2.07556   0.00000   0.00000   0.00001   0.00001   2.07557
   R24        2.07778   0.00000   0.00000   0.00001   0.00001   2.07779
   R25        2.07623  -0.00000   0.00000  -0.00000  -0.00000   2.07623
   R26        2.07909   0.00000   0.00000   0.00001   0.00001   2.07910
   R27        2.07798   0.00000   0.00000   0.00000   0.00000   2.07798
    A1        1.91786  -0.00000   0.00000   0.00000   0.00000   1.91786
    A2        1.93406   0.00000   0.00000  -0.00000  -0.00000   1.93406
    A3        1.92969  -0.00000   0.00000  -0.00000  -0.00000   1.92969
    A4        1.89092  -0.00000   0.00000  -0.00001  -0.00001   1.89092
    A5        1.88873   0.00000   0.00000   0.00001   0.00001   1.88874
    A6        1.90154   0.00000   0.00000  -0.00000  -0.00000   1.90154
    A7        1.95075  -0.00000   0.00000  -0.00002  -0.00002   1.95074
    A8        1.93317  -0.00000   0.00000  -0.00001  -0.00001   1.93316
    A9        1.94144   0.00000   0.00000  -0.00000  -0.00000   1.94144
   A10        1.90442   0.00000   0.00000   0.00002   0.00002   1.90444
   A11        1.82944   0.00000   0.00000   0.00002   0.00002   1.82947
   A12        1.90128  -0.00000   0.00000  -0.00002  -0.00002   1.90126
   A13        2.04521   0.00001   0.00000   0.00005   0.00005   2.04526
   A14        2.14476   0.00000   0.00000   0.00001   0.00001   2.14476
   A15        1.93519   0.00000   0.00000   0.00001   0.00001   1.93519
   A16        2.20319  -0.00000   0.00000  -0.00001  -0.00001   2.20318
   A17        2.10664   0.00000   0.00000   0.00001   0.00001   2.10665
   A18        2.13662  -0.00000   0.00000  -0.00000  -0.00000   2.13662
   A19        2.03991  -0.00000   0.00000  -0.00001  -0.00001   2.03990
   A20        2.10363   0.00000   0.00000   0.00000   0.00000   2.10363
   A21        2.06828  -0.00000   0.00000  -0.00001  -0.00001   2.06827
   A22        2.11127   0.00000   0.00000   0.00001   0.00001   2.11128
   A23        2.04951   0.00000   0.00000   0.00001   0.00001   2.04952
   A24        2.12138  -0.00000   0.00000  -0.00001  -0.00001   2.12138
   A25        2.11228  -0.00000   0.00000   0.00000   0.00000   2.11228
   A26        2.15355  -0.00000   0.00000  -0.00000  -0.00000   2.15355
   A27        2.10402   0.00000   0.00000   0.00001   0.00001   2.10403
   A28        2.02562  -0.00000   0.00000  -0.00001  -0.00001   2.02561
   A29        2.08382  -0.00000   0.00000  -0.00000  -0.00000   2.08382
   A30        2.13589   0.00000   0.00000   0.00000   0.00000   2.13590
   A31        2.07156   0.00000   0.00000   0.00000   0.00000   2.07157
   A32        2.07563  -0.00000   0.00000  -0.00001  -0.00001   2.07563
   A33        2.09043   0.00000   0.00000   0.00000   0.00000   2.09043
   A34        1.95380   0.00000   0.00000   0.00001   0.00001   1.95381
   A35        1.81762  -0.00000   0.00000  -0.00000  -0.00000   1.81762
   A36        1.91410  -0.00000   0.00000   0.00001   0.00001   1.91411
   A37        1.93588  -0.00000   0.00000  -0.00002  -0.00002   1.93586
   A38        1.93596   0.00000   0.00000   0.00001   0.00001   1.93596
   A39        1.90257   0.00000   0.00000  -0.00001  -0.00001   1.90257
   A40        1.93178   0.00000   0.00000   0.00000   0.00000   1.93178
   A41        1.91697  -0.00000   0.00000  -0.00001  -0.00001   1.91696
   A42        1.93022   0.00000   0.00000   0.00002   0.00002   1.93023
   A43        1.88958   0.00000   0.00000  -0.00000  -0.00000   1.88958
   A44        1.90228  -0.00000   0.00000   0.00000   0.00000   1.90229
   A45        1.89207  -0.00000   0.00000  -0.00001  -0.00001   1.89206
    D1       -3.06532   0.00000   0.00000   0.00001   0.00001  -3.06531
    D2        1.09023  -0.00000   0.00000  -0.00000  -0.00000   1.09023
    D3       -1.02700   0.00000   0.00000   0.00003   0.00003  -1.02698
    D4       -0.97611  -0.00000   0.00000  -0.00000  -0.00000  -0.97612
    D5       -3.10375  -0.00000   0.00000  -0.00001  -0.00001  -3.10376
    D6        1.06220   0.00000   0.00000   0.00002   0.00002   1.06222
    D7        1.13413  -0.00000   0.00000  -0.00001  -0.00001   1.13412
    D8       -0.99351  -0.00000   0.00000  -0.00002  -0.00002  -0.99352
    D9       -3.11074   0.00000   0.00000   0.00001   0.00001  -3.11073
   D10       -1.45009  -0.00000   0.00000  -0.00008  -0.00008  -1.45017
   D11        0.69400  -0.00000   0.00000  -0.00009  -0.00009   0.69391
   D12        2.72814  -0.00000   0.00000  -0.00008  -0.00008   2.72806
   D13       -0.00533   0.00000   0.00000   0.00007   0.00007  -0.00526
   D14       -3.13732   0.00000   0.00000   0.00003   0.00003  -3.13728
   D15        0.10755   0.00000   0.00000   0.00000   0.00000   0.10755
   D16       -3.04043   0.00000   0.00000   0.00001   0.00001  -3.04042
   D17       -3.02405  -0.00000   0.00000  -0.00003  -0.00003  -3.02408
   D18        0.11116  -0.00000   0.00000  -0.00003  -0.00003   0.11113
   D19        3.12748   0.00000   0.00000   0.00000   0.00000   3.12748
   D20       -0.01227   0.00000   0.00000   0.00000   0.00000  -0.01226
   D21       -0.00807  -0.00000   0.00000  -0.00001  -0.00001  -0.00808
   D22        3.13537  -0.00000   0.00000  -0.00001  -0.00001   3.13536
   D23       -3.12350   0.00000   0.00000   0.00002   0.00002  -3.12349
   D24        0.03319   0.00000   0.00000   0.00001   0.00001   0.03320
   D25        0.01193   0.00000   0.00000   0.00002   0.00002   0.01196
   D26       -3.11455   0.00000   0.00000   0.00001   0.00001  -3.11454
   D27        0.00060  -0.00000   0.00000  -0.00002  -0.00002   0.00058
   D28       -3.13739  -0.00000   0.00000  -0.00001  -0.00001  -3.13740
   D29        3.14030  -0.00000   0.00000  -0.00003  -0.00003   3.14028
   D30        0.00231  -0.00000   0.00000  -0.00002  -0.00002   0.00230
   D31        0.00416   0.00000   0.00000   0.00004   0.00004   0.00421
   D32       -3.13589  -0.00000   0.00000  -0.00001  -0.00001  -3.13590
   D33       -3.14101   0.00000   0.00000   0.00003   0.00003  -3.14098
   D34        0.00212  -0.00000   0.00000  -0.00002  -0.00002   0.00210
   D35       -0.00065  -0.00000   0.00000  -0.00003  -0.00003  -0.00067
   D36        3.13947   0.00000   0.00000   0.00003   0.00003   3.13949
   D37       -0.00769  -0.00000   0.00000  -0.00001  -0.00001  -0.00770
   D38        3.11876   0.00000   0.00000   0.00000   0.00000   3.11877
   D39       -3.12587   0.00000   0.00000   0.00002   0.00002  -3.12585
   D40        0.03029   0.00000   0.00000   0.00001   0.00001   0.03030
   D41        1.42297   0.00000   0.00000   0.00003   0.00003   1.42299
   D42       -2.76760  -0.00000   0.00000   0.00001   0.00001  -2.76759
   D43       -0.73363  -0.00000   0.00000   0.00000   0.00000  -0.73363
   D44       -1.15509  -0.00000   0.00000   0.00002   0.00002  -1.15507
   D45        3.04257  -0.00000   0.00000   0.00003   0.00003   3.04260
   D46        0.95493   0.00000   0.00000   0.00004   0.00004   0.95497
   D47        3.10616  -0.00000   0.00000   0.00003   0.00003   3.10619
   D48        1.02063  -0.00000   0.00000   0.00004   0.00004   1.02067
   D49       -1.06701   0.00000   0.00000   0.00005   0.00005  -1.06696
   D50        0.98916   0.00000   0.00000   0.00005   0.00005   0.98921
   D51       -1.09637   0.00000   0.00000   0.00006   0.00006  -1.09631
   D52        3.09918   0.00000   0.00000   0.00007   0.00007   3.09925
         Item               Value     Threshold  Converged?
 Maximum Force            0.000013     0.000450     YES
 RMS     Force            0.000003     0.000300     YES
 Maximum Displacement     0.000198     0.001800     YES
 RMS     Displacement     0.000057     0.001200     YES
 Predicted change in Energy=-1.598773D-09
 Optimization completed.
    -- Stationary point found.
                           ----------------------------
                           !   Optimized Parameters   !
                           ! (Angstroms and Degrees)  !
 --------------------------                            --------------------------
 ! Name  Definition              Value          Derivative Info.                !
 --------------------------------------------------------------------------------
 ! R1    R(1,2)                  1.5163         -DE/DX =    0.0                 !
 ! R2    R(1,15)                 1.1001         -DE/DX =    0.0                 !
 ! R3    R(1,16)                 1.0998         -DE/DX =    0.0                 !
 ! R4    R(1,17)                 1.0987         -DE/DX =    0.0                 !
 ! R5    R(2,3)                  1.4264         -DE/DX =    0.0                 !
 ! R6    R(2,18)                 1.0998         -DE/DX =    0.0                 !
 ! R7    R(2,19)                 1.0985         -DE/DX =    0.0                 !
 ! R8    R(3,4)                  1.3458         -DE/DX =    0.0                 !
 ! R9    R(4,5)                  1.2019         -DE/DX =    0.0                 !
 ! R10   R(4,6)                  1.4929         -DE/DX =    0.0                 !
 ! R11   R(6,7)                  1.3944         -DE/DX =    0.0                 !
 ! R12   R(6,11)                 1.4219         -DE/DX =    0.0                 !
 ! R13   R(7,8)                  1.3928         -DE/DX =    0.0                 !
 ! R14   R(7,20)                 1.0901         -DE/DX =    0.0                 !
 ! R15   R(8,9)                  1.389          -DE/DX =    0.0                 !
 ! R16   R(8,21)                 1.0902         -DE/DX =    0.0                 !
 ! R17   R(9,10)                 1.3302         -DE/DX =    0.0                 !
 ! R18   R(9,22)                 1.0955         -DE/DX =    0.0                 !
 ! R19   R(10,11)                1.3265         -DE/DX =    0.0                 !
 ! R20   R(11,12)                1.3247         -DE/DX =    0.0                 !
 ! R21   R(12,13)                1.4243         -DE/DX =    0.0                 !
 ! R22   R(13,14)                1.5162         -DE/DX =    0.0                 !
 ! R23   R(13,23)                1.0983         -DE/DX =    0.0                 !
 ! R24   R(13,24)                1.0995         -DE/DX =    0.0                 !
 ! R25   R(14,25)                1.0987         -DE/DX =    0.0                 !
 ! R26   R(14,26)                1.1002         -DE/DX =    0.0                 !
 ! R27   R(14,27)                1.0996         -DE/DX =    0.0                 !
 ! A1    A(2,1,15)             109.8855         -DE/DX =    0.0                 !
 ! A2    A(2,1,16)             110.8134         -DE/DX =    0.0                 !
 ! A3    A(2,1,17)             110.5633         -DE/DX =    0.0                 !
 ! A4    A(15,1,16)            108.3419         -DE/DX =    0.0                 !
 ! A5    A(15,1,17)            108.2162         -DE/DX =    0.0                 !
 ! A6    A(16,1,17)            108.9501         -DE/DX =    0.0                 !
 ! A7    A(1,2,3)              111.7699         -DE/DX =    0.0                 !
 ! A8    A(1,2,18)             110.7623         -DE/DX =    0.0                 !
 ! A9    A(1,2,19)             111.2365         -DE/DX =    0.0                 !
 ! A10   A(3,2,18)             109.115          -DE/DX =    0.0                 !
 ! A11   A(3,2,19)             104.8193         -DE/DX =    0.0                 !
 ! A12   A(18,2,19)            108.9353         -DE/DX =    0.0                 !
 ! A13   A(2,3,4)              117.1819         -DE/DX =    0.0                 !
 ! A14   A(3,4,5)              122.8855         -DE/DX =    0.0                 !
 ! A15   A(3,4,6)              110.8781         -DE/DX =    0.0                 !
 ! A16   A(5,4,6)              126.2338         -DE/DX =    0.0                 !
 ! A17   A(4,6,7)              120.7016         -DE/DX =    0.0                 !
 ! A18   A(4,6,11)             122.4192         -DE/DX =    0.0                 !
 ! A19   A(7,6,11)             116.8783         -DE/DX =    0.0                 !
 ! A20   A(6,7,8)              120.5291         -DE/DX =    0.0                 !
 ! A21   A(6,7,20)             118.5039         -DE/DX =    0.0                 !
 ! A22   A(8,7,20)             120.967          -DE/DX =    0.0                 !
 ! A23   A(7,8,9)              117.4284         -DE/DX =    0.0                 !
 ! A24   A(7,8,21)             121.5463         -DE/DX =    0.0                 !
 ! A25   A(9,8,21)             121.0249         -DE/DX =    0.0                 !
 ! A26   A(8,9,10)             123.3894         -DE/DX =    0.0                 !
 ! A27   A(8,9,22)             120.5512         -DE/DX =    0.0                 !
 ! A28   A(10,9,22)            116.0593         -DE/DX =    0.0                 !
 ! A29   A(9,10,11)            119.394          -DE/DX =    0.0                 !
 ! A30   A(6,11,10)            122.3776         -DE/DX =    0.0                 !
 ! A31   A(6,11,12)            118.6917         -DE/DX =    0.0                 !
 ! A32   A(10,11,12)           118.9251         -DE/DX =    0.0                 !
 ! A33   A(11,12,13)           119.7726         -DE/DX =    0.0                 !
 ! A34   A(12,13,14)           111.9443         -DE/DX =    0.0                 !
 ! A35   A(12,13,23)           104.1421         -DE/DX =    0.0                 !
 ! A36   A(12,13,24)           109.6698         -DE/DX =    0.0                 !
 ! A37   A(14,13,23)           110.9178         -DE/DX =    0.0                 !
 ! A38   A(14,13,24)           110.9222         -DE/DX =    0.0                 !
 ! A39   A(23,13,24)           109.0093         -DE/DX =    0.0                 !
 ! A40   A(13,14,25)           110.6828         -DE/DX =    0.0                 !
 ! A41   A(13,14,26)           109.8345         -DE/DX =    0.0                 !
 ! A42   A(13,14,27)           110.5932         -DE/DX =    0.0                 !
 ! A43   A(25,14,26)           108.2648         -DE/DX =    0.0                 !
 ! A44   A(25,14,27)           108.9929         -DE/DX =    0.0                 !
 ! A45   A(26,14,27)           108.4078         -DE/DX =    0.0                 !
 ! D1    D(15,1,2,3)          -175.6299         -DE/DX =    0.0                 !
 ! D2    D(15,1,2,18)           62.4656         -DE/DX =    0.0                 !
 ! D3    D(15,1,2,19)          -58.843          -DE/DX =    0.0                 !
 ! D4    D(16,1,2,3)           -55.9272         -DE/DX =    0.0                 !
 ! D5    D(16,1,2,18)         -177.8317         -DE/DX =    0.0                 !
 ! D6    D(16,1,2,19)           60.8597         -DE/DX =    0.0                 !
 ! D7    D(17,1,2,3)            64.9809         -DE/DX =    0.0                 !
 ! D8    D(17,1,2,18)          -56.9237         -DE/DX =    0.0                 !
 ! D9    D(17,1,2,19)         -178.2322         -DE/DX =    0.0                 !
 ! D10   D(1,2,3,4)            -83.0841         -DE/DX =    0.0                 !
 ! D11   D(18,2,3,4)            39.763          -DE/DX =    0.0                 !
 ! D12   D(19,2,3,4)           156.3109         -DE/DX =    0.0                 !
 ! D13   D(2,3,4,5)             -0.3052         -DE/DX =    0.0                 !
 ! D14   D(2,3,4,6)           -179.755          -DE/DX =    0.0                 !
 ! D15   D(3,4,6,7)              6.162          -DE/DX =    0.0                 !
 ! D16   D(3,4,6,11)          -174.2037         -DE/DX =    0.0                 !
 ! D17   D(5,4,6,7)           -173.2652         -DE/DX =    0.0                 !
 ! D18   D(5,4,6,11)             6.3691         -DE/DX =    0.0                 !
 ! D19   D(4,6,7,8)            179.1914         -DE/DX =    0.0                 !
 ! D20   D(4,6,7,20)            -0.7028         -DE/DX =    0.0                 !
 ! D21   D(11,6,7,8)            -0.4624         -DE/DX =    0.0                 !
 ! D22   D(11,6,7,20)          179.6434         -DE/DX =    0.0                 !
 ! D23   D(4,6,11,10)         -178.9636         -DE/DX =    0.0                 !
 ! D24   D(4,6,11,12)            1.9017         -DE/DX =    0.0                 !
 ! D25   D(7,6,11,10)            0.6838         -DE/DX =    0.0                 !
 ! D26   D(7,6,11,12)         -178.4509         -DE/DX =    0.0                 !
 ! D27   D(6,7,8,9)              0.0346         -DE/DX =    0.0                 !
 ! D28   D(6,7,8,21)          -179.759          -DE/DX =    0.0                 !
 ! D29   D(20,7,8,9)           179.9261         -DE/DX =    0.0                 !
 ! D30   D(20,7,8,21)            0.1325         -DE/DX =    0.0                 !
 ! D31   D(7,8,9,10)             0.2386         -DE/DX =    0.0                 !
 ! D32   D(7,8,9,22)          -179.673          -DE/DX =    0.0                 !
 ! D33   D(21,8,9,10)         -179.9667         -DE/DX =    0.0                 !
 ! D34   D(21,8,9,22)            0.1217         -DE/DX =    0.0                 !
 ! D35   D(8,9,10,11)           -0.0371         -DE/DX =    0.0                 !
 ! D36   D(22,9,10,11)         179.8782         -DE/DX =    0.0                 !
 ! D37   D(9,10,11,6)           -0.4407         -DE/DX =    0.0                 !
 ! D38   D(9,10,11,12)         178.692          -DE/DX =    0.0                 !
 ! D39   D(6,11,12,13)        -179.0992         -DE/DX =    0.0                 !
 ! D40   D(10,11,12,13)          1.7358         -DE/DX =    0.0                 !
 ! D41   D(11,12,13,14)         81.5299         -DE/DX =    0.0                 !
 ! D42   D(11,12,13,23)       -158.5717         -DE/DX =    0.0                 !
 ! D43   D(11,12,13,24)        -42.0342         -DE/DX =    0.0                 !
 ! D44   D(12,13,14,25)        -66.1818         -DE/DX =    0.0                 !
 ! D45   D(12,13,14,26)        174.3262         -DE/DX =    0.0                 !
 ! D46   D(12,13,14,27)         54.7133         -DE/DX =    0.0                 !
 ! D47   D(23,13,14,25)        177.9697         -DE/DX =    0.0                 !
 ! D48   D(23,13,14,26)         58.4778         -DE/DX =    0.0                 !
 ! D49   D(23,13,14,27)        -61.1352         -DE/DX =    0.0                 !
 ! D50   D(24,13,14,25)         56.6747         -DE/DX =    0.0                 !
 ! D51   D(24,13,14,26)        -62.8172         -DE/DX =    0.0                 !
 ! D52   D(24,13,14,27)        177.5699         -DE/DX =    0.0                 !
 --------------------------------------------------------------------------------
 GradGradGradGradGradGradGradGradGradGradGradGradGradGradGradGradGradGrad

                          Input orientation:                          
 ---------------------------------------------------------------------
 Center     Atomic      Atomic             Coordinates (Angstroms)
 Number     Number       Type             X           Y           Z
 ---------------------------------------------------------------------
      1          6           0        4.203230   -0.775170    0.811060
      2          6           0        3.644410   -0.298110   -0.515320
      3          8           0        2.425970    0.424070   -0.346980
      4          6           0        1.294500   -0.296290   -0.236990
      5          8           0        1.278680   -1.497340   -0.280540
      6          6           0        0.109260    0.596440   -0.072910
      7          6           0        0.240820    1.980730   -0.176740
      8          6           0       -0.870340    2.809310   -0.039670
      9          6           0       -2.095690    2.201600    0.202150
     10          7           0       -2.250980    0.885030    0.311360
     11          6           0       -1.194900    0.092230    0.185630
     12          8           0       -1.355650   -1.215600    0.322080
     13          6           0       -2.655030   -1.747220    0.562360
     14          6           0       -3.456370   -1.885110   -0.717380
     15          1           0        5.178830   -1.258520    0.653930
     16          1           0        4.342400    0.068580    1.502640
     17          1           0        3.527480   -1.507760    1.273430
     18          1           0        3.469410   -1.146810   -1.192530
     19          1           0        4.326790    0.411770   -1.002380
     20          1           0        1.230130    2.396320   -0.368730
     21          1           0       -0.787150    3.893220   -0.121620
     22          1           0       -3.003870    2.804180    0.313160
     23          1           0       -2.463610   -2.730380    1.013030
     24          1           0       -3.184170   -1.116200    1.290890
     25          1           0       -3.676520   -0.897580   -1.145690
     26          1           0       -4.410830   -2.390510   -0.507550
     27          1           0       -2.903300   -2.481070   -1.457720
 ---------------------------------------------------------------------
                    Distance matrix (angstroms):
                    1          2          3          4          5
     1  C    0.000000
     2  C    1.516295   0.000000
     3  O    2.436778   1.426351   0.000000
     4  C    3.128649   2.366336   1.345823   0.000000
     5  O    3.204078   2.662697   2.238862   1.201943   0.000000
     6  C    4.407188   3.673313   2.339224   1.492877   2.407191
     7  C    4.926604   4.110009   2.688318   2.509719   3.631102
     8  C    6.270036   5.501388   4.080376   3.790807   4.819081
     9  C    6.993449   6.301751   4.889434   4.233874   5.030062
    10  N    6.683023   6.069501   4.745499   3.777120   4.299364
    11  C    5.503031   4.905366   3.674846   2.554734   2.977020
    12  O    5.597698   5.152051   4.175741   2.860242   2.717025
    13  C    6.931267   6.553187   5.599818   4.282867   4.030756
    14  C    7.889079   7.278769   6.330200   5.032483   4.770943
    15  H    1.100051   2.154989   3.378042   4.099713   4.017641
    16  H    1.099802   2.166521   2.687038   3.528333   3.875334
    17  H    1.098687   2.162534   2.751549   2.955542   2.733502
    18  H    2.165867   1.099786   2.066733   2.523227   2.398728
    19  H    2.170866   1.098544   2.010676   3.206549   3.668341
    20  H    4.504395   3.620800   2.306572   2.696599   3.894961
    21  H    6.896930   6.112362   4.733913   4.679591   5.775036
    22  H    8.062378   7.383103   5.965222   5.328373   6.098835
    23  H    6.950568   6.749793   5.975632   4.648735   4.147101
    24  H    7.410818   7.110638   6.043899   4.802620   4.746756
    25  H    8.119995   7.372432   6.294846   5.089040   5.065788
    26  H    8.862849   8.322565   7.395233   6.083564   5.763663
    27  H    7.652465   6.966056   6.170470   4.887225   4.454485
                    6          7          8          9         10
     6  C    0.000000
     7  C    1.394399   0.000000
     8  C    2.420230   1.392842   0.000000
     9  C    2.741168   2.377314   1.388982   0.000000
    10  N    2.408668   2.765478   2.394210   1.330187   0.000000
    11  C    1.421937   2.399799   2.745655   2.293717   1.326516
    12  O    2.363359   3.607501   4.070171   3.498471   2.283501
    13  C    3.679349   4.778057   4.930469   4.004471   2.674883
    14  C    4.391714   5.376451   5.402261   4.404337   3.191386
    15  H    5.446991   5.963782   7.322621   8.068158   7.740429
    16  H    4.547578   4.826965   6.087937   6.905798   6.749696
    17  H    4.233736   5.007463   6.300964   6.821073   6.327845
    18  H    3.947541   4.608376   5.984430   6.642840   6.254032
    19  H    4.322682   4.454039   5.803893   6.775148   6.724355
    20  H    2.140894   1.090096   2.165829   3.380074   3.855470
    21  H    3.416823   2.171953   1.090182   2.163026   3.373348
    22  H    3.835980   3.383206   2.162514   1.095544   2.061549
    23  H    4.343577   5.560940   5.859595   5.011718   3.689003
    24  H    3.954715   4.845149   4.746981   3.657587   2.415625
    25  H    4.208929   4.956721   4.779012   3.731034   2.707925
    26  H    5.435255   6.391793   6.308099   5.191437   4.008083
    27  H    4.523747   5.606609   5.842252   5.033369   3.858211
                   11         12         13         14         15
    11  C    0.000000
    12  O    1.324718   0.000000
    13  C    2.378546   1.424339   0.000000
    14  C    3.136805   2.437570   1.516210   0.000000
    15  H    6.532095   6.543042   7.849623   8.765831   0.000000
    16  H    5.691816   5.959078   7.290081   8.340636   1.783569
    17  H    5.103347   4.983511   6.227872   7.271855   1.781252
    18  H    5.018997   5.057665   6.399132   6.981209   2.518732
    19  H    5.657078   6.057446   7.473651   8.120004   2.501840
    20  H    3.390710   4.495491   5.755894   6.357317   5.476853
    21  H    3.835126   5.159467   5.980917   6.392868   7.920532
    22  H    3.262408   4.344576   4.571546   4.822469   9.142113
    23  H    3.203333   1.999886   1.098339   2.166650   7.791163
    24  H    2.576645   2.071704   1.099514   2.167594   8.388429
    25  H    2.985059   2.764403   2.163970   1.098695   9.043569
    26  H    4.121493   3.376807   2.154382   1.100205   9.725843
    27  H    3.498729   2.676625   2.163538   1.099617   8.442424
                   16         17         18         19         20
    16  H    0.000000
    17  H    1.789268   0.000000
    18  H    3.082730   2.492913   0.000000
    19  H    2.528468   3.082662   1.788974   0.000000
    20  H    4.313540   4.818334   4.271626   3.732192   0.000000
    21  H    6.601392   7.052147   6.683342   6.248889   2.524122
    22  H    7.928812   7.885016   7.731803   7.822586   4.307909
    23  H    7.375342   6.120112   6.524792   7.748840   6.468078
    24  H    7.622191   6.723085   7.102002   8.000519   5.880321
    25  H    8.500011   7.623784   7.150428   8.110974   5.960592
    26  H    9.311661   8.183392   8.007132   9.189322   7.399557
    27  H    8.231927   7.054179   6.516288   7.800645   6.485374
                   21         22         23         24         25
    21  H    0.000000
[...]
 Alpha virt. eigenvalues --    6.01625   6.05619   6.10141   6.17565   6.25473
 Alpha virt. eigenvalues --    6.32154   6.39059   6.45940   6.47336   6.54643
 Alpha virt. eigenvalues --    6.68098   6.74901   6.75891   6.80204   6.87246
 Alpha virt. eigenvalues --    6.89891   6.94822   7.03508   7.03889   7.09012
 Alpha virt. eigenvalues --    7.17577   7.25786   7.31577   7.45401   7.55331
 Alpha virt. eigenvalues --    7.57308  22.41219  22.42588  22.51865  22.58305
 Alpha virt. eigenvalues --   22.61363  22.74208  22.92236  23.13057  23.35606
 Alpha virt. eigenvalues --   23.65578  32.68429  44.07425  44.34291  44.47771
          Condensed to atoms (all electrons):
               1          2          3          4          5          6
     1  C    4.965512   0.322483  -0.038463   0.002201  -0.014612  -0.002760
     2  C    0.322483   4.785095   0.219237  -0.040891   0.012342   0.005872
     3  O   -0.038463   0.219237   8.004849   0.390001  -0.086572  -0.183835
     4  C    0.002201  -0.040891   0.390001   4.494619   0.655456   0.233786
     5  O   -0.014612   0.012342  -0.086572   0.655456   7.866338  -0.099620
     6  C   -0.002760   0.005872  -0.183835   0.233786  -0.099620   5.553209
     7  C    0.000842  -0.002535   0.038690  -0.045474   0.006630   0.422546
     8  C   -0.000011  -0.000028   0.000040   0.006000  -0.000180  -0.037756
     9  C    0.000003  -0.000018   0.000439  -0.001792   0.000216  -0.041451
    10  N   -0.000001   0.000025  -0.000212   0.003844  -0.000310  -0.069336
    11  C   -0.000112   0.000429  -0.005076  -0.068543   0.000808   0.391136
    12  O   -0.000052   0.000159  -0.000191   0.014081  -0.014810  -0.120016
    13  C   -0.000000  -0.000013   0.000023  -0.000335   0.001691   0.000292
    14  C   -0.000000   0.000002  -0.000003  -0.000139  -0.000532   0.002654
    15  H    0.396952  -0.033052   0.004193   0.000654   0.000206   0.000034
    16  H    0.394583  -0.030268   0.003365  -0.002378   0.000473  -0.001307
    17  H    0.418516  -0.038968  -0.003073   0.003524   0.006468   0.002822
    18  H   -0.046715   0.427609  -0.034025  -0.012891   0.011182  -0.001631
    19  H   -0.031400   0.397092  -0.034025   0.003319   0.001361   0.005047
    20  H    0.000014  -0.000294   0.016890  -0.014418   0.000437  -0.028693
    21  H   -0.000000   0.000001  -0.000122  -0.000083   0.000002   0.010020
    22  H   -0.000000   0.000000  -0.000001   0.000117  -0.000001  -0.000741
    23  H    0.000001  -0.000001   0.000001  -0.000376   0.000140   0.003466
    24  H    0.000000   0.000001   0.000000   0.000184  -0.000033  -0.006902
    25  H    0.000000  -0.000000   0.000001  -0.000056   0.000019   0.003418
    26  H    0.000000  -0.000000   0.000000   0.000009   0.000004  -0.000112
    27  H    0.000000  -0.000000   0.000000   0.000049   0.000186  -0.002429
               7          8          9         10         11         12
     1  C    0.000842  -0.000011   0.000003  -0.000001  -0.000112  -0.000052
     2  C   -0.002535  -0.000028  -0.000018   0.000025   0.000429   0.000159
     3  O    0.038690   0.000040   0.000439  -0.000212  -0.005076  -0.000191
     4  C   -0.045474   0.006000  -0.001792   0.003844  -0.068543   0.014081
     5  O    0.006630  -0.000180   0.000216  -0.000310   0.000808  -0.014810
     6  C    0.422546  -0.037756  -0.041451  -0.069336   0.391136  -0.120016
     7  C    4.982117   0.459744   0.010030  -0.037773  -0.056455  -0.000490
     8  C    0.459744   4.977027   0.503532  -0.061247  -0.030250   0.001894
     9  C    0.010030   0.503532   4.692287   0.542877  -0.078234   0.000028
    10  N   -0.037773  -0.061247   0.542877   6.642762   0.428177  -0.082452
    11  C   -0.056455  -0.030250  -0.078234   0.428177   4.694620   0.429163
    12  O   -0.000490   0.001894   0.000028  -0.082452   0.429163   7.884737
    13  C   -0.001377  -0.000045  -0.001444  -0.018030  -0.029501   0.226401
    14  C    0.000071   0.000046  -0.000501  -0.008823   0.002803  -0.041694
    15  H   -0.000015  -0.000000   0.000000   0.000000  -0.000003   0.000000
    16  H    0.000222   0.000014   0.000001  -0.000001  -0.000061   0.000001
    17  H   -0.000274   0.000007  -0.000001   0.000001   0.000128   0.000018
    18  H    0.000731   0.000023   0.000002  -0.000001  -0.000587  -0.000008
    19  H   -0.001254  -0.000035  -0.000004   0.000000   0.000134   0.000001
    20  H    0.420795  -0.043685   0.004205  -0.000883   0.007823  -0.000104
    21  H   -0.055414   0.425922  -0.036603   0.006367  -0.001011   0.000038
    22  H    0.004217  -0.069753   0.430174  -0.032530   0.005840  -0.000085
    23  H    0.000062   0.000035   0.000059   0.001073   0.002764  -0.035440
    24  H    0.000180  -0.000217   0.001598   0.023958  -0.022200  -0.029178
    25  H   -0.000064   0.000257   0.000457   0.007440   0.002508  -0.001883
    26  H   -0.000004   0.000004   0.000058   0.000503   0.000328   0.004483
    27  H    0.000028  -0.000020   0.000071   0.000813  -0.002276   0.003868
              13         14         15         16         17         18
     1  C   -0.000000  -0.000000   0.396952   0.394583   0.418516  -0.046715
     2  C   -0.000013   0.000002  -0.033052  -0.030268  -0.038968   0.427609
     3  O    0.000023  -0.000003   0.004193   0.003365  -0.003073  -0.034025
     4  C   -0.000335  -0.000139   0.000654  -0.002378   0.003524  -0.012891
     5  O    0.001691  -0.000532   0.000206   0.000473   0.006468   0.011182
     6  C    0.000292   0.002654   0.000034  -0.001307   0.002822  -0.001631
     7  C   -0.001377   0.000071  -0.000015   0.000222  -0.000274   0.000731
     8  C   -0.000045   0.000046  -0.000000   0.000014   0.000007   0.000023
     9  C   -0.001444  -0.000501   0.000000   0.000001  -0.000001   0.000002
    10  N   -0.018030  -0.008823   0.000000  -0.000001   0.000001  -0.000001
    11  C   -0.029501   0.002803  -0.000003  -0.000061   0.000128  -0.000587
    12  O    0.226401  -0.041694   0.000000   0.000001   0.000018  -0.000008
    13  C    4.784555   0.323163   0.000000  -0.000000   0.000002  -0.000001
    14  C    0.323163   4.965828  -0.000000   0.000000   0.000000  -0.000001
    15  H    0.000000  -0.000000   0.555813  -0.019564  -0.020381   0.000901
    16  H   -0.000000   0.000000  -0.019564   0.562759  -0.023135   0.007141
    17  H    0.000002   0.000000  -0.020381  -0.023135   0.506910  -0.005275
    18  H   -0.000001  -0.000001   0.000901   0.007141  -0.005275   0.565390
    19  H    0.000000  -0.000000  -0.002422  -0.005662   0.004870  -0.031657
    20  H    0.000023  -0.000003  -0.000003   0.000116  -0.000010   0.000209
    21  H   -0.000001   0.000005   0.000000  -0.000001   0.000000  -0.000001
    22  H    0.000071   0.000137   0.000000   0.000000   0.000000   0.000000
    23  H    0.397936  -0.029086  -0.000000  -0.000000   0.000000  -0.000000
    24  H    0.419768  -0.045400  -0.000000  -0.000000  -0.000000  -0.000000
    25  H   -0.045624   0.417987  -0.000000  -0.000000   0.000000  -0.000000
    26  H   -0.033041   0.393485  -0.000000  -0.000000  -0.000000  -0.000000
    27  H   -0.031207   0.399738   0.000000  -0.000000  -0.000000   0.000000
              19         20         21         22         23         24
     1  C   -0.031400   0.000014  -0.000000  -0.000000   0.000001   0.000000
     2  C    0.397092  -0.000294   0.000001   0.000000  -0.000001   0.000001
     3  O   -0.034025   0.016890  -0.000122  -0.000001   0.000001   0.000000
     4  C    0.003319  -0.014418  -0.000083   0.000117  -0.000376   0.000184
     5  O    0.001361   0.000437   0.000002  -0.000001   0.000140  -0.000033
     6  C    0.005047  -0.028693   0.010020  -0.000741   0.003466  -0.006902
     7  C   -0.001254   0.420795  -0.055414   0.004217   0.000062   0.000180
     8  C   -0.000035  -0.043685   0.425922  -0.069753   0.000035  -0.000217
     9  C   -0.000004   0.004205  -0.036603   0.430174   0.000059   0.001598
    10  N    0.000000  -0.000883   0.006367  -0.032530   0.001073   0.023958
    11  C    0.000134   0.007823  -0.001011   0.005840   0.002764  -0.022200
    12  O    0.000001  -0.000104   0.000038  -0.000085  -0.035440  -0.029178
    13  C    0.000000   0.000023  -0.000001   0.000071   0.397936   0.419768
    14  C   -0.000000  -0.000003   0.000005   0.000137  -0.029086  -0.045400
    15  H   -0.002422  -0.000003   0.000000   0.000000  -0.000000  -0.000000
    16  H   -0.005662   0.000116  -0.000001   0.000000  -0.000000  -0.000000
    17  H    0.004870  -0.000010   0.000000   0.000000   0.000000  -0.000000
    18  H   -0.031657   0.000209  -0.000001   0.000000  -0.000000  -0.000000
    19  H    0.583363  -0.000376   0.000001  -0.000000  -0.000000   0.000000
    20  H   -0.000376   0.486154  -0.005298  -0.000180  -0.000001   0.000006
    21  H    0.000001  -0.005298   0.527409  -0.001827  -0.000000  -0.000010
    22  H   -0.000000  -0.000180  -0.001827   0.535925  -0.000014  -0.000113
    23  H   -0.000000  -0.000001  -0.000000  -0.000014   0.576476  -0.032766
    24  H    0.000000   0.000006  -0.000010  -0.000113  -0.032766   0.583112
    25  H    0.000000  -0.000001  -0.000006  -0.000223   0.005084  -0.004966
    26  H    0.000000   0.000000  -0.000000  -0.000002  -0.002540   0.001284
    27  H   -0.000000   0.000001  -0.000000  -0.000000  -0.005235   0.007003
              25         26         27
     1  C    0.000000   0.000000   0.000000
     2  C   -0.000000  -0.000000  -0.000000
     3  O    0.000001   0.000000   0.000000
     4  C   -0.000056   0.000009   0.000049
     5  O    0.000019   0.000004   0.000186
     6  C    0.003418  -0.000112  -0.002429
     7  C   -0.000064  -0.000004   0.000028
     8  C    0.000257   0.000004  -0.000020
     9  C    0.000457   0.000058   0.000071
    10  N    0.007440   0.000503   0.000813
    11  C    0.002508   0.000328  -0.002276
    12  O   -0.001883   0.004483   0.003868
    13  C   -0.045624  -0.033041  -0.031207
    14  C    0.417987   0.393485   0.399738
    15  H   -0.000000  -0.000000   0.000000
    16  H   -0.000000  -0.000000  -0.000000
    17  H    0.000000  -0.000000  -0.000000
    18  H   -0.000000  -0.000000   0.000000
    19  H    0.000000   0.000000  -0.000000
    20  H   -0.000001   0.000000   0.000001
    21  H   -0.000006  -0.000000  -0.000000
    22  H   -0.000223  -0.000002  -0.000000
    23  H    0.005084  -0.002540  -0.005235
    24  H   -0.004966   0.001284   0.007003
    25  H    0.524663  -0.021052  -0.023666
    26  H   -0.021052   0.561475  -0.018832
    27  H   -0.023666  -0.018832   0.548939
 Mulliken charges:
               1
     1  C   -0.366980
     2  C   -0.024281
     3  O   -0.292131
     4  C    0.379532
     5  O   -0.347292
     6  C   -0.037713
     7  C   -0.145775
     8  C   -0.131315
     9  C   -0.025989
    10  N   -0.346242
    11  C    0.327648
    12  O   -0.238472
    13  C    0.006696
    14  C   -0.379736
    15  H    0.116688
    16  H    0.113702
    17  H    0.147852
    18  H    0.119606
    19  H    0.111645
    20  H    0.157277
    21  H    0.130611
    22  H    0.128990
    23  H    0.118361
    24  H    0.104691
    25  H    0.135708
    26  H    0.113951
    27  H    0.122969
 Sum of Mulliken charges =  -0.00000
 Mulliken charges with hydrogens summed into heavy atoms:
               1
     1  C    0.011261
     2  C    0.206969
     3  O   -0.292131
     4  C    0.379532
     5  O   -0.347292
     6  C   -0.037713
     7  C    0.011502
     8  C   -0.000705
     9  C    0.103000
    10  N   -0.346242
    11  C    0.327648
    12  O   -0.238472
    13  C    0.229748
    14  C   -0.007108
 Electronic spatial extent (au):  <R**2>=           3329.4631
 Charge=              0.0000 electrons
 Dipole moment (field-independent basis, Debye):
    X=              0.4408    Y=              1.9446    Z=              0.0018  Tot=              1.9940
 Quadrupole moment (field-independent basis, Debye-Ang):
   XX=            -70.3448   YY=            -77.7861   ZZ=            -82.9887
   XY=              2.4799   XZ=             -1.3919   YZ=             -1.3591
 Traceless Quadrupole moment (field-independent basis, Debye-Ang):
   XX=              6.6951   YY=             -0.7462   ZZ=             -5.9488
   XY=              2.4799   XZ=             -1.3919   YZ=             -1.3591
 Octapole moment (field-independent basis, Debye-Ang**2):
  XXX=             41.0233  YYY=             14.5399  ZZZ=             -0.8580  XYY=            -17.0001
  XXY=            -14.0056  XXZ=             -2.7026  XZZ=              5.5669  YZZ=             -9.0958
  YYZ=              1.6206  XYZ=              0.9082
 Hexadecapole moment (field-independent basis, Debye-Ang**3):
 XXXX=          -2803.5267 YYYY=          -1126.1717 ZZZZ=           -220.4861 XXXY=             -0.5423
 XXXZ=            -40.7764 YYYX=              3.8021 YYYZ=            -12.2319 ZZZX=            -13.4739
 ZZZY=              0.1241 XXYY=           -649.0836 XXZZ=           -540.3845 YYZZ=           -248.7819
 XXYZ=             -5.0553 YYXZ=            -12.2418 ZZXY=              7.1027
 N-N= 8.994638949208D+02 E-N=-3.362074930566D+03  KE= 6.660500015732D+02
 Breneman (CHELPG) radii used.
 Read replacement radii for each type of atom:
 Atom Element Radius
    1     6    1.50
    2     6    1.50
    3     8    1.70
    4     6    1.50
    5     8    1.70
    6     6    1.50
    7     6    1.50
    8     6    1.50
    9     6    1.50
   10     7    1.70
   11     6    1.50
   12     8    1.70
   13     6    1.50
   14     6    1.50
   15     1    1.45
   16     1    1.45
   17     1    1.45
   18     1    1.45
   19     1    1.45
   20     1    1.45
   21     1    1.45
   22     1    1.45
   23     1    1.45
   24     1    1.45
   25     1    1.45
   26     1    1.45
   27     1    1.45
 Generate Potential Derived Charges using the Breneman model, NDens= 1.
 Grid spacing= 0.300 Box extension= 2.800
 NStep X,Y,Z=   52     42     30   Total possible points=       65520
 Number of Points to Fit=   17383

 **********************************************************************

            Electrostatic Properties Using The SCF Density.

 **********************************************************************

       Atomic Center    1 is at   4.203229 -0.775172  0.811060
       Atomic Center    2 is at   3.644409 -0.298112 -0.515320
       Atomic Center    3 is at   2.425970  0.424069 -0.346980
       Atomic Center    4 is at   1.294499 -0.296290 -0.236990
       Atomic Center    5 is at   1.278678 -1.497340 -0.280540
       Atomic Center    6 is at   0.109260  0.596440 -0.072910
       Atomic Center    7 is at   0.240821  1.980730 -0.176740
       Atomic Center    8 is at  -0.870339  2.809311 -0.039670
       Atomic Center    9 is at  -2.095689  2.201602  0.202150
       Atomic Center   10 is at  -2.250980  0.885032  0.311360
       Atomic Center   11 is at  -1.194901  0.092231  0.185630
       Atomic Center   12 is at  -1.355651 -1.215599  0.322080
       Atomic Center   13 is at  -2.655032 -1.747218  0.562360
       Atomic Center   14 is at  -3.456372 -1.885107 -0.717380
       Atomic Center   15 is at   5.178829 -1.258523  0.653930
       Atomic Center   16 is at   4.342399  0.068578  1.502640
       Atomic Center   17 is at   3.527478 -1.507762  1.273430
       Atomic Center   18 is at   3.469409 -1.146812 -1.192530
       Atomic Center   19 is at   4.326790  0.411768 -1.002380
       Atomic Center   20 is at   1.230131  2.396320 -0.368730
       Atomic Center   21 is at  -0.787148  3.893221 -0.121620
       Atomic Center   22 is at  -3.003869  2.804182  0.313160
       Atomic Center   23 is at  -2.463612 -2.730378  1.013030
       Atomic Center   24 is at  -3.184171 -1.116198  1.290890
       Atomic Center   25 is at  -3.676521 -0.897577 -1.145690
       Atomic Center   26 is at  -4.410832 -2.390507 -0.507550
       Atomic Center   27 is at  -2.903302 -2.481068 -1.457720
   17383 points will be used for fitting atomic charges
 Fitting point charges to electrostatic potential
 Charges from ESP fit, RMS=   0.00277 RRMS=   0.23029:
 ESP charges:
               1
     1  C   -0.201724
     2  C    0.298642
     3  O   -0.421078
     4  C    0.712501
     5  O   -0.489517
     6  C   -0.412964
     7  C    0.129143
     8  C   -0.342760
     9  C    0.255082
    10  N   -0.522705
    11  C    0.742595
    12  O   -0.467440
    13  C    0.374391
    14  C   -0.266338
    15  H    0.047984
    16  H    0.053304
    17  H    0.068852
    18  H   -0.009294
    19  H    0.011083
    20  H    0.084504
    21  H    0.136028
    22  H    0.057859
    23  H    0.014555
    24  H   -0.052022
    25  H    0.059109
    26  H    0.060921
    27  H    0.079288
 Sum of ESP charges =   0.00000
 ESP charges with hydrogens summed into heavy atoms:
               1
     1  C   -0.031584
     2  C    0.300431
     3  O   -0.421078
     4  C    0.712501
     5  O   -0.489517
     6  C   -0.412964
     7  C    0.213647
     8  C   -0.206731
     9  C    0.312941
    10  N   -0.522705
    11  C    0.742595
    12  O   -0.467440
    13  C    0.336924
    14  C   -0.067020
 Charge=   0.00000 Dipole=     0.4312     1.9826    -0.0068 Tot=     2.0289
 -----------------------------------------------------------------

              Electrostatic Properties (Atomic Units)

 -----------------------------------------------------------------
    Center     Electric         -------- Electric Field --------
               Potential          X             Y             Z
 -----------------------------------------------------------------
    1 Atom    -14.774709
    2 Atom    -14.711792
    3 Atom    -22.319529
    4 Atom    -14.643637
    5 Atom    -22.388785
    6 Atom    -14.745373
    7 Atom    -14.743503
    8 Atom    -14.762532
    9 Atom    -14.723332
   10 Atom    -18.396787
   11 Atom    -14.663499
   12 Atom    -22.325366
   13 Atom    -14.718117
   14 Atom    -14.780424
   15 Atom     -1.112375
   16 Atom     -1.118552
   17 Atom     -1.121368
   18 Atom     -1.115339
   19 Atom     -1.112198
   20 Atom     -1.089792
   21 Atom     -1.092271
   22 Atom     -1.097002
   23 Atom     -1.120636
   24 Atom     -1.121788
   25 Atom     -1.126160
   26 Atom     -1.117451
   27 Atom     -1.124644
 -----------------------------------------------------------------
 Unable to Open any file for archive entry.
 1\1\GINC-NOTCH450\SP\RwB97XD\def2TZVP\C10H13N1O3\U6053008\12-Jul-2024\
 0\\#N Guess=Read Geom=Check Integral(Ultrafine) Density Pop=(ChelpG,Re
 adRadii) NMR wB97XD def2TZVP\\12326832_6\\0,1\C,0,4.20323,-0.77517,0.8
 1106\C,0,3.64441,-0.29811,-0.51532\O,0,2.42597,0.42407,-0.34698\C,0,1.
 2945,-0.29629,-0.23699\O,0,1.27868,-1.49734,-0.28054\C,0,0.10926,0.596
 44,-0.07291\C,0,0.24082,1.98073,-0.17674\C,0,-0.87034,2.80931,-0.03967
 \C,0,-2.09569,2.2016,0.20215\N,0,-2.25098,0.88503,0.31136\C,0,-1.1949,
 0.09223,0.18563\O,0,-1.35565,-1.2156,0.32208\C,0,-2.65503,-1.74722,0.5
 6236\C,0,-3.45637,-1.88511,-0.71738\H,0,5.17883,-1.25852,0.65393\H,0,4
 .3424,0.06858,1.50264\H,0,3.52748,-1.50776,1.27343\H,0,3.46941,-1.1468
 1,-1.19253\H,0,4.32679,0.41177,-1.00238\H,0,1.23013,2.39632,-0.36873\H
 ,0,-0.78715,3.89322,-0.12162\H,0,-3.00387,2.80418,0.31316\H,0,-2.46361
 ,-2.73038,1.01303\H,0,-3.18417,-1.1162,1.29089\H,0,-3.67652,-0.89758,-
 1.14569\H,0,-4.41083,-2.39051,-0.50755\H,0,-2.9033,-2.48107,-1.45772\\
 Version=ES64L-G16RevC.01\State=1-A\HF=-669.3631963\RMSD=2.649e-09\Dipo
 le=0.1734315,0.765073,0.0007126\Quadrupole=4.9776111,-0.5547971,-4.422
 8141,1.8437573,-1.0348231,-1.0104587\PG=C01 [X(C10H13N1O3)]\\@
 The archive entry for this job was punched.


 AN AIRPLANE IS A COLLECTION OF SPARE PARTS
 FLYING IN CLOSE FORMATION.
 Job cpu time:       0 days  0 hours 38 minutes 10.4 seconds.
 Elapsed time:       0 days  0 hours  2 minutes 31.2 seconds.
 File lengths (MBytes):  RWF=    165 Int=      0 D2E=      0 Chk=     25 Scr=      2
 Normal termination of Gaussian 16 at Fri Jul 12 13:20:54 2024.
