 Entering Gaussian System, Link 0=g16
 Input=12326824_22.com
 Output=12326824_22.log
 Initial command:
 /uufs/chpc.utah.edu/sys/installdir/gaussian16/C01/AVX/g16/l1.exe "/scratch/general/vast/u6053008/1287122-notchpeak.peaks/Gau-2437597.inp" -scrdir="/scratch/general/vast/u6053008/1287122-notchpeak.peaks/"
 Entering Link 1 = /uufs/chpc.utah.edu/sys/installdir/gaussian16/C01/AVX/g16/l1.exe PID=   2437598.
  
 Copyright (c) 1988-2019, Gaussian, Inc.  All Rights Reserved.
  
 This is part of the Gaussian(R) 16 program.  It is based on
 the Gaussian(R) 09 system (copyright 2009, Gaussian, Inc.),
 the Gaussian(R) 03 system (copyright 2003, Gaussian, Inc.),
 the Gaussian(R) 98 system (copyright 1998, Gaussian, Inc.),
 the Gaussian(R) 94 system (copyright 1995, Gaussian, Inc.),
 the Gaussian 92(TM) system (copyright 1992, Gaussian, Inc.),
 the Gaussian 90(TM) system (copyright 1990, Gaussian, Inc.),
 the Gaussian 88(TM) system (copyright 1988, Gaussian, Inc.),
 the Gaussian 86(TM) system (copyright 1986, Carnegie Mellon
 University), and the Gaussian 82(TM) system (copyright 1983,
 Carnegie Mellon University). Gaussian is a federally registered
 trademark of Gaussian, Inc.
  
 This software contains proprietary and confidential information,
 including trade secrets, belonging to Gaussian, Inc.
  
 This software is provided under written license and may be
 used, copied, transmitted, or stored only in accord with that
 written license.
  
 The following legend is applicable only to US Government
 contracts under FAR:
  
                    RESTRICTED RIGHTS LEGEND
  
 Use, reproduction and disclosure by the US Government is
 subject to restrictions as set forth in subparagraphs (a)
 and (c) of the Commercial Computer Software - Restricted
 Rights clause in FAR 52.227-19.
  
 Gaussian, Inc.
 340 Quinnipiac St., Bldg. 40, Wallingford CT 06492
  
  
 ---------------------------------------------------------------
 Warning -- This program may not be used in any manner that
 competes with the business of Gaussian, Inc. or will provide
 assistance to any competitor of Gaussian, Inc.  The licensee
 of this program is prohibited from giving any competitor of
 Gaussian, Inc. access to this program.  By using this program,
 the user acknowledges that Gaussian, Inc. is engaged in the
 business of creating and licensing software in the field of
 computational chemistry and represents and warrants to the
 licensee that it is not a competitor of Gaussian, Inc. and that
 it will not use this program in any manner prohibited above.
 ---------------------------------------------------------------
  

 Cite this work as:
 Gaussian 16, Revision C.01,
 M. J. Frisch, G. W. Trucks, H. B. Schlegel, G. E. Scuseria, 
 M. A. Robb, J. R. Cheeseman, G. Scalmani, V. Barone, 
 G. A. Petersson, H. Nakatsuji, X. Li, M. Caricato, A. V. Marenich, 
 J. Bloino, B. G. Janesko, R. Gomperts, B. Mennucci, H. P. Hratchian, 
 J. V. Ortiz, A. F. Izmaylov, J. L. Sonnenberg, D. Williams-Young, 
 F. Ding, F. Lipparini, F. Egidi, J. Goings, B. Peng, A. Petrone, 
 T. Henderson, D. Ranasinghe, V. G. Zakrzewski, J. Gao, N. Rega, 
 G. Zheng, W. Liang, M. Hada, M. Ehara, K. Toyota, R. Fukuda, 
 J. Hasegawa, M. Ishida, T. Nakajima, Y. Honda, O. Kitao, H. Nakai, 
 T. Vreven, K. Throssell, J. A. Montgomery, Jr., J. E. Peralta, 
 F. Ogliaro, M. J. Bearpark, J. J. Heyd, E. N. Brothers, K. N. Kudin, 
 V. N. Staroverov, T. A. Keith, R. Kobayashi, J. Normand, 
 K. Raghavachari, A. P. Rendell, J. C. Burant, S. S. Iyengar, 
 J. Tomasi, M. Cossi, J. M. Millam, M. Klene, C. Adamo, R. Cammi, 
 J. W. Ochterski, R. L. Martin, K. Morokuma, O. Farkas, 
 J. B. Foresman, and D. J. Fox, Gaussian, Inc., Wallingford CT, 2019.
 
 ******************************************
 Gaussian 16:  ES64L-G16RevC.01  3-Jul-2019
                12-Jul-2024 
 ******************************************
 %NProcShared=16
 Will use up to   16 processors via shared memory.
 %Mem=32GB
 %chk=12326824_22.chk
 ------------------------------------------------------
 #N OPT FREQ=NORAMAN Integral(Ultrafine) wB97XD def2SVP
 ------------------------------------------------------
 1/18=20,19=15,26=4,38=1/1,3;
 2/9=110,12=2,17=6,18=5,40=1/2;
 3/5=43,7=101,11=2,25=1,30=1,71=1,74=-58,75=-5/1,2,3;
 4//1;
 5/5=2,38=5/2;
 6/7=2,8=2,9=2,10=2,28=1/1;
 7//1,2,3,16;
 1/18=20,19=15,26=4/3(2);
 2/9=110/2;
 99//99;
 2/9=110/2;
 3/5=43,7=101,11=2,25=1,30=1,71=1,74=-58,75=-5/1,2,3;
 4/5=5,16=3,69=1/1;
 5/5=2,38=5/2;
 7//1,2,3,16;
 1/18=20,19=15,26=4/3(-5);
 2/9=110/2;
 6/7=2,8=2,9=2,10=2,19=2,28=1/1;
 99/9=1/99;
 -----------
 12326824_22
 -----------
 Symbolic Z-matrix:
 Charge =  0 Multiplicity = 1
 C                    -3.68056  -0.34749   0.27247 
 C                    -2.83441  -0.96796  -0.82209 
 O                    -1.4684   -0.55181  -0.7485 
 C                    -0.68513  -1.18182   0.13292 
 O                    -1.0685   -2.08225   0.83654 
 C                     0.73217  -0.71793   0.08181 
 C                     1.69732  -1.69143   0.39467 
 N                     3.00604  -1.52863   0.28338 
 C                     3.42884  -0.34249  -0.16172 
 C                     2.58242   0.71106  -0.46943 
 C                     1.19747   0.54844  -0.32659 
 O                     0.44319   1.62107  -0.59401 
 C                    -0.64447   2.00202   0.23987 
 C                    -0.44213   3.43542   0.68407 
 H                    -4.72754  -0.66309   0.15455 
 H                    -3.64973   0.75102   0.22689 
 H                    -3.33518  -0.67592   1.26247 
 H                    -2.87522  -2.06537  -0.76929 
 H                    -3.16816  -0.64588  -1.81724 
 H                     1.33988  -2.66777   0.73793 
 H                     4.51234  -0.2154   -0.26077 
 H                     2.9664    1.67854  -0.79449 
 H                    -0.70738   1.32933   1.11145 
 H                    -1.57396   1.88939  -0.33461 
 H                     0.4715    3.53523   1.28777 
 H                    -1.29804   3.76684   1.29055 
 H                    -0.35669   4.10052  -0.18699 
 

 GradGradGradGradGradGradGradGradGradGradGradGradGradGradGradGradGradGrad
 Berny optimization.
 Initialization pass.
                           ----------------------------
                           !    Initial Parameters    !
                           ! (Angstroms and Degrees)  !
 --------------------------                            --------------------------
 ! Name  Definition              Value          Derivative Info.                !
 --------------------------------------------------------------------------------
 ! R1    R(1,2)                  1.5163         estimate D2E/DX2                !
 ! R2    R(1,15)                 1.0999         estimate D2E/DX2                !
 ! R3    R(1,16)                 1.0999         estimate D2E/DX2                !
 ! R4    R(1,17)                 1.0988         estimate D2E/DX2                !
 ! R5    R(2,3)                  1.4299         estimate D2E/DX2                !
 ! R6    R(2,18)                 1.0994         estimate D2E/DX2                !
 ! R7    R(2,19)                 1.0979         estimate D2E/DX2                !
 ! R8    R(3,4)                  1.3369         estimate D2E/DX2                !
 ! R9    R(4,5)                  1.2053         estimate D2E/DX2                !
 ! R10   R(4,6)                  1.4922         estimate D2E/DX2                !
 ! R11   R(6,7)                  1.4061         estimate D2E/DX2                !
 ! R12   R(6,11)                 1.4096         estimate D2E/DX2                !
 ! R13   R(7,8)                  1.3235         estimate D2E/DX2                !
 ! R14   R(7,20)                 1.0949         estimate D2E/DX2                !
 ! R15   R(8,9)                  1.3356         estimate D2E/DX2                !
 ! R16   R(9,10)                 1.386          estimate D2E/DX2                !
 ! R17   R(9,21)                 1.0954         estimate D2E/DX2                !
 ! R18   R(10,11)                1.4018         estimate D2E/DX2                !
 ! R19   R(10,22)                1.0905         estimate D2E/DX2                !
 ! R20   R(11,12)                1.3383         estimate D2E/DX2                !
 ! R21   R(12,13)                1.4225         estimate D2E/DX2                !
 ! R22   R(13,14)                1.5142         estimate D2E/DX2                !
 ! R23   R(13,23)                1.1028         estimate D2E/DX2                !
 ! R24   R(13,24)                1.0985         estimate D2E/DX2                !
 ! R25   R(14,25)                1.0996         estimate D2E/DX2                !
 ! R26   R(14,26)                1.1001         estimate D2E/DX2                !
 ! R27   R(14,27)                1.0993         estimate D2E/DX2                !
 ! A1    A(2,1,15)             109.6582         estimate D2E/DX2                !
 ! A2    A(2,1,16)             111.2934         estimate D2E/DX2                !
 ! A3    A(2,1,17)             110.6525         estimate D2E/DX2                !
 ! A4    A(15,1,16)            107.9886         estimate D2E/DX2                !
 ! A5    A(15,1,17)            108.0627         estimate D2E/DX2                !
 ! A6    A(16,1,17)            109.0908         estimate D2E/DX2                !
 ! A7    A(1,2,3)              112.1403         estimate D2E/DX2                !
 ! A8    A(1,2,18)             110.6756         estimate D2E/DX2                !
 ! A9    A(1,2,19)             111.3846         estimate D2E/DX2                !
 ! A10   A(3,2,18)             108.8741         estimate D2E/DX2                !
 ! A11   A(3,2,19)             104.5765         estimate D2E/DX2                !
 ! A12   A(18,2,19)            108.969          estimate D2E/DX2                !
 ! A13   A(2,3,4)              117.1608         estimate D2E/DX2                !
 ! A14   A(3,4,5)              123.4054         estimate D2E/DX2                !
 ! A15   A(3,4,6)              112.793          estimate D2E/DX2                !
 ! A16   A(5,4,6)              123.6654         estimate D2E/DX2                !
 ! A17   A(4,6,7)              115.411          estimate D2E/DX2                !
 ! A18   A(4,6,11)             127.0671         estimate D2E/DX2                !
 ! A19   A(7,6,11)             117.3794         estimate D2E/DX2                !
 ! A20   A(6,7,8)              125.0905         estimate D2E/DX2                !
 ! A21   A(6,7,20)             117.5836         estimate D2E/DX2                !
 ! A22   A(8,7,20)             117.3136         estimate D2E/DX2                !
 ! A23   A(7,8,9)              116.7627         estimate D2E/DX2                !
 ! A24   A(8,9,10)             123.7611         estimate D2E/DX2                !
 ! A25   A(8,9,21)             116.5061         estimate D2E/DX2                !
 ! A26   A(10,9,21)            119.7207         estimate D2E/DX2                !
 ! A27   A(9,10,11)            119.5083         estimate D2E/DX2                !
 ! A28   A(9,10,22)            121.7042         estimate D2E/DX2                !
 ! A29   A(11,10,22)           118.764          estimate D2E/DX2                !
 ! A30   A(6,11,10)            117.3793         estimate D2E/DX2                !
 ! A31   A(6,11,12)            126.2923         estimate D2E/DX2                !
 ! A32   A(10,11,12)           116.3284         estimate D2E/DX2                !
 ! A33   A(11,12,13)           121.9014         estimate D2E/DX2                !
 ! A34   A(12,13,14)           108.8627         estimate D2E/DX2                !
 ! A35   A(12,13,23)           110.0945         estimate D2E/DX2                !
 ! A36   A(12,13,24)           108.2373         estimate D2E/DX2                !
 ! A37   A(14,13,23)           110.6836         estimate D2E/DX2                !
 ! A38   A(14,13,24)           111.3179         estimate D2E/DX2                !
 ! A39   A(23,13,24)           107.6089         estimate D2E/DX2                !
 ! A40   A(13,14,25)           110.9776         estimate D2E/DX2                !
 ! A41   A(13,14,26)           110.0559         estimate D2E/DX2                !
 ! A42   A(13,14,27)           110.5286         estimate D2E/DX2                !
 ! A43   A(25,14,26)           108.4468         estimate D2E/DX2                !
 ! A44   A(25,14,27)           108.3934         estimate D2E/DX2                !
 ! A45   A(26,14,27)           108.3631         estimate D2E/DX2                !
 ! D1    D(15,1,2,3)           177.8224         estimate D2E/DX2                !
 ! D2    D(15,1,2,18)          -60.386          estimate D2E/DX2                !
 ! D3    D(15,1,2,19)           61.0066         estimate D2E/DX2                !
 ! D4    D(16,1,2,3)            58.403          estimate D2E/DX2                !
 ! D5    D(16,1,2,18)         -179.8054         estimate D2E/DX2                !
 ! D6    D(16,1,2,19)          -58.4128         estimate D2E/DX2                !
 ! D7    D(17,1,2,3)           -63.0663         estimate D2E/DX2                !
 ! D8    D(17,1,2,18)           58.7252         estimate D2E/DX2                !
 ! D9    D(17,1,2,19)         -179.8822         estimate D2E/DX2                !
 ! D10   D(1,2,3,4)             81.0519         estimate D2E/DX2                !
 ! D11   D(18,2,3,4)           -41.7641         estimate D2E/DX2                !
 ! D12   D(19,2,3,4)          -158.1142         estimate D2E/DX2                !
 ! D13   D(2,3,4,5)              1.3045         estimate D2E/DX2                !
 ! D14   D(2,3,4,6)            177.1968         estimate D2E/DX2                !
 ! D15   D(3,4,6,7)           -148.3506         estimate D2E/DX2                !
 ! D16   D(3,4,6,11)            27.1635         estimate D2E/DX2                !
 ! D17   D(5,4,6,7)             27.5293         estimate D2E/DX2                !
 ! D18   D(5,4,6,11)          -156.9566         estimate D2E/DX2                !
 ! D19   D(4,6,7,8)            173.06           estimate D2E/DX2                !
 ! D20   D(4,6,7,20)            -5.626          estimate D2E/DX2                !
 ! D21   D(11,6,7,8)            -2.9098         estimate D2E/DX2                !
 ! D22   D(11,6,7,20)          178.4041         estimate D2E/DX2                !
 ! D23   D(4,6,11,10)         -171.5212         estimate D2E/DX2                !
 ! D24   D(4,6,11,12)            8.4872         estimate D2E/DX2                !
 ! D25   D(7,6,11,10)            3.9156         estimate D2E/DX2                !
 ! D26   D(7,6,11,12)         -176.076          estimate D2E/DX2                !
 ! D27   D(6,7,8,9)              0.0103         estimate D2E/DX2                !
 ! D28   D(20,7,8,9)           178.6995         estimate D2E/DX2                !
 ! D29   D(7,8,9,10)             1.8038         estimate D2E/DX2                !
 ! D30   D(7,8,9,21)          -179.4677         estimate D2E/DX2                !
 ! D31   D(8,9,10,11)           -0.5906         estimate D2E/DX2                !
 ! D32   D(8,9,10,22)          177.6266         estimate D2E/DX2                !
 ! D33   D(21,9,10,11)        -179.2803         estimate D2E/DX2                !
 ! D34   D(21,9,10,22)          -1.0631         estimate D2E/DX2                !
 ! D35   D(9,10,11,6)           -2.367          estimate D2E/DX2                !
 ! D36   D(9,10,11,12)         177.6255         estimate D2E/DX2                !
 ! D37   D(22,10,11,6)         179.3632         estimate D2E/DX2                !
 ! D38   D(22,10,11,12)         -0.6443         estimate D2E/DX2                !
 ! D39   D(6,11,12,13)          43.7318         estimate D2E/DX2                !
 ! D40   D(10,11,12,13)       -136.2599         estimate D2E/DX2                !
 ! D41   D(11,12,13,14)        124.4049         estimate D2E/DX2                !
 ! D42   D(11,12,13,23)          2.9091         estimate D2E/DX2                !
 ! D43   D(11,12,13,24)       -114.4593         estimate D2E/DX2                !
 ! D44   D(12,13,14,25)        -62.7262         estimate D2E/DX2                !
 ! D45   D(12,13,14,26)        177.225          estimate D2E/DX2                !
 ! D46   D(12,13,14,27)         57.567          estimate D2E/DX2                !
 ! D47   D(23,13,14,25)         58.4097         estimate D2E/DX2                !
 ! D48   D(23,13,14,26)        -61.6391         estimate D2E/DX2                !
 ! D49   D(23,13,14,27)        178.7029         estimate D2E/DX2                !
 ! D50   D(24,13,14,25)        178.0429         estimate D2E/DX2                !
 ! D51   D(24,13,14,26)         57.994          estimate D2E/DX2                !
 ! D52   D(24,13,14,27)        -61.664          estimate D2E/DX2                !
 --------------------------------------------------------------------------------
 Trust Radius=3.00D-01 FncErr=1.00D-07 GrdErr=1.00D-06 EigMax=2.50D+02 EigMin=1.00D-04
 Number of steps in this run=    134 maximum allowed number of steps=    162.
 GradGradGradGradGradGradGradGradGradGradGradGradGradGradGradGradGradGrad

                          Input orientation:                          
 ---------------------------------------------------------------------
 Center     Atomic      Atomic             Coordinates (Angstroms)
 Number     Number       Type             X           Y           Z
 ---------------------------------------------------------------------
      1          6           0       -3.680560   -0.347490    0.272470
      2          6           0       -2.834410   -0.967960   -0.822090
      3          8           0       -1.468400   -0.551810   -0.748500
      4          6           0       -0.685130   -1.181820    0.132920
      5          8           0       -1.068500   -2.082250    0.836540
      6          6           0        0.732170   -0.717930    0.081810
      7          6           0        1.697320   -1.691430    0.394670
      8          7           0        3.006040   -1.528630    0.283380
      9          6           0        3.428840   -0.342490   -0.161720
     10          6           0        2.582420    0.711060   -0.469430
     11          6           0        1.197470    0.548440   -0.326590
     12          8           0        0.443190    1.621070   -0.594010
     13          6           0       -0.644470    2.002020    0.239870
     14          6           0       -0.442130    3.435420    0.684070
     15          1           0       -4.727540   -0.663090    0.154550
     16          1           0       -3.649730    0.751020    0.226890
     17          1           0       -3.335180   -0.675920    1.262470
     18          1           0       -2.875220   -2.065370   -0.769290
     19          1           0       -3.168160   -0.645880   -1.817240
     20          1           0        1.339880   -2.667770    0.737930
     21          1           0        4.512340   -0.215400   -0.260770
     22          1           0        2.966400    1.678540   -0.794490
     23          1           0       -0.707380    1.329330    1.111450
     24          1           0       -1.573960    1.889390   -0.334610
     25          1           0        0.471500    3.535230    1.287770
     26          1           0       -1.298040    3.766840    1.290550
     27          1           0       -0.356690    4.100520   -0.186990
 ---------------------------------------------------------------------
                    Distance matrix (angstroms):
                    1          2          3          4          5
     1  C    0.000000
     2  C    1.516250   0.000000
     3  O    2.444950   1.429888   0.000000
     4  C    3.112584   2.361606   1.336909   0.000000
     5  O    3.185973   2.666671   2.239312   1.205333   0.000000
     6  C    4.432354   3.687824   2.357863   1.492161   2.381890
     7  C    5.544610   4.747683   3.553499   2.450364   2.828029
     8  N    6.790127   5.970534   4.694632   3.710479   4.149019
     9  C    7.122648   6.328950   4.936708   4.209042   4.924363
    10  C    6.394987   5.682035   4.252277   3.823964   4.778845
    11  C    4.995672   4.336017   2.914691   2.597909   3.661697
    12  O    4.650949   4.183032   2.898181   3.107688   4.248089
    13  C    3.839154   3.839841   2.859682   3.185895   4.149347
    14  C    4.996724   5.232712   4.359299   4.656363   5.555202
    15  H    1.099853   2.151909   3.383767   4.075614   3.983428
    16  H    1.099887   2.172556   2.721572   3.540276   3.880959
    17  H    1.098751   2.163665   2.746684   2.924822   2.701299
    18  H    2.164474   1.099437   2.066504   2.528070   2.417274
    19  H    2.172206   1.097929   2.010034   3.202467   3.676177
    20  H    5.550241   4.769456   3.817486   2.583554   2.480494
    21  H    8.211297   7.406495   6.010017   5.301194   5.986234
    22  H    7.030311   6.376058   4.964275   4.730266   5.751888
    23  H    3.515027   3.679725   2.752681   2.695161   3.441636
    24  H    3.132083   3.160826   2.478287   3.231243   4.171451
    25  H    5.774595   5.971538   4.961200   4.992197   5.842199
    26  H    4.862160   5.407588   4.778858   5.119082   5.871173
    27  H    5.571715   5.677318   4.816157   5.302201   6.307213
                    6          7          8          9         10
     6  C    0.000000
     7  C    1.406093   0.000000
     8  N    2.422468   1.323494   0.000000
     9  C    2.733549   2.264370   1.335590   0.000000
    10  C    2.401937   2.702227   2.400497   1.386030   0.000000
    11  C    1.409605   2.405636   2.820852   2.408309   1.401761
    12  O    2.451767   3.677361   4.154350   3.599521   2.328077
    13  C    3.052581   4.376016   5.078741   4.716975   3.547182
    14  C    4.357983   5.562876   6.057410   5.474703   4.230910
    15  H    5.460470   6.511065   7.782931   8.168803   7.464124
    16  H    4.623841   5.880872   7.035572   7.173070   6.271057
    17  H    4.235453   5.206764   6.472774   6.920366   6.319904
    18  H    3.943758   4.733155   5.998785   6.563431   6.130605
    19  H    4.338681   5.445972   6.581231   6.808319   6.060285
    20  H    2.145153   1.094911   2.068899   3.252699   3.797119
    21  H    3.828783   3.245397   2.071138   1.095415   2.150920
    22  H    3.391571   3.792277   3.383684   2.167674   1.090469
    23  H    2.706240   3.927002   4.758479   4.639425   3.701922
    24  H    3.505675   4.904630   5.748145   5.480802   4.322283
    25  H    4.428505   5.442264   5.751119   5.087592   3.939501
    26  H    5.069119   6.290270   6.897934   6.429547   5.243405
    27  H    4.947255   6.172841   6.573928   5.837055   4.495173
                   11         12         13         14         15
    11  C    0.000000
    12  O    1.338278   0.000000
    13  C    2.413817   1.422492   0.000000
    14  C    3.470501   2.389382   1.514229   0.000000
    15  H    6.066716   5.702120   4.876633   5.953395   0.000000
    16  H    4.882901   4.264136   3.255266   4.207578   1.779498
    17  H    4.956721   4.795702   3.931538   5.060376   1.779415
    18  H    4.859505   4.963105   4.747453   6.187962   2.500192
    19  H    4.765203   4.435899   4.196676   5.508612   2.513945
    20  H    3.390795   4.579549   5.098298   6.358254   6.416593
    21  H    3.402374   4.476790   5.635626   6.226394   9.260038
    22  H    2.150621   2.531814   3.770003   4.109847   8.098186
    23  H    2.511215   2.077864   1.102779   2.165324   4.587710
    24  H    3.078804   2.051384   1.098483   2.170013   4.086502
    25  H    3.471902   2.684382   2.166614   1.099607   6.777912
    26  H    4.381873   3.344813   2.155382   1.100109   5.716314
    27  H    3.879713   2.636882   2.160724   1.099274   6.474022
                   16         17         18         19         20
    16  H    0.000000
    17  H    1.790957   0.000000
    18  H    3.086145   2.504033   0.000000
    19  H    2.522242   3.084382   1.788565   0.000000
    20  H    6.070049   5.108698   4.516820   5.562316   0.000000
    21  H    8.233539   8.007241   7.632629   7.848439   4.132314
    22  H    6.758453   7.034520   6.938445   6.639411   4.887156
    23  H    3.126390   3.308953   4.445301   4.305127   4.506395
    24  H    2.433103   3.497624   4.185971   3.341745   5.514391
    25  H    5.085453   5.676728   6.840961   6.353731   6.287576
    26  H    3.969507   4.887622   6.383190   5.712075   6.976261
    27  H    4.715354   5.812634   6.685826   5.752425   7.038720
                   21         22         23         24         25
    21  H    0.000000
    22  H    2.502358   0.000000
    23  H    5.613792   4.153458   0.000000
    24  H    6.440391   4.568459   1.776434   0.000000
    25  H    5.726569   3.742677   2.507357   3.086230   0.000000
    26  H    7.212860   5.185927   2.514441   2.498419   1.784635
    27  H    6.506924   4.156678   3.080329   2.528366   1.783359
                   26         27
    26  H    0.000000
    27  H    1.783426   0.000000
 Stoichiometry    C10H13NO3
 Framework group  C1[X(C10H13NO3)]
 Deg. of freedom    75
 Full point group                 C1      NOp   1
 Largest Abelian subgroup         C1      NOp   1
 Largest concise Abelian subgroup C1      NOp   1
                         Standard orientation:                         
 ---------------------------------------------------------------------
 Center     Atomic      Atomic             Coordinates (Angstroms)
 Number     Number       Type             X           Y           Z
 ---------------------------------------------------------------------
      1          6           0        3.680560   -0.347484   -0.272470
      2          6           0        2.834411   -0.967955    0.822090
      3          8           0        1.468400   -0.551808    0.748500
      4          6           0        0.685132   -1.181819   -0.132920
      5          8           0        1.068503   -2.082248   -0.836540
      6          6           0       -0.732169   -0.717932   -0.081810
      7          6           0       -1.697318   -1.691433   -0.394670
      8          7           0       -3.006038   -1.528636   -0.283380
      9          6           0       -3.428840   -0.342496    0.161720
     10          6           0       -2.582422    0.711055    0.469430
     11          6           0       -1.197472    0.548438    0.326590
     12          8           0       -0.443193    1.621069    0.594010
     13          6           0        0.644466    2.002021   -0.239870
     14          6           0        0.442123    3.435420   -0.684070
     15          1           0        4.727541   -0.663082   -0.154550
     16          1           0        3.649728    0.751026   -0.226890
     17          1           0        3.335181   -0.675914   -1.262470
     18          1           0        2.875223   -2.065365    0.769290
     19          1           0        3.168161   -0.645875    1.817240
     20          1           0       -1.339876   -2.667773   -0.737930
     21          1           0       -4.512340   -0.215408    0.260770
     22          1           0       -2.966404    1.678534    0.794490
     23          1           0        0.707377    1.329331   -1.111450
     24          1           0        1.573956    1.889392    0.334610
     25          1           0       -0.471507    3.535229   -1.287770
     26          1           0        1.298033    3.766842   -1.290550
     27          1           0        0.356682    4.100520    0.186990
 ---------------------------------------------------------------------
 Rotational constants (GHZ):           0.9274632           0.5647845           0.3829727
 Standard basis: def2SVP (5D, 7F)
 There are   275 symmetry adapted cartesian basis functions of A   symmetry.
 There are   261 symmetry adapted basis functions of A   symmetry.
   261 basis functions,   441 primitive gaussians,   275 cartesian basis functions
    52 alpha electrons       52 beta electrons
       nuclear repulsion energy       915.2185475251 Hartrees.
 NAtoms=   27 NActive=   27 NUniq=   27 SFac= 1.00D+00 NAtFMM=   60 NAOKFM=F Big=F
 Integral buffers will be    131072 words long.
 Raffenetti 2 integral format.
 Two-electron integral symmetry is turned on.
 Nuclear repulsion after empirical dispersion term =      915.2017965813 Hartrees.
 One-electron integrals computed using PRISM.
   1 Symmetry operations used in ECPInt.
 ECPInt:  NShTT=    7626 NPrTT=   27482 LenC2=    7314 LenP2D=   19270.
 LDataN:  DoStor=T MaxTD1= 4 Len=   56
 NBasis=   261 RedAO= T EigKep=  5.43D-04  NBF=   261
 NBsUse=   261 1.00D-06 EigRej= -1.00D+00 NBFU=   261
 ExpMin= 1.22D-01 ExpMax= 2.27D+03 ExpMxC= 3.41D+02 IAcc=3 IRadAn=         5 AccDes= 0.00D+00
 Harris functional with IExCor= 4639 and IRadAn=       5 diagonalized for initial guess.
 HarFok:  IExCor= 4639 AccDes= 0.00D+00 IRadAn=         5 IDoV= 1 UseB2=F ITyADJ=14
 ICtDFT=  3500011 ScaDFX=  1.000000  1.000000  1.000000  1.000000
 FoFCou: FMM=F IPFlag=           0 FMFlag=      100000 FMFlg1=           0
         NFxFlg=           0 DoJE=T BraDBF=F KetDBF=T FulRan=T
         wScrn=  0.000000 ICntrl=       500 IOpCl=  0 I1Cent=   200000004 NGrid=           0
         NMat0=    1 NMatS0=      1 NMatT0=    0 NMatD0=    1 NMtDS0=    0 NMtDT0=    0
 Petite list used in FoFCou.
 Requested convergence on RMS density matrix=1.00D-08 within 128 cycles.
 Requested convergence on MAX density matrix=1.00D-06.
 Requested convergence on             energy=1.00D-06.
 No special actions if energy rises.
 Integral accuracy reduced to 1.0D-05 until final iterations.
 Initial convergence to 1.0D-05 achieved.  Increase integral accuracy.
 SCF Done:  E(RwB97XD) =  -668.614754466     A.U. after   15 cycles
            NFock= 15  Conv=0.94D-08     -V/T= 2.0098

 **********************************************************************

            Population analysis using the SCF Density.

 **********************************************************************

 Orbital symmetries:
       Occupied  (A) (A) (A) (A) (A) (A) (A) (A) (A) (A) (A) (A)
                 (A) (A) (A) (A) (A) (A) (A) (A) (A) (A) (A) (A)
                 (A) (A) (A) (A) (A) (A) (A) (A) (A) (A) (A) (A)
                 (A) (A) (A) (A) (A) (A) (A) (A) (A) (A) (A) (A)
                 (A) (A) (A) (A)
       Virtual   (A) (A) (A) (A) (A) (A) (A) (A) (A) (A) (A) (A)
                 (A) (A) (A) (A) (A) (A) (A) (A) (A) (A) (A) (A)
                 (A) (A) (A) (A) (A) (A) (A) (A) (A) (A) (A) (A)
                 (A) (A) (A) (A) (A) (A) (A) (A) (A) (A) (A) (A)
                 (A) (A) (A) (A) (A) (A) (A) (A) (A) (A) (A) (A)
                 (A) (A) (A) (A) (A) (A) (A) (A) (A) (A) (A) (A)
                 (A) (A) (A) (A) (A) (A) (A) (A) (A) (A) (A) (A)
                 (A) (A) (A) (A) (A) (A) (A) (A) (A) (A) (A) (A)
                 (A) (A) (A) (A) (A) (A) (A) (A) (A) (A) (A) (A)
                 (A) (A) (A) (A) (A) (A) (A) (A) (A) (A) (A) (A)
                 (A) (A) (A) (A) (A) (A) (A) (A) (A) (A) (A) (A)
                 (A) (A) (A) (A) (A) (A) (A) (A) (A) (A) (A) (A)
                 (A) (A) (A) (A) (A) (A) (A) (A) (A) (A) (A) (A)
                 (A) (A) (A) (A) (A) (A) (A) (A) (A) (A) (A) (A)
                 (A) (A) (A) (A) (A) (A) (A) (A) (A) (A) (A) (A)
                 (A) (A) (A) (A) (A) (A) (A) (A) (A) (A) (A) (A)
                 (A) (A) (A) (A) (A) (A) (A) (A) (A) (A) (A) (A)
                 (A) (A) (A) (A) (A)
 The electronic state is 1-A.
 Alpha  occ. eigenvalues --  -19.30937 -19.29783 -19.24898 -14.43818 -10.43862
 Alpha  occ. eigenvalues --  -10.39243 -10.36614 -10.36383 -10.34350 -10.34323
 Alpha  occ. eigenvalues --  -10.32274 -10.31020 -10.30541 -10.30426  -1.21235
 Alpha  occ. eigenvalues --   -1.17789  -1.11636  -1.04422  -0.91846  -0.88878
 Alpha  occ. eigenvalues --   -0.86263  -0.85586  -0.77937  -0.75245  -0.72622
 Alpha  occ. eigenvalues --   -0.70917  -0.65582  -0.64926  -0.61474  -0.60388
 Alpha  occ. eigenvalues --   -0.59004  -0.57776  -0.55799  -0.55254  -0.54210
 Alpha  occ. eigenvalues --   -0.52700  -0.51475  -0.51193  -0.50114  -0.48712
 Alpha  occ. eigenvalues --   -0.48053  -0.47402  -0.47113  -0.45983  -0.43473
 Alpha  occ. eigenvalues --   -0.42781  -0.40674  -0.39329  -0.37602  -0.34854
 Alpha  occ. eigenvalues --   -0.34084  -0.33524
 Alpha virt. eigenvalues --    0.01687   0.04782   0.11064   0.12500   0.15221
 Alpha virt. eigenvalues --    0.15795   0.16897   0.17666   0.19062   0.19544
 Alpha virt. eigenvalues --    0.20140   0.20352   0.21061   0.21635   0.22099
 Alpha virt. eigenvalues --    0.22520   0.23863   0.24648   0.27117   0.28398
 Alpha virt. eigenvalues --    0.28756   0.30816   0.30869   0.34875   0.35911
 Alpha virt. eigenvalues --    0.37496   0.39121   0.40891   0.42247   0.46460
 Alpha virt. eigenvalues --    0.47352   0.47655   0.49094   0.49555   0.49872
 Alpha virt. eigenvalues --    0.51067   0.51836   0.53729   0.55143   0.55996
 Alpha virt. eigenvalues --    0.56543   0.58060   0.59851   0.61370   0.62582
 Alpha virt. eigenvalues --    0.63462   0.65183   0.66263   0.67036   0.68254
 Alpha virt. eigenvalues --    0.69305   0.69904   0.70822   0.71904   0.72379
 Alpha virt. eigenvalues --    0.72792   0.73298   0.74132   0.74388   0.74847
 Alpha virt. eigenvalues --    0.75597   0.76418   0.77228   0.77371   0.77648
 Alpha virt. eigenvalues --    0.78324   0.78838   0.79494   0.81130   0.81668
 Alpha virt. eigenvalues --    0.83247   0.83533   0.85245   0.88454   0.89304
 Alpha virt. eigenvalues --    0.91682   0.94096   0.97687   0.98730   0.99100
 Alpha virt. eigenvalues --    1.01140   1.02305   1.06796   1.09337   1.13841
 Alpha virt. eigenvalues --    1.14483   1.15583   1.17867   1.18481   1.21201
 Alpha virt. eigenvalues --    1.22797   1.24671   1.27430   1.30290   1.32041
 Alpha virt. eigenvalues --    1.34338   1.35241   1.36449   1.39155   1.41288
 Alpha virt. eigenvalues --    1.42154   1.44011   1.45642   1.46480   1.47152
 Alpha virt. eigenvalues --    1.53084   1.54976   1.55921   1.58486   1.60116
 Alpha virt. eigenvalues --    1.60593   1.61093   1.68813   1.70594   1.73220
 Alpha virt. eigenvalues --    1.74052   1.74759   1.78094   1.80150   1.81189
 Alpha virt. eigenvalues --    1.82113   1.83570   1.84374   1.84862   1.85277
 Alpha virt. eigenvalues --    1.85872   1.86348   1.86541   1.87632   1.87932
 Alpha virt. eigenvalues --    1.89090   1.89434   1.91051   1.92568   1.93300
 Alpha virt. eigenvalues --    1.94154   1.95523   1.96372   1.97216   1.98330
 Alpha virt. eigenvalues --    2.01720   2.02351   2.05402   2.06418   2.08446
 Alpha virt. eigenvalues --    2.09738   2.11068   2.12363   2.12554   2.17851
 Alpha virt. eigenvalues --    2.20177   2.21173   2.22306   2.27392   2.28063
 Alpha virt. eigenvalues --    2.30482   2.33669   2.34761   2.37531   2.41900
 Alpha virt. eigenvalues --    2.43254   2.44591   2.45318   2.46073   2.47608
 Alpha virt. eigenvalues --    2.48529   2.50177   2.56284   2.57178   2.59345
 Alpha virt. eigenvalues --    2.60506   2.62260   2.63390   2.69654   2.70566
 Alpha virt. eigenvalues --    2.71603   2.74000   2.76388   2.77108   2.80146
 Alpha virt. eigenvalues --    2.81884   2.84881   2.87645   2.88476   2.90740
 Alpha virt. eigenvalues --    2.95367   2.95975   2.98898   3.00164   3.00474
 Alpha virt. eigenvalues --    3.03145   3.04331   3.05204   3.09214   3.09609
 Alpha virt. eigenvalues --    3.10786   3.13182   3.14184   3.16151   3.27584
 Alpha virt. eigenvalues --    3.28683   3.31360   3.40491   3.51228   3.52673
 Alpha virt. eigenvalues --    3.57104   3.69434   3.77272   3.80492
          Condensed to atoms (all electrons):
               1          2          3          4          5          6
     1  C    4.606763   0.443635  -0.034055  -0.007790  -0.009446  -0.001870
     2  C    0.443635   4.458976   0.247647  -0.030989   0.003544   0.010780
     3  O   -0.034055   0.247647   7.993100   0.382292  -0.083355  -0.129681
     4  C   -0.007790  -0.030989   0.382292   4.588388   0.718947   0.171012
     5  O   -0.009446   0.003544  -0.083355   0.718947   7.681549  -0.120062
     6  C   -0.001870   0.010780  -0.129681   0.171012  -0.120062   5.917758
     7  C   -0.000027  -0.000339  -0.000011  -0.030065   0.010176   0.385463
     8  N    0.000000   0.000001  -0.000008   0.007737   0.000311  -0.044711
     9  C   -0.000000   0.000001  -0.000021   0.001396  -0.000006  -0.049909
    10  C   -0.000001   0.000024  -0.000053   0.006369  -0.000054  -0.061664
    11  C    0.000055  -0.000394   0.006427  -0.057217   0.000658   0.251330
    12  O    0.000006   0.000136  -0.001572  -0.006397   0.000002  -0.078878
    13  C   -0.001292  -0.001501  -0.000164   0.000142  -0.000337  -0.017090
    14  C   -0.000011  -0.000056   0.000807  -0.000011  -0.000003  -0.001298
    15  H    0.383313  -0.014954   0.003530   0.000244  -0.000075   0.000024
    16  H    0.392277  -0.021223  -0.001591  -0.000451   0.000209   0.000052
    17  H    0.392943  -0.016371  -0.006241   0.004604   0.009575   0.000453
    18  H   -0.028735   0.392867  -0.025326  -0.008587   0.016585   0.001012
    19  H   -0.027460   0.391077  -0.024335   0.005938   0.000522  -0.000118
    20  H    0.000005  -0.000051   0.000501  -0.007784   0.012413  -0.066493
    21  H   -0.000000   0.000000  -0.000000   0.000057   0.000000   0.000480
    22  H    0.000000  -0.000000  -0.000002  -0.000045   0.000001   0.018845
    23  H    0.001024  -0.000315  -0.003759   0.012716  -0.000212  -0.000283
    24  H   -0.000059  -0.001044   0.006421  -0.001352   0.000127   0.002686
    25  H   -0.000002  -0.000000  -0.000017  -0.000057   0.000000   0.000428
    26  H    0.000004   0.000005   0.000000   0.000012   0.000000   0.000068
    27  H    0.000003  -0.000000  -0.000022   0.000042  -0.000000  -0.000027
               7          8          9         10         11         12
     1  C   -0.000027   0.000000  -0.000000  -0.000001   0.000055   0.000006
     2  C   -0.000339   0.000001   0.000001   0.000024  -0.000394   0.000136
     3  O   -0.000011  -0.000008  -0.000021  -0.000053   0.006427  -0.001572
     4  C   -0.030065   0.007737   0.001396   0.006369  -0.057217  -0.006397
     5  O    0.010176   0.000311  -0.000006  -0.000054   0.000658   0.000002
     6  C    0.385463  -0.044711  -0.049909  -0.061664   0.251330  -0.078878
     7  C    4.715790   0.543267  -0.071252  -0.043020  -0.003960   0.003301
     8  N    0.543267   6.289936   0.507305  -0.034991  -0.055538  -0.000053
     9  C   -0.071252   0.507305   4.734795   0.442725  -0.005981   0.003944
    10  C   -0.043020  -0.034991   0.442725   5.009433   0.484568  -0.073215
    11  C   -0.003960  -0.055538  -0.005981   0.484568   4.784778   0.424081
    12  O    0.003301  -0.000053   0.003944  -0.073215   0.424081   7.897062
    13  C    0.000675   0.000020  -0.000222   0.004316  -0.039434   0.263771
    14  C    0.000053  -0.000001  -0.000016   0.000629   0.000628  -0.048517
    15  H    0.000001   0.000000   0.000000  -0.000000  -0.000000  -0.000001
    16  H   -0.000001  -0.000000   0.000000  -0.000001  -0.000003  -0.000082
    17  H   -0.000019  -0.000000   0.000000   0.000001  -0.000050   0.000006
    18  H    0.000131   0.000000   0.000000   0.000002   0.000079  -0.000011
    19  H    0.000029  -0.000000  -0.000000   0.000000  -0.000076   0.000046
    20  H    0.428269  -0.032345   0.004531   0.000853   0.005346  -0.000059
    21  H    0.004991  -0.038832   0.420970  -0.063102   0.006797  -0.000095
    22  H   -0.000527   0.005319  -0.044418   0.409385  -0.050481   0.002092
    23  H   -0.000992  -0.000032  -0.000019   0.001907  -0.001801  -0.029439
    24  H   -0.000055   0.000001   0.000031  -0.000851  -0.001015  -0.024589
    25  H   -0.000009   0.000001   0.000018  -0.000642   0.000779   0.001536
    26  H   -0.000002   0.000000   0.000000  -0.000045  -0.000060   0.003987
    27  H   -0.000003  -0.000000   0.000001   0.000182  -0.000006   0.001032
              13         14         15         16         17         18
     1  C   -0.001292  -0.000011   0.383313   0.392277   0.392943  -0.028735
     2  C   -0.001501  -0.000056  -0.014954  -0.021223  -0.016371   0.392867
     3  O   -0.000164   0.000807   0.003530  -0.001591  -0.006241  -0.025326
     4  C    0.000142  -0.000011   0.000244  -0.000451   0.004604  -0.008587
     5  O   -0.000337  -0.000003  -0.000075   0.000209   0.009575   0.016585
     6  C   -0.017090  -0.001298   0.000024   0.000052   0.000453   0.001012
     7  C    0.000675   0.000053   0.000001  -0.000001  -0.000019   0.000131
     8  N    0.000020  -0.000001   0.000000  -0.000000  -0.000000   0.000000
     9  C   -0.000222  -0.000016   0.000000   0.000000   0.000000   0.000000
    10  C    0.004316   0.000629  -0.000000  -0.000001   0.000001   0.000002
    11  C   -0.039434   0.000628  -0.000000  -0.000003  -0.000050   0.000079
    12  O    0.263771  -0.048517  -0.000001  -0.000082   0.000006  -0.000011
    13  C    4.505932   0.427076   0.000077  -0.000380  -0.000102   0.000050
    14  C    0.427076   4.584367   0.000001   0.000068  -0.000033   0.000006
    15  H    0.000077   0.000001   0.614284  -0.017298  -0.016051  -0.002059
    16  H   -0.000380   0.000068  -0.017298   0.625987  -0.023175   0.006607
    17  H   -0.000102  -0.000033  -0.016051  -0.023175   0.591928  -0.009629
    18  H    0.000050   0.000006  -0.002059   0.006607  -0.009629   0.628090
    19  H    0.000013  -0.000007  -0.002634  -0.009193   0.006372  -0.026847
    20  H   -0.000012   0.000000   0.000000  -0.000000  -0.000006  -0.000002
    21  H    0.000008  -0.000000  -0.000000  -0.000000  -0.000000  -0.000000
    22  H   -0.001010  -0.000090  -0.000000   0.000000  -0.000000  -0.000000
    23  H    0.386752  -0.027746  -0.000030  -0.000134   0.000293  -0.000039
    24  H    0.392253  -0.029210  -0.000009   0.005280  -0.000390   0.000169
    25  H   -0.016479   0.388571   0.000000  -0.000000   0.000001  -0.000000
    26  H   -0.015098   0.378287  -0.000000   0.000098   0.000004  -0.000000
    27  H   -0.017395   0.390854  -0.000000  -0.000009  -0.000000  -0.000000
              19         20         21         22         23         24
     1  C   -0.027460   0.000005  -0.000000   0.000000   0.001024  -0.000059
     2  C    0.391077  -0.000051   0.000000  -0.000000  -0.000315  -0.001044
     3  O   -0.024335   0.000501  -0.000000  -0.000002  -0.003759   0.006421
     4  C    0.005938  -0.007784   0.000057  -0.000045   0.012716  -0.001352
     5  O    0.000522   0.012413   0.000000   0.000001  -0.000212   0.000127
     6  C   -0.000118  -0.066493   0.000480   0.018845  -0.000283   0.002686
     7  C    0.000029   0.428269   0.004991  -0.000527  -0.000992  -0.000055
     8  N   -0.000000  -0.032345  -0.038832   0.005319  -0.000032   0.000001
     9  C   -0.000000   0.004531   0.420970  -0.044418  -0.000019   0.000031
    10  C    0.000000   0.000853  -0.063102   0.409385   0.001907  -0.000851
    11  C   -0.000076   0.005346   0.006797  -0.050481  -0.001801  -0.001015
    12  O    0.000046  -0.000059  -0.000095   0.002092  -0.029439  -0.024589
    13  C    0.000013  -0.000012   0.000008  -0.001010   0.386752   0.392253
    14  C   -0.000007   0.000000  -0.000000  -0.000090  -0.027746  -0.029210
    15  H   -0.002634   0.000000  -0.000000  -0.000000  -0.000030  -0.000009
    16  H   -0.009193  -0.000000  -0.000000   0.000000  -0.000134   0.005280
    17  H    0.006372  -0.000006  -0.000000  -0.000000   0.000293  -0.000390
    18  H   -0.026847  -0.000002  -0.000000  -0.000000  -0.000039   0.000169
    19  H    0.638320   0.000000  -0.000000  -0.000000   0.000014  -0.000466
    20  H    0.000000   0.604011  -0.000288   0.000051   0.000037  -0.000003
    21  H   -0.000000  -0.000288   0.634418  -0.006861   0.000001  -0.000000
    22  H   -0.000000   0.000051  -0.006861   0.638404   0.000217   0.000028
    23  H    0.000014   0.000037   0.000001   0.000217   0.662283  -0.036450
    24  H   -0.000466  -0.000003  -0.000000   0.000028  -0.036450   0.647008
    25  H    0.000000  -0.000000  -0.000001   0.000106  -0.010332   0.007309
    26  H    0.000000   0.000000  -0.000000   0.000018  -0.003189  -0.001477
    27  H   -0.000000   0.000000  -0.000000   0.000099   0.007787  -0.010117
              25         26         27
     1  C   -0.000002   0.000004   0.000003
     2  C   -0.000000   0.000005  -0.000000
     3  O   -0.000017   0.000000  -0.000022
     4  C   -0.000057   0.000012   0.000042
     5  O    0.000000   0.000000  -0.000000
     6  C    0.000428   0.000068  -0.000027
     7  C   -0.000009  -0.000002  -0.000003
     8  N    0.000001   0.000000  -0.000000
     9  C    0.000018   0.000000   0.000001
    10  C   -0.000642  -0.000045   0.000182
    11  C    0.000779  -0.000060  -0.000006
    12  O    0.001536   0.003987   0.001032
    13  C   -0.016479  -0.015098  -0.017395
    14  C    0.388571   0.378287   0.390854
    15  H    0.000000  -0.000000  -0.000000
    16  H   -0.000000   0.000098  -0.000009
    17  H    0.000001   0.000004  -0.000000
    18  H   -0.000000  -0.000000  -0.000000
    19  H    0.000000   0.000000  -0.000000
    20  H   -0.000000   0.000000   0.000000
    21  H   -0.000001  -0.000000  -0.000000
    22  H    0.000106   0.000018   0.000099
    23  H   -0.010332  -0.003189   0.007787
    24  H    0.007309  -0.001477  -0.010117
    25  H    0.623685  -0.017876  -0.023818
    26  H   -0.017876   0.629437  -0.017502
    27  H   -0.023818  -0.017502   0.614661
 Mulliken charges:
               1
     1  C   -0.109280
     2  C    0.138545
     3  O   -0.330513
     4  C    0.250847
     5  O   -0.241070
     6  C   -0.188306
     7  C    0.058136
     8  N   -0.147385
     9  C    0.056128
    10  C   -0.082754
    11  C    0.250491
    12  O   -0.338093
    13  C    0.129431
    14  C   -0.064345
    15  H    0.051637
    16  H    0.042964
    17  H    0.065888
    18  H    0.055637
    19  H    0.048805
    20  H    0.051026
    21  H    0.041458
    22  H    0.028869
    23  H    0.041741
    24  H    0.045774
    25  H    0.046800
    26  H    0.043327
    27  H    0.054238
 Sum of Mulliken charges =  -0.00000
 Mulliken charges with hydrogens summed into heavy atoms:
               1
     1  C    0.051210
     2  C    0.242988
     3  O   -0.330513
     4  C    0.250847
     5  O   -0.241070
     6  C   -0.188306
     7  C    0.109163
     8  N   -0.147385
     9  C    0.097586
    10  C   -0.053884
    11  C    0.250491
    12  O   -0.338093
    13  C    0.216947
    14  C    0.080020
 Electronic spatial extent (au):  <R**2>=           2962.4395
 Charge=             -0.0000 electrons
 Dipole moment (field-independent basis, Debye):
    X=              2.5539    Y=              3.2687    Z=              0.6720  Tot=              4.2022
 Quadrupole moment (field-independent basis, Debye-Ang):
   XX=            -75.7605   YY=            -84.7484   ZZ=            -84.3822
   XY=             -4.3280   XZ=              0.4901   YZ=             -5.2275
 Traceless Quadrupole moment (field-independent basis, Debye-Ang):
   XX=              5.8699   YY=             -3.1180   ZZ=             -2.7518
   XY=             -4.3280   XZ=              0.4901   YZ=             -5.2275
 Octapole moment (field-independent basis, Debye-Ang**2):
  XXX=             41.6974  YYY=             19.5829  ZZZ=              2.5251  XYY=             14.8690
  XXY=             21.4286  XXZ=             17.5547  XZZ=              8.7904  YZZ=              2.1479
  YYZ=              6.0925  XYZ=             -4.7875
 Hexadecapole moment (field-independent basis, Debye-Ang**3):
 XXXX=          -2175.2173 YYYY=          -1355.6035 ZZZZ=           -239.2519 XXXY=           -135.6634
 XXXZ=            -12.8232 YYYX=            -15.9000 YYYZ=             -9.3653 ZZZX=              9.0038
 ZZZY=              3.3073 XXYY=           -651.6655 XXZZ=           -430.2528 YYZZ=           -271.0731
 XXYZ=            -12.5769 YYXZ=              6.3835 ZZXY=             -4.2165
 N-N= 9.152017965813D+02 E-N=-3.387498418280D+03  KE= 6.621323095939D+02
   1 Symmetry operations used in ECPInt.
 ECPInt:  NShTT=    7626 NPrTT=   27482 LenC2=    7314 LenP2D=   19270.
 LDataN:  DoStor=T MaxTD1= 5 Len=  102
 Calling FoFJK, ICntrl=      2127 FMM=F ISym2X=0 I1Cent= 0 IOpClX= 0 NMat=1 NMatS=1 NMatT=0.
 ***** Axes restored to original set *****
 -------------------------------------------------------------------
 Center     Atomic                   Forces (Hartrees/Bohr)
 Number     Number              X              Y              Z
 -------------------------------------------------------------------
      1        6           0.000007932   -0.000001843   -0.000000038
      2        6           0.000002331    0.000009471    0.000006314
      3        8          -0.000002357    0.000003761   -0.000006631
      4        6          -0.000003350   -0.000010262    0.000007024
      5        8           0.000002857    0.000003349   -0.000001621
      6        6          -0.000003652    0.000010639   -0.000007227
      7        6           0.000008396   -0.000001805    0.000002414
      8        7          -0.000005663   -0.000004915   -0.000001299
      9        6           0.000002917    0.000005175   -0.000002449
     10        6           0.000004889   -0.000002973   -0.000002162
     11        6          -0.000009218   -0.000005136    0.000003707
     12        8          -0.000000896   -0.000005242    0.000004883
     13        6           0.000005788    0.000000090   -0.000000079
     14        6          -0.000000523    0.000003132    0.000005157
     15        1          -0.000004288    0.000001029   -0.000000477
     16        1          -0.000000345   -0.000000475    0.000000816
     17        1          -0.000001270    0.000001418   -0.000001756
     18        1          -0.000000490   -0.000004526   -0.000001090
     19        1          -0.000001763    0.000000883   -0.000002667
     20        1          -0.000000030    0.000000844   -0.000002716
     21        1          -0.000003353   -0.000002661   -0.000000044
     22        1          -0.000000348   -0.000000761    0.000000246
     23        1          -0.000001265    0.000002292   -0.000001416
     24        1           0.000000588   -0.000001260   -0.000001619
     25        1           0.000000634   -0.000001199    0.000000412
     26        1           0.000000954   -0.000000376    0.000002552
     27        1           0.000001525    0.000001352   -0.000000235
 -------------------------------------------------------------------
 Cartesian Forces:  Max     0.000010639 RMS     0.000003865

 GradGradGradGradGradGradGradGradGradGradGradGradGradGradGradGradGradGrad
 Berny optimization.
 FormGI is forming the generalized inverse of G from B-inverse, IUseBI=4.
 Internal  Forces:  Max     0.000012236 RMS     0.000002472
 Search for a local minimum.
 Step number   1 out of a maximum of  134
 All quantities printed in internal units (Hartrees-Bohrs-Radians)
 Mixed Optimization -- En-DIIS/RFO-DIIS
 Second derivative matrix not updated -- first step.
 ITU=  0
     Eigenvalues ---    0.00551   0.00578   0.00870   0.01296   0.01394
     Eigenvalues ---    0.01443   0.01652   0.02006   0.02099   0.02174
     Eigenvalues ---    0.02197   0.02238   0.02362   0.02508   0.02513
     Eigenvalues ---    0.02526   0.04967   0.05291   0.05625   0.05690
     Eigenvalues ---    0.05706   0.05797   0.05834   0.05835   0.11375
     Eigenvalues ---    0.11773   0.13725   0.13931   0.15992   0.15998
     Eigenvalues ---    0.15998   0.16000   0.16000   0.16000   0.16000
     Eigenvalues ---    0.16000   0.16000   0.21965   0.22064   0.22327
     Eigenvalues ---    0.23232   0.24540   0.24922   0.24965   0.25000
     Eigenvalues ---    0.25000   0.25000   0.25000   0.30731   0.30929
     Eigenvalues ---    0.33214   0.33377   0.33670   0.33695   0.33698
     Eigenvalues ---    0.33726   0.33744   0.33763   0.33821   0.33850
     Eigenvalues ---    0.33912   0.34194   0.34251   0.34759   0.41005
     Eigenvalues ---    0.41569   0.42087   0.42735   0.44817   0.47115
     Eigenvalues ---    0.56459   0.57593   0.57903   0.59466   1.02188
 RFO step:  Lambda= 0.00000000D+00 EMin= 5.50989545D-03
 Linear search not attempted -- first point.
 Iteration  1 RMS(Cart)=  0.00019893 RMS(Int)=  0.00000001
 Iteration  2 RMS(Cart)=  0.00000001 RMS(Int)=  0.00000000
 Variable       Old X    -DE/DX   Delta X   Delta X   Delta X     New X
                                 (Linear)    (Quad)   (Total)
    R1        2.86530  -0.00000   0.00000  -0.00001  -0.00001   2.86528
    R2        2.07842   0.00000   0.00000   0.00001   0.00001   2.07843
    R3        2.07849  -0.00000   0.00000  -0.00000  -0.00000   2.07848
    R4        2.07634  -0.00000   0.00000  -0.00001  -0.00001   2.07633
    R5        2.70210  -0.00000   0.00000  -0.00001  -0.00001   2.70209
    R6        2.07764   0.00001   0.00000   0.00002   0.00002   2.07765
    R7        2.07479   0.00000   0.00000   0.00001   0.00001   2.07479
    R8        2.52639   0.00000   0.00000   0.00001   0.00001   2.52640
    R9        2.27775  -0.00000   0.00000  -0.00000  -0.00000   2.27775
   R10        2.81978  -0.00000   0.00000  -0.00000  -0.00000   2.81977
   R11        2.65713   0.00001   0.00000   0.00001   0.00001   2.65714
   R12        2.66377  -0.00001   0.00000  -0.00001  -0.00001   2.66375
   R13        2.50104  -0.00001   0.00000  -0.00001  -0.00001   2.50103
   R14        2.06908  -0.00000   0.00000  -0.00001  -0.00001   2.06908
   R15        2.52390   0.00000   0.00000   0.00000   0.00000   2.52390
   R16        2.61922  -0.00000   0.00000  -0.00001  -0.00001   2.61921
   R17        2.07004  -0.00000   0.00000  -0.00001  -0.00001   2.07003
   R18        2.64895   0.00000   0.00000   0.00001   0.00001   2.64896
   R19        2.06069  -0.00000   0.00000  -0.00000  -0.00000   2.06069
   R20        2.52898  -0.00000   0.00000  -0.00000  -0.00000   2.52897
   R21        2.68812  -0.00000   0.00000  -0.00001  -0.00001   2.68811
   R22        2.86148   0.00000   0.00000   0.00001   0.00001   2.86149
   R23        2.08395  -0.00000   0.00000  -0.00001  -0.00001   2.08394
   R24        2.07583   0.00000   0.00000   0.00000   0.00000   2.07584
   R25        2.07796  -0.00000   0.00000  -0.00000  -0.00000   2.07795
   R26        2.07890   0.00000   0.00000   0.00000   0.00000   2.07891
   R27        2.07733   0.00000   0.00000   0.00001   0.00001   2.07733
    A1        1.91390   0.00000   0.00000   0.00000   0.00000   1.91390
    A2        1.94244   0.00000   0.00000  -0.00000  -0.00000   1.94243
    A3        1.93125   0.00000   0.00000   0.00001   0.00001   1.93126
    A4        1.88476  -0.00000   0.00000  -0.00001  -0.00001   1.88475
    A5        1.88605  -0.00000   0.00000   0.00000   0.00000   1.88605
    A6        1.90399  -0.00000   0.00000  -0.00000  -0.00000   1.90399
    A7        1.95722   0.00000   0.00000   0.00000   0.00000   1.95722
    A8        1.93165   0.00000   0.00000   0.00000   0.00000   1.93165
    A9        1.94403   0.00000   0.00000   0.00000   0.00000   1.94403
   A10        1.90021  -0.00000   0.00000  -0.00000  -0.00000   1.90021
   A11        1.82520   0.00000   0.00000   0.00001   0.00001   1.82521
   A12        1.90187  -0.00000   0.00000  -0.00001  -0.00001   1.90186
   A13        2.04484  -0.00000   0.00000  -0.00001  -0.00001   2.04483
   A14        2.15383   0.00000   0.00000   0.00002   0.00002   2.15385
   A15        1.96861  -0.00000   0.00000  -0.00002  -0.00002   1.96859
   A16        2.15837  -0.00000   0.00000  -0.00000  -0.00000   2.15836
   A17        2.01430  -0.00000   0.00000  -0.00002  -0.00002   2.01429
   A18        2.21774   0.00001   0.00000   0.00002   0.00002   2.21776
   A19        2.04866  -0.00000   0.00000  -0.00001  -0.00001   2.04865
   A20        2.18324   0.00000   0.00000   0.00001   0.00001   2.18325
   A21        2.05222  -0.00000   0.00000  -0.00001  -0.00001   2.05222
   A22        2.04751  -0.00000   0.00000  -0.00001  -0.00001   2.04750
   A23        2.03789  -0.00000   0.00000  -0.00001  -0.00001   2.03789
   A24        2.16004  -0.00000   0.00000  -0.00000  -0.00000   2.16003
   A25        2.03341  -0.00000   0.00000  -0.00001  -0.00001   2.03341
   A26        2.08952   0.00000   0.00000   0.00001   0.00001   2.08953
   A27        2.08581   0.00000   0.00000   0.00001   0.00001   2.08582
   A28        2.12414  -0.00000   0.00000  -0.00000  -0.00000   2.12414
   A29        2.07282  -0.00000   0.00000  -0.00001  -0.00001   2.07282
   A30        2.04866  -0.00000   0.00000  -0.00001  -0.00001   2.04865
   A31        2.20422   0.00001   0.00000   0.00003   0.00003   2.20425
   A32        2.03031  -0.00001   0.00000  -0.00002  -0.00002   2.03029
   A33        2.12758   0.00001   0.00000   0.00005   0.00005   2.12763
   A34        1.90001   0.00000   0.00000   0.00002   0.00002   1.90003
   A35        1.92151   0.00000   0.00000   0.00001   0.00001   1.92152
   A36        1.88910  -0.00000   0.00000  -0.00003  -0.00003   1.88907
   A37        1.93179  -0.00000   0.00000  -0.00001  -0.00001   1.93178
   A38        1.94286   0.00000   0.00000   0.00001   0.00001   1.94288
   A39        1.87813  -0.00000   0.00000  -0.00001  -0.00001   1.87812
   A40        1.93692  -0.00000   0.00000  -0.00001  -0.00001   1.93691
   A41        1.92084   0.00000   0.00000   0.00000   0.00000   1.92084
   A42        1.92909   0.00000   0.00000   0.00000   0.00000   1.92909
   A43        1.89275   0.00000   0.00000  -0.00000  -0.00000   1.89275
   A44        1.89182   0.00000   0.00000  -0.00000  -0.00000   1.89182
   A45        1.89129   0.00000   0.00000   0.00001   0.00001   1.89130
    D1        3.10359  -0.00000   0.00000  -0.00004  -0.00004   3.10355
    D2       -1.05393  -0.00000   0.00000  -0.00004  -0.00004  -1.05397
    D3        1.06477  -0.00000   0.00000  -0.00005  -0.00005   1.06472
    D4        1.01932   0.00000   0.00000  -0.00002  -0.00002   1.01930
    D5       -3.13820   0.00000   0.00000  -0.00003  -0.00003  -3.13822
    D6       -1.01950  -0.00000   0.00000  -0.00004  -0.00004  -1.01953
    D7       -1.10071   0.00000   0.00000  -0.00002  -0.00002  -1.10074
    D8        1.02495   0.00000   0.00000  -0.00003  -0.00003   1.02492
    D9       -3.13954  -0.00000   0.00000  -0.00004  -0.00004  -3.13957
   D10        1.41462  -0.00000   0.00000  -0.00004  -0.00004   1.41459
   D11       -0.72892  -0.00000   0.00000  -0.00004  -0.00004  -0.72896
   D12       -2.75961   0.00000   0.00000  -0.00003  -0.00003  -2.75964
   D13        0.02277  -0.00000   0.00000   0.00000   0.00000   0.02277
   D14        3.09267  -0.00000   0.00000  -0.00007  -0.00007   3.09259
   D15       -2.58921   0.00000   0.00000   0.00019   0.00019  -2.58902
   D16        0.47409   0.00000   0.00000   0.00017   0.00017   0.47426
   D17        0.48048   0.00000   0.00000   0.00011   0.00011   0.48059
   D18       -2.73941   0.00000   0.00000   0.00009   0.00009  -2.73932
   D19        3.02047  -0.00000   0.00000  -0.00007  -0.00007   3.02039
   D20       -0.09819   0.00000   0.00000   0.00000   0.00000  -0.09819
   D21       -0.05079  -0.00000   0.00000  -0.00006  -0.00006  -0.05085
   D22        3.11374   0.00000   0.00000   0.00002   0.00002   3.11376
   D23       -2.99361   0.00000   0.00000   0.00008   0.00008  -2.99353
   D24        0.14813   0.00000   0.00000   0.00004   0.00004   0.14817
   D25        0.06834   0.00000   0.00000   0.00006   0.00006   0.06840
   D26       -3.07311   0.00000   0.00000   0.00002   0.00002  -3.07309
   D27        0.00018   0.00000   0.00000   0.00003   0.00003   0.00021
   D28        3.11889  -0.00000   0.00000  -0.00004  -0.00004   3.11885
   D29        0.03148  -0.00000   0.00000  -0.00001  -0.00001   0.03148
   D30       -3.13230  -0.00000   0.00000  -0.00000  -0.00000  -3.13231
   D31       -0.01031   0.00000   0.00000   0.00001   0.00001  -0.01030
   D32        3.10017  -0.00000   0.00000  -0.00000  -0.00000   3.10016
   D33       -3.12903   0.00000   0.00000   0.00001   0.00001  -3.12902
   D34       -0.01855  -0.00000   0.00000  -0.00001  -0.00001  -0.01856
   D35       -0.04131  -0.00000   0.00000  -0.00004  -0.00004  -0.04135
   D36        3.10015   0.00000   0.00000  -0.00000  -0.00000   3.10015
   D37        3.13048  -0.00000   0.00000  -0.00002  -0.00002   3.13046
   D38       -0.01124   0.00000   0.00000   0.00001   0.00001  -0.01123
   D39        0.76326   0.00000   0.00000   0.00003   0.00003   0.76329
   D40       -2.37818  -0.00000   0.00000  -0.00001  -0.00001  -2.37820
   D41        2.17127  -0.00000   0.00000  -0.00006  -0.00006   2.17121
   D42        0.05077  -0.00000   0.00000  -0.00007  -0.00007   0.05070
   D43       -1.99769   0.00000   0.00000  -0.00005  -0.00005  -1.99774
   D44       -1.09478  -0.00000   0.00000   0.00002   0.00002  -1.09476
   D45        3.09316  -0.00000   0.00000   0.00003   0.00003   3.09319
   D46        1.00473  -0.00000   0.00000   0.00001   0.00001   1.00475
   D47        1.01944   0.00000   0.00000   0.00004   0.00004   1.01948
   D48       -1.07581   0.00000   0.00000   0.00005   0.00005  -1.07576
   D49        3.11895   0.00000   0.00000   0.00003   0.00003   3.11899
   D50        3.10743   0.00000   0.00000   0.00003   0.00003   3.10747
   D51        1.01219   0.00000   0.00000   0.00004   0.00004   1.01223
   D52       -1.07624  -0.00000   0.00000   0.00002   0.00002  -1.07622
         Item               Value     Threshold  Converged?
 Maximum Force            0.000012     0.000450     YES
 RMS     Force            0.000002     0.000300     YES
 Maximum Displacement     0.000661     0.001800     YES
 RMS     Displacement     0.000199     0.001200     YES
 Predicted change in Energy=-2.184859D-09
 Optimization completed.
    -- Stationary point found.
                           ----------------------------
                           !   Optimized Parameters   !
                           ! (Angstroms and Degrees)  !
 --------------------------                            --------------------------
 ! Name  Definition              Value          Derivative Info.                !
 --------------------------------------------------------------------------------
 ! R1    R(1,2)                  1.5163         -DE/DX =    0.0                 !
 ! R2    R(1,15)                 1.0999         -DE/DX =    0.0                 !
 ! R3    R(1,16)                 1.0999         -DE/DX =    0.0                 !
 ! R4    R(1,17)                 1.0988         -DE/DX =    0.0                 !
 ! R5    R(2,3)                  1.4299         -DE/DX =    0.0                 !
 ! R6    R(2,18)                 1.0994         -DE/DX =    0.0                 !
 ! R7    R(2,19)                 1.0979         -DE/DX =    0.0                 !
 ! R8    R(3,4)                  1.3369         -DE/DX =    0.0                 !
 ! R9    R(4,5)                  1.2053         -DE/DX =    0.0                 !
 ! R10   R(4,6)                  1.4922         -DE/DX =    0.0                 !
 ! R11   R(6,7)                  1.4061         -DE/DX =    0.0                 !
 ! R12   R(6,11)                 1.4096         -DE/DX =    0.0                 !
 ! R13   R(7,8)                  1.3235         -DE/DX =    0.0                 !
 ! R14   R(7,20)                 1.0949         -DE/DX =    0.0                 !
 ! R15   R(8,9)                  1.3356         -DE/DX =    0.0                 !
 ! R16   R(9,10)                 1.386          -DE/DX =    0.0                 !
 ! R17   R(9,21)                 1.0954         -DE/DX =    0.0                 !
 ! R18   R(10,11)                1.4018         -DE/DX =    0.0                 !
 ! R19   R(10,22)                1.0905         -DE/DX =    0.0                 !
 ! R20   R(11,12)                1.3383         -DE/DX =    0.0                 !
 ! R21   R(12,13)                1.4225         -DE/DX =    0.0                 !
 ! R22   R(13,14)                1.5142         -DE/DX =    0.0                 !
 ! R23   R(13,23)                1.1028         -DE/DX =    0.0                 !
 ! R24   R(13,24)                1.0985         -DE/DX =    0.0                 !
 ! R25   R(14,25)                1.0996         -DE/DX =    0.0                 !
 ! R26   R(14,26)                1.1001         -DE/DX =    0.0                 !
 ! R27   R(14,27)                1.0993         -DE/DX =    0.0                 !
 ! A1    A(2,1,15)             109.6582         -DE/DX =    0.0                 !
 ! A2    A(2,1,16)             111.2934         -DE/DX =    0.0                 !
 ! A3    A(2,1,17)             110.6525         -DE/DX =    0.0                 !
 ! A4    A(15,1,16)            107.9886         -DE/DX =    0.0                 !
 ! A5    A(15,1,17)            108.0627         -DE/DX =    0.0                 !
 ! A6    A(16,1,17)            109.0908         -DE/DX =    0.0                 !
 ! A7    A(1,2,3)              112.1403         -DE/DX =    0.0                 !
 ! A8    A(1,2,18)             110.6756         -DE/DX =    0.0                 !
 ! A9    A(1,2,19)             111.3846         -DE/DX =    0.0                 !
 ! A10   A(3,2,18)             108.8741         -DE/DX =    0.0                 !
 ! A11   A(3,2,19)             104.5765         -DE/DX =    0.0                 !
 ! A12   A(18,2,19)            108.969          -DE/DX =    0.0                 !
 ! A13   A(2,3,4)              117.1608         -DE/DX =    0.0                 !
 ! A14   A(3,4,5)              123.4054         -DE/DX =    0.0                 !
 ! A15   A(3,4,6)              112.793          -DE/DX =    0.0                 !
 ! A16   A(5,4,6)              123.6654         -DE/DX =    0.0                 !
 ! A17   A(4,6,7)              115.411          -DE/DX =    0.0                 !
 ! A18   A(4,6,11)             127.0671         -DE/DX =    0.0                 !
 ! A19   A(7,6,11)             117.3794         -DE/DX =    0.0                 !
 ! A20   A(6,7,8)              125.0905         -DE/DX =    0.0                 !
 ! A21   A(6,7,20)             117.5836         -DE/DX =    0.0                 !
 ! A22   A(8,7,20)             117.3136         -DE/DX =    0.0                 !
 ! A23   A(7,8,9)              116.7627         -DE/DX =    0.0                 !
 ! A24   A(8,9,10)             123.7611         -DE/DX =    0.0                 !
 ! A25   A(8,9,21)             116.5061         -DE/DX =    0.0                 !
 ! A26   A(10,9,21)            119.7207         -DE/DX =    0.0                 !
 ! A27   A(9,10,11)            119.5083         -DE/DX =    0.0                 !
 ! A28   A(9,10,22)            121.7042         -DE/DX =    0.0                 !
 ! A29   A(11,10,22)           118.764          -DE/DX =    0.0                 !
 ! A30   A(6,11,10)            117.3793         -DE/DX =    0.0                 !
 ! A31   A(6,11,12)            126.2923         -DE/DX =    0.0                 !
 ! A32   A(10,11,12)           116.3284         -DE/DX =    0.0                 !
 ! A33   A(11,12,13)           121.9014         -DE/DX =    0.0                 !
 ! A34   A(12,13,14)           108.8627         -DE/DX =    0.0                 !
 ! A35   A(12,13,23)           110.0945         -DE/DX =    0.0                 !
 ! A36   A(12,13,24)           108.2373         -DE/DX =    0.0                 !
 ! A37   A(14,13,23)           110.6836         -DE/DX =    0.0                 !
 ! A38   A(14,13,24)           111.3179         -DE/DX =    0.0                 !
 ! A39   A(23,13,24)           107.6089         -DE/DX =    0.0                 !
 ! A40   A(13,14,25)           110.9776         -DE/DX =    0.0                 !
 ! A41   A(13,14,26)           110.0559         -DE/DX =    0.0                 !
 ! A42   A(13,14,27)           110.5286         -DE/DX =    0.0                 !
 ! A43   A(25,14,26)           108.4468         -DE/DX =    0.0                 !
 ! A44   A(25,14,27)           108.3934         -DE/DX =    0.0                 !
 ! A45   A(26,14,27)           108.3631         -DE/DX =    0.0                 !
 ! D1    D(15,1,2,3)           177.8224         -DE/DX =    0.0                 !
 ! D2    D(15,1,2,18)          -60.386          -DE/DX =    0.0                 !
 ! D3    D(15,1,2,19)           61.0066         -DE/DX =    0.0                 !
 ! D4    D(16,1,2,3)            58.403          -DE/DX =    0.0                 !
 ! D5    D(16,1,2,18)         -179.8054         -DE/DX =    0.0                 !
 ! D6    D(16,1,2,19)          -58.4128         -DE/DX =    0.0                 !
 ! D7    D(17,1,2,3)           -63.0663         -DE/DX =    0.0                 !
 ! D8    D(17,1,2,18)           58.7252         -DE/DX =    0.0                 !
 ! D9    D(17,1,2,19)         -179.8822         -DE/DX =    0.0                 !
 ! D10   D(1,2,3,4)             81.0519         -DE/DX =    0.0                 !
 ! D11   D(18,2,3,4)           -41.7641         -DE/DX =    0.0                 !
 ! D12   D(19,2,3,4)          -158.1142         -DE/DX =    0.0                 !
 ! D13   D(2,3,4,5)              1.3045         -DE/DX =    0.0                 !
 ! D14   D(2,3,4,6)            177.1968         -DE/DX =    0.0                 !
 ! D15   D(3,4,6,7)           -148.3506         -DE/DX =    0.0                 !
 ! D16   D(3,4,6,11)            27.1635         -DE/DX =    0.0                 !
 ! D17   D(5,4,6,7)             27.5293         -DE/DX =    0.0                 !
 ! D18   D(5,4,6,11)          -156.9566         -DE/DX =    0.0                 !
 ! D19   D(4,6,7,8)            173.06           -DE/DX =    0.0                 !
 ! D20   D(4,6,7,20)            -5.626          -DE/DX =    0.0                 !
 ! D21   D(11,6,7,8)            -2.9098         -DE/DX =    0.0                 !
 ! D22   D(11,6,7,20)          178.4041         -DE/DX =    0.0                 !
 ! D23   D(4,6,11,10)         -171.5212         -DE/DX =    0.0                 !
 ! D24   D(4,6,11,12)            8.4872         -DE/DX =    0.0                 !
 ! D25   D(7,6,11,10)            3.9156         -DE/DX =    0.0                 !
 ! D26   D(7,6,11,12)         -176.076          -DE/DX =    0.0                 !
 ! D27   D(6,7,8,9)              0.0103         -DE/DX =    0.0                 !
 ! D28   D(20,7,8,9)           178.6995         -DE/DX =    0.0                 !
 ! D29   D(7,8,9,10)             1.8038         -DE/DX =    0.0                 !
 ! D30   D(7,8,9,21)          -179.4677         -DE/DX =    0.0                 !
 ! D31   D(8,9,10,11)           -0.5906         -DE/DX =    0.0                 !
 ! D32   D(8,9,10,22)          177.6266         -DE/DX =    0.0                 !
 ! D33   D(21,9,10,11)        -179.2803         -DE/DX =    0.0                 !
 ! D34   D(21,9,10,22)          -1.0631         -DE/DX =    0.0                 !
 ! D35   D(9,10,11,6)           -2.367          -DE/DX =    0.0                 !
 ! D36   D(9,10,11,12)         177.6255         -DE/DX =    0.0                 !
 ! D37   D(22,10,11,6)         179.3632         -DE/DX =    0.0                 !
 ! D38   D(22,10,11,12)         -0.6443         -DE/DX =    0.0                 !
 ! D39   D(6,11,12,13)          43.7318         -DE/DX =    0.0                 !
 ! D40   D(10,11,12,13)       -136.2599         -DE/DX =    0.0                 !
 ! D41   D(11,12,13,14)        124.4049         -DE/DX =    0.0                 !
 ! D42   D(11,12,13,23)          2.9091         -DE/DX =    0.0                 !
 ! D43   D(11,12,13,24)       -114.4593         -DE/DX =    0.0                 !
 ! D44   D(12,13,14,25)        -62.7262         -DE/DX =    0.0                 !
 ! D45   D(12,13,14,26)        177.225          -DE/DX =    0.0                 !
 ! D46   D(12,13,14,27)         57.567          -DE/DX =    0.0                 !
 ! D47   D(23,13,14,25)         58.4097         -DE/DX =    0.0                 !
 ! D48   D(23,13,14,26)        -61.6391         -DE/DX =    0.0                 !
 ! D49   D(23,13,14,27)        178.7029         -DE/DX =    0.0                 !
 ! D50   D(24,13,14,25)        178.0429         -DE/DX =    0.0                 !
 ! D51   D(24,13,14,26)         57.994          -DE/DX =    0.0                 !
 ! D52   D(24,13,14,27)        -61.664          -DE/DX =    0.0                 !
 --------------------------------------------------------------------------------
 GradGradGradGradGradGradGradGradGradGradGradGradGradGradGradGradGradGrad

                          Input orientation:                          
 ---------------------------------------------------------------------
 Center     Atomic      Atomic             Coordinates (Angstroms)
 Number     Number       Type             X           Y           Z
 ---------------------------------------------------------------------
      1          6           0       -3.680560   -0.347490    0.272470
      2          6           0       -2.834410   -0.967960   -0.822090
      3          8           0       -1.468400   -0.551810   -0.748500
      4          6           0       -0.685130   -1.181820    0.132920
      5          8           0       -1.068500   -2.082250    0.836540
      6          6           0        0.732170   -0.717930    0.081810
      7          6           0        1.697320   -1.691430    0.394670
      8          7           0        3.006040   -1.528630    0.283380
      9          6           0        3.428840   -0.342490   -0.161720
     10          6           0        2.582420    0.711060   -0.469430
     11          6           0        1.197470    0.548440   -0.326590
     12          8           0        0.443190    1.621070   -0.594010
     13          6           0       -0.644470    2.002020    0.239870
     14          6           0       -0.442130    3.435420    0.684070
     15          1           0       -4.727540   -0.663090    0.154550
     16          1           0       -3.649730    0.751020    0.226890
     17          1           0       -3.335180   -0.675920    1.262470
     18          1           0       -2.875220   -2.065370   -0.769290
     19          1           0       -3.168160   -0.645880   -1.817240
     20          1           0        1.339880   -2.667770    0.737930
     21          1           0        4.512340   -0.215400   -0.260770
     22          1           0        2.966400    1.678540   -0.794490
     23          1           0       -0.707380    1.329330    1.111450
     24          1           0       -1.573960    1.889390   -0.334610
     25          1           0        0.471500    3.535230    1.287770
     26          1           0       -1.298040    3.766840    1.290550
     27          1           0       -0.356690    4.100520   -0.186990
 ---------------------------------------------------------------------
                    Distance matrix (angstroms):
                    1          2          3          4          5
     1  C    0.000000
     2  C    1.516250   0.000000
     3  O    2.444950   1.429888   0.000000
     4  C    3.112584   2.361606   1.336909   0.000000
     5  O    3.185973   2.666671   2.239312   1.205333   0.000000
     6  C    4.432354   3.687824   2.357863   1.492161   2.381890
     7  C    5.544610   4.747683   3.553499   2.450364   2.828029
     8  N    6.790127   5.970534   4.694632   3.710479   4.149019
     9  C    7.122648   6.328950   4.936708   4.209042   4.924363
    10  C    6.394987   5.682035   4.252277   3.823964   4.778845
    11  C    4.995672   4.336017   2.914691   2.597909   3.661697
    12  O    4.650949   4.183032   2.898181   3.107688   4.248089
    13  C    3.839154   3.839841   2.859682   3.185895   4.149347
    14  C    4.996724   5.232712   4.359299   4.656363   5.555202
    15  H    1.099853   2.151909   3.383767   4.075614   3.983428
    16  H    1.099887   2.172556   2.721572   3.540276   3.880959
    17  H    1.098751   2.163665   2.746684   2.924822   2.701299
    18  H    2.164474   1.099437   2.066504   2.528070   2.417274
    19  H    2.172206   1.097929   2.010034   3.202467   3.676177
    20  H    5.550241   4.769456   3.817486   2.583554   2.480494
    21  H    8.211297   7.406495   6.010017   5.301194   5.986234
    22  H    7.030311   6.376058   4.964275   4.730266   5.751888
    23  H    3.515027   3.679725   2.752681   2.695161   3.441636
    24  H    3.132083   3.160826   2.478287   3.231243   4.171451
    25  H    5.774595   5.971538   4.961200   4.992197   5.842199
    26  H    4.862160   5.407588   4.778858   5.119082   5.871173
    27  H    5.571715   5.677318   4.816157   5.302201   6.307213
                    6          7          8          9         10
     6  C    0.000000
     7  C    1.406093   0.000000
     8  N    2.422468   1.323494   0.000000
     9  C    2.733549   2.264370   1.335590   0.000000
    10  C    2.401937   2.702227   2.400497   1.386030   0.000000
    11  C    1.409605   2.405636   2.820852   2.408309   1.401761
    12  O    2.451767   3.677361   4.154350   3.599521   2.328077
    13  C    3.052581   4.376016   5.078741   4.716975   3.547182
    14  C    4.357983   5.562876   6.057410   5.474703   4.230910
    15  H    5.460470   6.511065   7.782931   8.168803   7.464124
    16  H    4.623841   5.880872   7.035572   7.173070   6.271057
    17  H    4.235453   5.206764   6.472774   6.920366   6.319904
    18  H    3.943758   4.733155   5.998785   6.563431   6.130605
    19  H    4.338681   5.445972   6.581231   6.808319   6.060285
    20  H    2.145153   1.094911   2.068899   3.252699   3.797119
    21  H    3.828783   3.245397   2.071138   1.095415   2.150920
    22  H    3.391571   3.792277   3.383684   2.167674   1.090469
    23  H    2.706240   3.927002   4.758479   4.639425   3.701922
    24  H    3.505675   4.904630   5.748145   5.480802   4.322283
    25  H    4.428505   5.442264   5.751119   5.087592   3.939501
    26  H    5.069119   6.290270   6.897934   6.429547   5.243405
    27  H    4.947255   6.172841   6.573928   5.837055   4.495173
                   11         12         13         14         15
    11  C    0.000000
    12  O    1.338278   0.000000
    13  C    2.413817   1.422492   0.000000
    14  C    3.470501   2.389382   1.514229   0.000000
    15  H    6.066716   5.702120   4.876633   5.953395   0.000000
    16  H    4.882901   4.264136   3.255266   4.207578   1.779498
    17  H    4.956721   4.795702   3.931538   5.060376   1.779415
    18  H    4.859505   4.963105   4.747453   6.187962   2.500192
    19  H    4.765203   4.435899   4.196676   5.508612   2.513945
    20  H    3.390795   4.579549   5.098298   6.358254   6.416593
    21  H    3.402374   4.476790   5.635626   6.226394   9.260038
    22  H    2.150621   2.531814   3.770003   4.109847   8.098186
    23  H    2.511215   2.077864   1.102779   2.165324   4.587710
    24  H    3.078804   2.051384   1.098483   2.170013   4.086502
    25  H    3.471902   2.684382   2.166614   1.099607   6.777912
    26  H    4.381873   3.344813   2.155382   1.100109   5.716314
    27  H    3.879713   2.636882   2.160724   1.099274   6.474022
                   16         17         18         19         20
    16  H    0.000000
    17  H    1.790957   0.000000
    18  H    3.086145   2.504033   0.000000
    19  H    2.522242   3.084382   1.788565   0.000000
    20  H    6.070049   5.108698   4.516820   5.562316   0.000000
    21  H    8.233539   8.007241   7.632629   7.848439   4.132314
    22  H    6.758453   7.034520   6.938445   6.639411   4.887156
    23  H    3.126390   3.308953   4.445301   4.305127   4.506395
    24  H    2.433103   3.497624   4.185971   3.341745   5.514391
    25  H    5.085453   5.676728   6.840961   6.353731   6.287576
    26  H    3.969507   4.887622   6.383190   5.712075   6.976261
    27  H    4.715354   5.812634   6.685826   5.752425   7.038720
                   21         22         23         24         25
    21  H    0.000000
[...]
 Alpha virt. eigenvalues --    6.84289   6.90562   7.02812   7.04488   7.12111
 Alpha virt. eigenvalues --    7.15640   7.23761   7.30443   7.42672   7.46331
 Alpha virt. eigenvalues --    7.53816  22.38958  22.41389  22.52509  22.56493
 Alpha virt. eigenvalues --   22.59114  22.81695  22.91375  23.01597  23.30479
 Alpha virt. eigenvalues --   23.61829  32.52139  44.06352  44.34028  44.47171
          Condensed to atoms (all electrons):
               1          2          3          4          5          6
     1  C    4.975359   0.313191  -0.038343   0.004386  -0.015801  -0.001859
     2  C    0.313191   4.807891   0.213834  -0.042168   0.012221   0.006994
     3  O   -0.038343   0.213834   7.993218   0.344278  -0.084130  -0.113770
     4  C    0.004386  -0.042168   0.344278   4.587798   0.612155   0.278087
     5  O   -0.015801   0.012221  -0.084130   0.612155   7.902549  -0.100003
     6  C   -0.001859   0.006994  -0.113770   0.278087  -0.100003   5.442657
     7  C    0.000090  -0.001277  -0.000188  -0.052149   0.010295   0.427288
     8  N    0.000000  -0.000005  -0.000266   0.004945   0.000157  -0.057178
     9  C    0.000003  -0.000019   0.000273  -0.002942   0.000394  -0.021741
    10  C   -0.000014   0.000037  -0.001471   0.012793  -0.000780  -0.036163
    11  C    0.000078  -0.002121   0.020091  -0.091346   0.002378   0.295650
    12  O   -0.000330   0.000726  -0.002219  -0.005346  -0.000070  -0.069352
    13  C    0.000025  -0.001751   0.004027  -0.006045  -0.001173  -0.015043
    14  C    0.000061  -0.000004   0.002610   0.000068  -0.000051  -0.002927
    15  H    0.400249  -0.030478   0.003926   0.000355   0.000167   0.000049
    16  H    0.400204  -0.030648  -0.000530  -0.003653   0.000665  -0.001101
    17  H    0.417947  -0.042080  -0.003386   0.006741   0.006332   0.002752
    18  H   -0.040909   0.425411  -0.029263  -0.015920   0.010690  -0.002995
    19  H   -0.033667   0.398211  -0.033565   0.006024   0.001487   0.002689
    20  H    0.000021  -0.000238   0.000410  -0.006510   0.012932  -0.065878
    21  H   -0.000000  -0.000000  -0.000000   0.000004   0.000000  -0.001433
    22  H    0.000001  -0.000002  -0.000029   0.000227   0.000004   0.017871
    23  H    0.000904  -0.000664  -0.007604   0.006754   0.000478   0.000885
    24  H    0.001953  -0.002646   0.000592  -0.003808   0.000186   0.006916
    25  H    0.000012  -0.000011  -0.000055  -0.000024   0.000001   0.000956
    26  H   -0.000059   0.000004   0.000018   0.000018   0.000002   0.000210
    27  H    0.000004   0.000001  -0.000042  -0.000011   0.000000  -0.000109
               7          8          9         10         11         12
     1  C    0.000090   0.000000   0.000003  -0.000014   0.000078  -0.000330
     2  C   -0.001277  -0.000005  -0.000019   0.000037  -0.002121   0.000726
     3  O   -0.000188  -0.000266   0.000273  -0.001471   0.020091  -0.002219
     4  C   -0.052149   0.004945  -0.002942   0.012793  -0.091346  -0.005346
     5  O    0.010295   0.000157   0.000394  -0.000780   0.002378  -0.000070
     6  C    0.427288  -0.057178  -0.021741  -0.036163   0.295650  -0.069352
     7  C    4.819792   0.538777  -0.101184  -0.038024   0.019792   0.001552
     8  N    0.538777   6.439671   0.500008  -0.049851  -0.058523  -0.000033
     9  C   -0.101184   0.500008   4.722579   0.494872  -0.000111   0.003069
    10  C   -0.038024  -0.049851   0.494872   5.056233   0.436900  -0.051186
    11  C    0.019792  -0.058523  -0.000111   0.436900   4.931581   0.357734
    12  O    0.001552  -0.000033   0.003069  -0.051186   0.357734   7.948991
    13  C    0.003345   0.000085  -0.000597   0.003277  -0.041015   0.213150
    14  C    0.000097  -0.000030   0.000053  -0.001521   0.003931  -0.034356
    15  H    0.000003  -0.000000   0.000000  -0.000000  -0.000004  -0.000008
    16  H   -0.000014  -0.000000  -0.000001   0.000006  -0.000014  -0.000028
    17  H   -0.000021  -0.000000   0.000000   0.000003  -0.000059   0.000025
    18  H    0.000036   0.000002  -0.000004   0.000021   0.000348  -0.000030
    19  H    0.000080  -0.000000  -0.000001   0.000001  -0.000333   0.000059
    20  H    0.434543  -0.024055   0.003705   0.001149   0.001305  -0.000121
    21  H    0.004701  -0.030679   0.431939  -0.066313   0.005745  -0.000188
    22  H   -0.002584   0.006514  -0.030892   0.417981  -0.069342   0.007109
    23  H   -0.000055  -0.000085  -0.000154   0.008036  -0.002655  -0.046171
    24  H   -0.000096   0.000000   0.000083  -0.002189  -0.009238  -0.032321
    25  H    0.000012   0.000002   0.000006  -0.001422   0.001093   0.001434
    26  H   -0.000013   0.000001   0.000003   0.000014   0.000191   0.005207
    27  H    0.000006  -0.000000   0.000003   0.000779  -0.000745   0.000466
              13         14         15         16         17         18
     1  C    0.000025   0.000061   0.400249   0.400204   0.417947  -0.040909
     2  C   -0.001751  -0.000004  -0.030478  -0.030648  -0.042080   0.425411
     3  O    0.004027   0.002610   0.003926  -0.000530  -0.003386  -0.029263
     4  C   -0.006045   0.000068   0.000355  -0.003653   0.006741  -0.015920
     5  O   -0.001173  -0.000051   0.000167   0.000665   0.006332   0.010690
     6  C   -0.015043  -0.002927   0.000049  -0.001101   0.002752  -0.002995
     7  C    0.003345   0.000097   0.000003  -0.000014  -0.000021   0.000036
     8  N    0.000085  -0.000030  -0.000000  -0.000000  -0.000000   0.000002
     9  C   -0.000597   0.000053   0.000000  -0.000001   0.000000  -0.000004
    10  C    0.003277  -0.001521  -0.000000   0.000006   0.000003   0.000021
    11  C   -0.041015   0.003931  -0.000004  -0.000014  -0.000059   0.000348
    12  O    0.213150  -0.034356  -0.000008  -0.000028   0.000025  -0.000030
    13  C    4.867923   0.307889   0.000226  -0.001370  -0.000420   0.000295
    14  C    0.307889   4.887807  -0.000004   0.000671  -0.000033   0.000032
    15  H    0.000226  -0.000004   0.536789  -0.019254  -0.017847  -0.000768
    16  H   -0.001370   0.000671  -0.019254   0.565607  -0.024230   0.005649
    17  H   -0.000420  -0.000033  -0.017847  -0.024230   0.501106  -0.004554
    18  H    0.000295   0.000032  -0.000768   0.005649  -0.004554   0.551788
    19  H    0.000279  -0.000021  -0.001831  -0.004809   0.004549  -0.026017
    20  H    0.000020   0.000003   0.000000  -0.000002   0.000002   0.000036
    21  H    0.000031  -0.000007  -0.000000  -0.000000  -0.000000  -0.000000
    22  H   -0.001275  -0.000155   0.000000  -0.000000  -0.000000  -0.000000
    23  H    0.403124  -0.023808  -0.000015  -0.000800   0.000213  -0.000078
    24  H    0.405541  -0.036939   0.000111   0.002236  -0.000323   0.000112
    25  H   -0.030302   0.404032   0.000000  -0.000014   0.000000  -0.000000
    26  H   -0.041761   0.411047   0.000002   0.000181   0.000006  -0.000000
    27  H   -0.038913   0.416429  -0.000000   0.000000  -0.000001  -0.000000
              19         20         21         22         23         24
     1  C   -0.033667   0.000021  -0.000000   0.000001   0.000904   0.001953
     2  C    0.398211  -0.000238  -0.000000  -0.000002  -0.000664  -0.002646
     3  O   -0.033565   0.000410  -0.000000  -0.000029  -0.007604   0.000592
     4  C    0.006024  -0.006510   0.000004   0.000227   0.006754  -0.003808
     5  O    0.001487   0.012932   0.000000   0.000004   0.000478   0.000186
     6  C    0.002689  -0.065878  -0.001433   0.017871   0.000885   0.006916
     7  C    0.000080   0.434543   0.004701  -0.002584  -0.000055  -0.000096
     8  N   -0.000000  -0.024055  -0.030679   0.006514  -0.000085   0.000000
     9  C   -0.000001   0.003705   0.431939  -0.030892  -0.000154   0.000083
    10  C    0.000001   0.001149  -0.066313   0.417981   0.008036  -0.002189
    11  C   -0.000333   0.001305   0.005745  -0.069342  -0.002655  -0.009238
    12  O    0.000059  -0.000121  -0.000188   0.007109  -0.046171  -0.032321
    13  C    0.000279   0.000020   0.000031  -0.001275   0.403124   0.405541
    14  C   -0.000021   0.000003  -0.000007  -0.000155  -0.023808  -0.036939
    15  H   -0.001831   0.000000  -0.000000   0.000000  -0.000015   0.000111
    16  H   -0.004809  -0.000002  -0.000000  -0.000000  -0.000800   0.002236
    17  H    0.004549   0.000002  -0.000000  -0.000000   0.000213  -0.000323
    18  H   -0.026017   0.000036  -0.000000  -0.000000  -0.000078   0.000112
    19  H    0.564695   0.000006  -0.000000   0.000000  -0.000010  -0.000563
    20  H    0.000006   0.481587  -0.000152   0.000077   0.000032  -0.000009
    21  H   -0.000000  -0.000152   0.527677  -0.002926   0.000003  -0.000001
    22  H    0.000000   0.000077  -0.002926   0.518970   0.000309   0.000021
    23  H   -0.000010   0.000032   0.000003   0.000309   0.593992  -0.047631
    24  H   -0.000563  -0.000009  -0.000001   0.000021  -0.047631   0.617535
    25  H    0.000000  -0.000000  -0.000002   0.000084  -0.007661   0.007519
    26  H   -0.000001   0.000000  -0.000000   0.000041  -0.002294  -0.000890
    27  H   -0.000001   0.000000   0.000000   0.000102   0.007853  -0.008899
              25         26         27
     1  C    0.000012  -0.000059   0.000004
     2  C   -0.000011   0.000004   0.000001
     3  O   -0.000055   0.000018  -0.000042
     4  C   -0.000024   0.000018  -0.000011
     5  O    0.000001   0.000002   0.000000
     6  C    0.000956   0.000210  -0.000109
     7  C    0.000012  -0.000013   0.000006
     8  N    0.000002   0.000001  -0.000000
     9  C    0.000006   0.000003   0.000003
    10  C   -0.001422   0.000014   0.000779
    11  C    0.001093   0.000191  -0.000745
    12  O    0.001434   0.005207   0.000466
    13  C   -0.030302  -0.041761  -0.038913
    14  C    0.404032   0.411047   0.416429
    15  H    0.000000   0.000002  -0.000000
    16  H   -0.000014   0.000181   0.000000
    17  H    0.000000   0.000006  -0.000001
    18  H   -0.000000  -0.000000  -0.000000
    19  H    0.000000  -0.000001  -0.000001
    20  H   -0.000000   0.000000   0.000000
    21  H   -0.000002  -0.000000   0.000000
    22  H    0.000084   0.000041   0.000102
    23  H   -0.007661  -0.002294   0.007853
    24  H    0.007519  -0.000890  -0.008899
    25  H    0.551330  -0.021704  -0.024859
    26  H   -0.021704   0.553512  -0.022444
    27  H   -0.024859  -0.022444   0.544987
 Mulliken charges:
               1
     1  C   -0.383506
     2  C   -0.024408
     3  O   -0.268414
     4  C    0.365289
     5  O   -0.371085
     6  C    0.006547
     7  C   -0.064803
     8  N   -0.269457
     9  C    0.000655
    10  C   -0.183170
    11  C    0.198691
    12  O   -0.297762
    13  C   -0.029573
    14  C   -0.334873
    15  H    0.128332
    16  H    0.111247
    17  H    0.153278
    18  H    0.126120
    19  H    0.122739
    20  H    0.161136
    21  H    0.131601
    22  H    0.137895
    23  H    0.117100
    24  H    0.102749
    25  H    0.119570
    26  H    0.118709
    27  H    0.125395
 Sum of Mulliken charges =  -0.00000
 Mulliken charges with hydrogens summed into heavy atoms:
               1
     1  C    0.009351
     2  C    0.224451
     3  O   -0.268414
     4  C    0.365289
     5  O   -0.371085
     6  C    0.006547
     7  C    0.096333
     8  N   -0.269457
     9  C    0.132255
    10  C   -0.045275
    11  C    0.198691
    12  O   -0.297762
    13  C    0.190277
    14  C    0.028800
 Electronic spatial extent (au):  <R**2>=           2963.4463
 Charge=             -0.0000 electrons
 Dipole moment (field-independent basis, Debye):
    X=              2.4451    Y=              3.3882    Z=              0.7869  Tot=              4.2517
 Quadrupole moment (field-independent basis, Debye-Ang):
   XX=            -76.1763   YY=            -85.2382   ZZ=            -84.8308
   XY=             -4.4564   XZ=              0.4951   YZ=             -5.1143
 Traceless Quadrupole moment (field-independent basis, Debye-Ang):
   XX=              5.9054   YY=             -3.1564   ZZ=             -2.7490
   XY=             -4.4564   XZ=              0.4951   YZ=             -5.1143
 Octapole moment (field-independent basis, Debye-Ang**2):
  XXX=             38.6425  YYY=             20.2597  ZZZ=              3.2693  XYY=             14.5101
  XXY=             22.5090  XXZ=             18.2735  XZZ=              8.9392  YZZ=              2.6799
  YYZ=              6.2718  XYZ=             -4.9782
 Hexadecapole moment (field-independent basis, Debye-Ang**3):
 XXXX=          -2188.5824 YYYY=          -1373.8359 ZZZZ=           -246.3302 XXXY=           -140.4628
 XXXZ=            -14.5412 YYYX=            -17.2113 YYYZ=             -9.0148 ZZZX=              9.5798
 ZZZY=              2.6136 XXYY=           -660.5003 XXZZ=           -436.5861 YYZZ=           -275.1434
 XXYZ=            -12.5354 YYXZ=              6.3662 ZZXY=             -4.6731
 N-N= 9.152017965813D+02 E-N=-3.392782274666D+03  KE= 6.660401109831D+02
 Breneman (CHELPG) radii used.
 Read replacement radii for each type of atom:
 Atom Element Radius
    1     6    1.50
    2     6    1.50
    3     8    1.70
    4     6    1.50
    5     8    1.70
    6     6    1.50
    7     6    1.50
    8     7    1.70
    9     6    1.50
   10     6    1.50
   11     6    1.50
   12     8    1.70
   13     6    1.50
   14     6    1.50
   15     1    1.45
   16     1    1.45
   17     1    1.45
   18     1    1.45
   19     1    1.45
   20     1    1.45
   21     1    1.45
   22     1    1.45
   23     1    1.45
   24     1    1.45
   25     1    1.45
   26     1    1.45
   27     1    1.45
 Generate Potential Derived Charges using the Breneman model, NDens= 1.
 Grid spacing= 0.300 Box extension= 2.800
 NStep X,Y,Z=   51     42     31   Total possible points=       66402
 Number of Points to Fit=   16413

 **********************************************************************

            Electrostatic Properties Using The SCF Density.

 **********************************************************************

       Atomic Center    1 is at   3.680560 -0.347484 -0.272470
       Atomic Center    2 is at   2.834411 -0.967955  0.822090
       Atomic Center    3 is at   1.468400 -0.551808  0.748500
       Atomic Center    4 is at   0.685132 -1.181819 -0.132920
       Atomic Center    5 is at   1.068503 -2.082248 -0.836540
       Atomic Center    6 is at  -0.732169 -0.717932 -0.081810
       Atomic Center    7 is at  -1.697318 -1.691433 -0.394670
       Atomic Center    8 is at  -3.006038 -1.528636 -0.283380
       Atomic Center    9 is at  -3.428840 -0.342496  0.161720
       Atomic Center   10 is at  -2.582422  0.711055  0.469430
       Atomic Center   11 is at  -1.197472  0.548438  0.326590
       Atomic Center   12 is at  -0.443193  1.621069  0.594010
       Atomic Center   13 is at   0.644466  2.002021 -0.239870
       Atomic Center   14 is at   0.442123  3.435420 -0.684070
       Atomic Center   15 is at   4.727541 -0.663082 -0.154550
       Atomic Center   16 is at   3.649728  0.751026 -0.226890
       Atomic Center   17 is at   3.335181 -0.675914 -1.262470
       Atomic Center   18 is at   2.875223 -2.065365  0.769290
       Atomic Center   19 is at   3.168161 -0.645875  1.817240
       Atomic Center   20 is at  -1.339876 -2.667773 -0.737930
       Atomic Center   21 is at  -4.512340 -0.215408  0.260770
       Atomic Center   22 is at  -2.966404  1.678534  0.794490
       Atomic Center   23 is at   0.707377  1.329331 -1.111450
       Atomic Center   24 is at   1.573956  1.889392  0.334610
       Atomic Center   25 is at  -0.471507  3.535229 -1.287770
       Atomic Center   26 is at   1.298033  3.766842 -1.290550
       Atomic Center   27 is at   0.356682  4.100520  0.186990
   16413 points will be used for fitting atomic charges
 Fitting point charges to electrostatic potential
 Charges from ESP fit, RMS=   0.00294 RRMS=   0.20309:
 ESP charges:
               1
     1  C   -0.195153
     2  C    0.277737
     3  O   -0.464270
     4  C    0.826100
     5  O   -0.541180
     6  C   -0.584270
     7  C    0.473956
     8  N   -0.651466
     9  C    0.431660
    10  C   -0.528186
    11  C    0.698891
    12  O   -0.468880
    13  C    0.327920
    14  C   -0.312899
    15  H    0.054023
    16  H    0.036085
    17  H    0.069842
    18  H    0.009834
    19  H    0.024782
    20  H    0.020011
    21  H    0.029742
    22  H    0.175075
    23  H   -0.026229
    24  H    0.060198
    25  H    0.091832
    26  H    0.069058
    27  H    0.095784
 Sum of ESP charges =  -0.00000
 ESP charges with hydrogens summed into heavy atoms:
               1
     1  C   -0.035202
     2  C    0.312353
     3  O   -0.464270
     4  C    0.826100
     5  O   -0.541180
     6  C   -0.584270
     7  C    0.493968
     8  N   -0.651466
     9  C    0.461403
    10  C   -0.353110
    11  C    0.698891
    12  O   -0.468880
    13  C    0.361890
    14  C   -0.056224
 Charge=  -0.00000 Dipole=     2.3419     3.3574     0.8119 Tot=     4.1733
 -----------------------------------------------------------------

              Electrostatic Properties (Atomic Units)

 -----------------------------------------------------------------
    Center     Electric         -------- Electric Field --------
               Potential          X             Y             Z
 -----------------------------------------------------------------
    1 Atom    -14.763747
    2 Atom    -14.702205
    3 Atom    -22.307741
    4 Atom    -14.632738
    5 Atom    -22.376812
    6 Atom    -14.743413
    7 Atom    -14.728642
    8 Atom    -18.401259
    9 Atom    -14.728301
   10 Atom    -14.760673
   11 Atom    -14.676020
   12 Atom    -22.314592
   13 Atom    -14.699594
   14 Atom    -14.764158
   15 Atom     -1.102134
   16 Atom     -1.106735
   17 Atom     -1.110256
   18 Atom     -1.105790
   19 Atom     -1.102834
   20 Atom     -1.104822
   21 Atom     -1.100158
   22 Atom     -1.087510
   23 Atom     -1.097895
   24 Atom     -1.108565
   25 Atom     -1.108926
   26 Atom     -1.101956
   27 Atom     -1.108775
 -----------------------------------------------------------------
 Unable to Open any file for archive entry.
 1\1\GINC-NOTCH162\SP\RwB97XD\def2TZVP\C10H13N1O3\U6053008\12-Jul-2024\
 0\\#N Guess=Read Geom=Check Integral(Ultrafine) Density Pop=(ChelpG,Re
 adRadii) NMR wB97XD def2TZVP\\12326824_22\\0,1\C,0,-3.68056,-0.34749,0
 .27247\C,0,-2.83441,-0.96796,-0.82209\O,0,-1.4684,-0.55181,-0.7485\C,0
 ,-0.68513,-1.18182,0.13292\O,0,-1.0685,-2.08225,0.83654\C,0,0.73217,-0
 .71793,0.08181\C,0,1.69732,-1.69143,0.39467\N,0,3.00604,-1.52863,0.283
 38\C,0,3.42884,-0.34249,-0.16172\C,0,2.58242,0.71106,-0.46943\C,0,1.19
 747,0.54844,-0.32659\O,0,0.44319,1.62107,-0.59401\C,0,-0.64447,2.00202
 ,0.23987\C,0,-0.44213,3.43542,0.68407\H,0,-4.72754,-0.66309,0.15455\H,
 0,-3.64973,0.75102,0.22689\H,0,-3.33518,-0.67592,1.26247\H,0,-2.87522,
 -2.06537,-0.76929\H,0,-3.16816,-0.64588,-1.81724\H,0,1.33988,-2.66777,
 0.73793\H,0,4.51234,-0.2154,-0.26077\H,0,2.9664,1.67854,-0.79449\H,0,-
 0.70738,1.32933,1.11145\H,0,-1.57396,1.88939,-0.33461\H,0,0.4715,3.535
 23,1.28777\H,0,-1.29804,3.76684,1.29055\H,0,-0.35669,4.10052,-0.18699\
 \Version=ES64L-G16RevC.01\State=1-A\HF=-669.3498503\RMSD=1.125e-09\Dip
 ole=-0.9619633,1.3330074,-0.3095848\Quadrupole=4.3905396,-2.346714,-2.
 0438256,3.3132455,0.3680921,3.8023456\PG=C01 [X(C10H13N1O3)]\\@
 The archive entry for this job was punched.


      THE ONE-EYED VIEW OF OUR UNIVERSE SAYS YOU MUST NOT LOOK
      FAR AFIELD FOR PROBLEMS.  SUCH PROBLEMS MAY NEVER ARRIVE. 
      INSTEAD, TEND TO THE WOLF WITHIN YOUR FENCES.
      THE PACKS RANGING OUTSIDE MAY NOT EVEN EXIST.

                              -- THE AZHAR BOOK SHAMRA I:4
                                 CHILDREN OF DUNE, BY FRANK HERBERT
 Job cpu time:       0 days  1 hours 16 minutes 53.0 seconds.
 Elapsed time:       0 days  0 hours  5 minutes  4.4 seconds.
 File lengths (MBytes):  RWF=    165 Int=      0 D2E=      0 Chk=     25 Scr=      2
 Normal termination of Gaussian 16 at Fri Jul 12 13:34:30 2024.
