 Entering Gaussian System, Link 0=g16
 Input=12326832_3.com
 Output=12326832_3.log
 Initial command:
 /uufs/chpc.utah.edu/sys/installdir/gaussian16/C01/AVX/g16/l1.exe "/scratch/general/vast/u6053008/1287142-notchpeak.peaks/Gau-3340804.inp" -scrdir="/scratch/general/vast/u6053008/1287142-notchpeak.peaks/"
 Entering Link 1 = /uufs/chpc.utah.edu/sys/installdir/gaussian16/C01/AVX/g16/l1.exe PID=   3340810.
  
 Copyright (c) 1988-2019, Gaussian, Inc.  All Rights Reserved.
  
 This is part of the Gaussian(R) 16 program.  It is based on
 the Gaussian(R) 09 system (copyright 2009, Gaussian, Inc.),
 the Gaussian(R) 03 system (copyright 2003, Gaussian, Inc.),
 the Gaussian(R) 98 system (copyright 1998, Gaussian, Inc.),
 the Gaussian(R) 94 system (copyright 1995, Gaussian, Inc.),
 the Gaussian 92(TM) system (copyright 1992, Gaussian, Inc.),
 the Gaussian 90(TM) system (copyright 1990, Gaussian, Inc.),
 the Gaussian 88(TM) system (copyright 1988, Gaussian, Inc.),
 the Gaussian 86(TM) system (copyright 1986, Carnegie Mellon
 University), and the Gaussian 82(TM) system (copyright 1983,
 Carnegie Mellon University). Gaussian is a federally registered
 trademark of Gaussian, Inc.
  
 This software contains proprietary and confidential information,
 including trade secrets, belonging to Gaussian, Inc.
  
 This software is provided under written license and may be
 used, copied, transmitted, or stored only in accord with that
 written license.
  
 The following legend is applicable only to US Government
 contracts under FAR:
  
                    RESTRICTED RIGHTS LEGEND
  
 Use, reproduction and disclosure by the US Government is
 subject to restrictions as set forth in subparagraphs (a)
 and (c) of the Commercial Computer Software - Restricted
 Rights clause in FAR 52.227-19.
  
 Gaussian, Inc.
 340 Quinnipiac St., Bldg. 40, Wallingford CT 06492
  
  
 ---------------------------------------------------------------
 Warning -- This program may not be used in any manner that
 competes with the business of Gaussian, Inc. or will provide
 assistance to any competitor of Gaussian, Inc.  The licensee
 of this program is prohibited from giving any competitor of
 Gaussian, Inc. access to this program.  By using this program,
 the user acknowledges that Gaussian, Inc. is engaged in the
 business of creating and licensing software in the field of
 computational chemistry and represents and warrants to the
 licensee that it is not a competitor of Gaussian, Inc. and that
 it will not use this program in any manner prohibited above.
 ---------------------------------------------------------------
  

 Cite this work as:
 Gaussian 16, Revision C.01,
 M. J. Frisch, G. W. Trucks, H. B. Schlegel, G. E. Scuseria, 
 M. A. Robb, J. R. Cheeseman, G. Scalmani, V. Barone, 
 G. A. Petersson, H. Nakatsuji, X. Li, M. Caricato, A. V. Marenich, 
 J. Bloino, B. G. Janesko, R. Gomperts, B. Mennucci, H. P. Hratchian, 
 J. V. Ortiz, A. F. Izmaylov, J. L. Sonnenberg, D. Williams-Young, 
 F. Ding, F. Lipparini, F. Egidi, J. Goings, B. Peng, A. Petrone, 
 T. Henderson, D. Ranasinghe, V. G. Zakrzewski, J. Gao, N. Rega, 
 G. Zheng, W. Liang, M. Hada, M. Ehara, K. Toyota, R. Fukuda, 
 J. Hasegawa, M. Ishida, T. Nakajima, Y. Honda, O. Kitao, H. Nakai, 
 T. Vreven, K. Throssell, J. A. Montgomery, Jr., J. E. Peralta, 
 F. Ogliaro, M. J. Bearpark, J. J. Heyd, E. N. Brothers, K. N. Kudin, 
 V. N. Staroverov, T. A. Keith, R. Kobayashi, J. Normand, 
 K. Raghavachari, A. P. Rendell, J. C. Burant, S. S. Iyengar, 
 J. Tomasi, M. Cossi, J. M. Millam, M. Klene, C. Adamo, R. Cammi, 
 J. W. Ochterski, R. L. Martin, K. Morokuma, O. Farkas, 
 J. B. Foresman, and D. J. Fox, Gaussian, Inc., Wallingford CT, 2019.
 
 ******************************************
 Gaussian 16:  ES64L-G16RevC.01  3-Jul-2019
                12-Jul-2024 
 ******************************************
 %NProcShared=16
 Will use up to   16 processors via shared memory.
 %Mem=32GB
 %chk=12326832_3.chk
 ------------------------------------------------------
 #N OPT FREQ=NORAMAN Integral(Ultrafine) wB97XD def2SVP
 ------------------------------------------------------
 1/18=20,19=15,26=4,38=1/1,3;
 2/9=110,12=2,17=6,18=5,40=1/2;
 3/5=43,7=101,11=2,25=1,30=1,71=1,74=-58,75=-5/1,2,3;
 4//1;
 5/5=2,38=5/2;
 6/7=2,8=2,9=2,10=2,28=1/1;
 7//1,2,3,16;
 1/18=20,19=15,26=4/3(2);
 2/9=110/2;
 99//99;
 2/9=110/2;
 3/5=43,7=101,11=2,25=1,30=1,71=1,74=-58,75=-5/1,2,3;
 4/5=5,16=3,69=1/1;
 5/5=2,38=5/2;
 7//1,2,3,16;
 1/18=20,19=15,26=4/3(-5);
 2/9=110/2;
 6/7=2,8=2,9=2,10=2,19=2,28=1/1;
 99/9=1/99;
 ----------
 12326832_3
 ----------
 Symbolic Z-matrix:
 Charge =  0 Multiplicity = 1
 C                     3.78972   0.08134   0.83473 
 C                     3.12465   0.03976  -0.52713 
 O                     1.70167   0.05443  -0.41861 
 C                     1.09459  -1.10265  -0.17652 
 O                     1.6806   -2.15482  -0.07752 
 C                    -0.39311  -1.00234  -0.06248 
 C                    -1.08981  -2.20742   0.00356 
 C                    -2.47853  -2.2203    0.10275 
 C                    -3.12653  -0.99232   0.13768 
 N                    -2.48755   0.1743    0.08982 
 C                    -1.16505   0.18891  -0.00405 
 O                    -0.55056   1.36509  -0.03126 
 C                    -1.33422   2.55002   0.03126 
 C                    -0.38232   3.72306  -0.02393 
 H                     4.88091   0.15406   0.71619 
 H                     3.44403   0.95295   1.40932 
 H                     3.56613  -0.83225   1.40269 
 H                     3.43631  -0.85279  -1.08897 
 H                     3.36639   0.93537  -1.11485 
 H                    -0.50798  -3.13071  -0.0273 
 H                    -3.03947  -3.1539    0.15021 
 H                    -4.21838  -0.93997   0.21019 
 H                    -2.04956   2.56245  -0.80634 
 H                    -1.93067   2.54881   0.95747 
 H                     0.31943   3.69587   0.82202 
 H                    -0.94532   4.66638   0.02025 
 H                     0.20091   3.70764  -0.95572 
 

 GradGradGradGradGradGradGradGradGradGradGradGradGradGradGradGradGradGrad
 Berny optimization.
 Initialization pass.
                           ----------------------------
                           !    Initial Parameters    !
                           ! (Angstroms and Degrees)  !
 --------------------------                            --------------------------
 ! Name  Definition              Value          Derivative Info.                !
 --------------------------------------------------------------------------------
 ! R1    R(1,2)                  1.5161         estimate D2E/DX2                !
 ! R2    R(1,15)                 1.1            estimate D2E/DX2                !
 ! R3    R(1,16)                 1.0997         estimate D2E/DX2                !
 ! R4    R(1,17)                 1.0987         estimate D2E/DX2                !
 ! R5    R(2,3)                  1.4272         estimate D2E/DX2                !
 ! R6    R(2,18)                 1.0997         estimate D2E/DX2                !
 ! R7    R(2,19)                 1.0982         estimate D2E/DX2                !
 ! R8    R(3,4)                  1.3289         estimate D2E/DX2                !
 ! R9    R(4,5)                  1.2084         estimate D2E/DX2                !
 ! R10   R(4,6)                  1.4954         estimate D2E/DX2                !
 ! R11   R(6,7)                  1.3935         estimate D2E/DX2                !
 ! R12   R(6,11)                 1.4207         estimate D2E/DX2                !
 ! R13   R(7,8)                  1.3923         estimate D2E/DX2                !
 ! R14   R(7,20)                 1.0918         estimate D2E/DX2                !
 ! R15   R(8,9)                  1.3889         estimate D2E/DX2                !
 ! R16   R(8,21)                 1.0902         estimate D2E/DX2                !
 ! R17   R(9,10)                 1.331          estimate D2E/DX2                !
 ! R18   R(9,22)                 1.0955         estimate D2E/DX2                !
 ! R19   R(10,11)                1.3259         estimate D2E/DX2                !
 ! R20   R(11,12)                1.3273         estimate D2E/DX2                !
 ! R21   R(12,13)                1.422          estimate D2E/DX2                !
 ! R22   R(13,14)                1.5117         estimate D2E/DX2                !
 ! R23   R(13,23)                1.1016         estimate D2E/DX2                !
 ! R24   R(13,24)                1.1016         estimate D2E/DX2                !
 ! R25   R(14,25)                1.0995         estimate D2E/DX2                !
 ! R26   R(14,26)                1.0994         estimate D2E/DX2                !
 ! R27   R(14,27)                1.0994         estimate D2E/DX2                !
 ! A1    A(2,1,15)             109.8863         estimate D2E/DX2                !
 ! A2    A(2,1,16)             110.6812         estimate D2E/DX2                !
 ! A3    A(2,1,17)             110.6249         estimate D2E/DX2                !
 ! A4    A(15,1,16)            108.4051         estimate D2E/DX2                !
 ! A5    A(15,1,17)            108.2122         estimate D2E/DX2                !
 ! A6    A(16,1,17)            108.9638         estimate D2E/DX2                !
 ! A7    A(1,2,3)              111.6405         estimate D2E/DX2                !
 ! A8    A(1,2,18)             110.9061         estimate D2E/DX2                !
 ! A9    A(1,2,19)             111.2103         estimate D2E/DX2                !
 ! A10   A(3,2,18)             109.2533         estimate D2E/DX2                !
 ! A11   A(3,2,19)             104.5836         estimate D2E/DX2                !
 ! A12   A(18,2,19)            109.0322         estimate D2E/DX2                !
 ! A13   A(2,3,4)              117.4118         estimate D2E/DX2                !
 ! A14   A(3,4,5)              123.4708         estimate D2E/DX2                !
 ! A15   A(3,4,6)              114.2019         estimate D2E/DX2                !
 ! A16   A(5,4,6)              122.3161         estimate D2E/DX2                !
 ! A17   A(4,6,7)              116.2936         estimate D2E/DX2                !
 ! A18   A(4,6,11)             126.8644         estimate D2E/DX2                !
 ! A19   A(7,6,11)             116.8399         estimate D2E/DX2                !
 ! A20   A(6,7,8)              120.6659         estimate D2E/DX2                !
 ! A21   A(6,7,20)             117.6158         estimate D2E/DX2                !
 ! A22   A(8,7,20)             121.7182         estimate D2E/DX2                !
 ! A23   A(7,8,9)              117.3201         estimate D2E/DX2                !
 ! A24   A(7,8,21)             121.6163         estimate D2E/DX2                !
 ! A25   A(9,8,21)             121.0636         estimate D2E/DX2                !
 ! A26   A(8,9,10)             123.3707         estimate D2E/DX2                !
 ! A27   A(8,9,22)             120.5913         estimate D2E/DX2                !
 ! A28   A(10,9,22)            116.0379         estimate D2E/DX2                !
 ! A29   A(9,10,11)            119.409          estimate D2E/DX2                !
 ! A30   A(6,11,10)            122.3866         estimate D2E/DX2                !
 ! A31   A(6,11,12)            119.3822         estimate D2E/DX2                !
 ! A32   A(10,11,12)           118.2283         estimate D2E/DX2                !
 ! A33   A(11,12,13)           118.8403         estimate D2E/DX2                !
 ! A34   A(12,13,14)           107.3366         estimate D2E/DX2                !
 ! A35   A(12,13,23)           109.5024         estimate D2E/DX2                !
 ! A36   A(12,13,24)           109.5374         estimate D2E/DX2                !
 ! A37   A(14,13,23)           111.8637         estimate D2E/DX2                !
 ! A38   A(14,13,24)           111.8684         estimate D2E/DX2                !
 ! A39   A(23,13,24)           106.7209         estimate D2E/DX2                !
 ! A40   A(13,14,25)           110.7709         estimate D2E/DX2                !
 ! A41   A(13,14,26)           109.991          estimate D2E/DX2                !
 ! A42   A(13,14,27)           110.7395         estimate D2E/DX2                !
 ! A43   A(25,14,26)           108.4901         estimate D2E/DX2                !
 ! A44   A(25,14,27)           108.2509         estimate D2E/DX2                !
 ! A45   A(26,14,27)           108.5272         estimate D2E/DX2                !
 ! D1    D(15,1,2,3)          -175.2795         estimate D2E/DX2                !
 ! D2    D(15,1,2,18)           62.6271         estimate D2E/DX2                !
 ! D3    D(15,1,2,19)          -58.8856         estimate D2E/DX2                !
 ! D4    D(16,1,2,3)           -55.5814         estimate D2E/DX2                !
 ! D5    D(16,1,2,18)         -177.6749         estimate D2E/DX2                !
 ! D6    D(16,1,2,19)           60.8125         estimate D2E/DX2                !
 ! D7    D(17,1,2,3)            65.2971         estimate D2E/DX2                !
 ! D8    D(17,1,2,18)          -56.7964         estimate D2E/DX2                !
 ! D9    D(17,1,2,19)         -178.3091         estimate D2E/DX2                !
 ! D10   D(1,2,3,4)            -82.399          estimate D2E/DX2                !
 ! D11   D(18,2,3,4)            40.6404         estimate D2E/DX2                !
 ! D12   D(19,2,3,4)           157.2425         estimate D2E/DX2                !
 ! D13   D(2,3,4,5)             -1.8096         estimate D2E/DX2                !
 ! D14   D(2,3,4,6)            179.3852         estimate D2E/DX2                !
 ! D15   D(3,4,6,7)            171.3208         estimate D2E/DX2                !
 ! D16   D(3,4,6,11)            -9.2196         estimate D2E/DX2                !
 ! D17   D(5,4,6,7)             -7.4999         estimate D2E/DX2                !
 ! D18   D(5,4,6,11)           171.9598         estimate D2E/DX2                !
 ! D19   D(4,6,7,8)           -179.6023         estimate D2E/DX2                !
 ! D20   D(4,6,7,20)             0.2846         estimate D2E/DX2                !
 ! D21   D(11,6,7,8)             0.8822         estimate D2E/DX2                !
 ! D22   D(11,6,7,20)         -179.2309         estimate D2E/DX2                !
 ! D23   D(4,6,11,10)          179.6135         estimate D2E/DX2                !
 ! D24   D(4,6,11,12)           -1.0219         estimate D2E/DX2                !
 ! D25   D(7,6,11,10)           -0.9294         estimate D2E/DX2                !
 ! D26   D(7,6,11,12)          178.4351         estimate D2E/DX2                !
 ! D27   D(6,7,8,9)             -0.2503         estimate D2E/DX2                !
 ! D28   D(6,7,8,21)           179.6791         estimate D2E/DX2                !
 ! D29   D(20,7,8,9)           179.8675         estimate D2E/DX2                !
 ! D30   D(20,7,8,21)           -0.2031         estimate D2E/DX2                !
 ! D31   D(7,8,9,10)            -0.4349         estimate D2E/DX2                !
 ! D32   D(7,8,9,22)           179.703          estimate D2E/DX2                !
 ! D33   D(21,8,9,10)          179.6353         estimate D2E/DX2                !
 ! D34   D(21,8,9,22)           -0.2268         estimate D2E/DX2                !
 ! D35   D(8,9,10,11)            0.4137         estimate D2E/DX2                !
 ! D36   D(22,9,10,11)        -179.7184         estimate D2E/DX2                !
 ! D37   D(9,10,11,6)            0.2968         estimate D2E/DX2                !
 ! D38   D(9,10,11,12)        -179.0747         estimate D2E/DX2                !
 ! D39   D(6,11,12,13)        -179.8428         estimate D2E/DX2                !
 ! D40   D(10,11,12,13)         -0.4518         estimate D2E/DX2                !
 ! D41   D(11,12,13,14)       -179.7498         estimate D2E/DX2                !
 ! D42   D(11,12,13,23)        -58.1202         estimate D2E/DX2                !
 ! D43   D(11,12,13,24)         58.5944         estimate D2E/DX2                !
 ! D44   D(12,13,14,25)        -60.153          estimate D2E/DX2                !
 ! D45   D(12,13,14,26)        179.9188         estimate D2E/DX2                !
 ! D46   D(12,13,14,27)         59.9645         estimate D2E/DX2                !
 ! D47   D(23,13,14,25)        179.708          estimate D2E/DX2                !
 ! D48   D(23,13,14,26)         59.7798         estimate D2E/DX2                !
 ! D49   D(23,13,14,27)        -60.1746         estimate D2E/DX2                !
 ! D50   D(24,13,14,25)         60.032          estimate D2E/DX2                !
 ! D51   D(24,13,14,26)        -59.8962         estimate D2E/DX2                !
 ! D52   D(24,13,14,27)       -179.8505         estimate D2E/DX2                !
 --------------------------------------------------------------------------------
 Trust Radius=3.00D-01 FncErr=1.00D-07 GrdErr=1.00D-06 EigMax=2.50D+02 EigMin=1.00D-04
 Number of steps in this run=    134 maximum allowed number of steps=    162.
 GradGradGradGradGradGradGradGradGradGradGradGradGradGradGradGradGradGrad

                          Input orientation:                          
 ---------------------------------------------------------------------
 Center     Atomic      Atomic             Coordinates (Angstroms)
 Number     Number       Type             X           Y           Z
 ---------------------------------------------------------------------
      1          6           0        3.789720    0.081340    0.834730
      2          6           0        3.124650    0.039760   -0.527130
      3          8           0        1.701670    0.054430   -0.418610
      4          6           0        1.094590   -1.102650   -0.176520
      5          8           0        1.680600   -2.154820   -0.077520
      6          6           0       -0.393110   -1.002340   -0.062480
      7          6           0       -1.089810   -2.207420    0.003560
      8          6           0       -2.478530   -2.220300    0.102750
      9          6           0       -3.126530   -0.992320    0.137680
     10          7           0       -2.487550    0.174300    0.089820
     11          6           0       -1.165050    0.188910   -0.004050
     12          8           0       -0.550560    1.365090   -0.031260
     13          6           0       -1.334220    2.550020    0.031260
     14          6           0       -0.382320    3.723060   -0.023930
     15          1           0        4.880910    0.154060    0.716190
     16          1           0        3.444030    0.952950    1.409320
     17          1           0        3.566130   -0.832250    1.402690
     18          1           0        3.436310   -0.852790   -1.088970
     19          1           0        3.366390    0.935370   -1.114850
     20          1           0       -0.507980   -3.130710   -0.027300
     21          1           0       -3.039470   -3.153900    0.150210
     22          1           0       -4.218380   -0.939970    0.210190
     23          1           0       -2.049560    2.562450   -0.806340
     24          1           0       -1.930670    2.548810    0.957470
     25          1           0        0.319430    3.695870    0.822020
     26          1           0       -0.945320    4.666380    0.020250
     27          1           0        0.200910    3.707640   -0.955720
 ---------------------------------------------------------------------
                    Distance matrix (angstroms):
                    1          2          3          4          5
     1  C    0.000000
     2  C    1.516150   0.000000
     3  O    2.435475   1.427187   0.000000
     4  C    3.112585   2.355668   1.328905   0.000000
     5  O    3.206400   2.665260   2.235525   1.208416   0.000000
     6  C    4.413096   3.698176   2.373119   1.495433   2.372490
     7  C    5.453355   4.805530   3.617534   2.454496   2.772095
     8  C    6.717462   6.074557   4.787513   3.754240   4.163550
     9  C    7.033714   6.370590   4.971585   4.234235   4.950375
    10  N    6.321997   5.647612   4.221662   3.812252   4.777685
    11  C    5.026417   4.324047   2.899660   2.608418   3.687301
    12  O    4.608252   3.938217   2.634466   2.969404   4.167731
    13  C    5.744102   5.147303   3.955626   4.391388   5.588962
    14  C    5.604047   5.110650   4.237645   5.048963   6.229605
    15  H    1.100016   2.154845   3.377168   4.088089   4.025281
    16  H    1.099709   2.164661   2.680389   3.501464   3.870221
    17  H    1.098735   2.163218   2.753098   2.945425   2.737779
    18  H    2.167515   1.099746   2.069156   2.525598   2.408491
    19  H    2.170124   1.098167   2.008008   3.192971   3.669771
    20  H    5.434205   4.847444   3.896254   2.589117   2.396824
    21  H    7.587699   6.975287   5.752855   4.626536   4.830019
    22  H    8.097085   7.444703   6.035827   5.329508   6.029644
    23  H    6.553336   5.763191   4.529042   4.869837   6.057880
    24  H    6.231078   5.835720   4.616213   4.875581   6.019685
    25  H    5.010779   4.801729   4.087767   4.962232   6.073922
    26  H    6.641278   6.186267   5.335657   6.122227   7.309842
    27  H    5.406970   4.710126   3.985814   4.954261   6.109759
                    6          7          8          9         10
     6  C    0.000000
     7  C    1.393546   0.000000
     8  C    2.420683   1.392317   0.000000
     9  C    2.740757   2.375434   1.388906   0.000000
    10  N    2.407147   2.762917   2.394652   1.331010   0.000000
    11  C    1.420698   2.397523   2.746075   2.294078   1.325908
    12  O    2.372865   3.613147   4.073088   3.495933   2.276965
    13  C    3.676103   4.763795   4.906171   3.971382   2.641523
    14  C    4.725570   5.972595   6.303465   5.458170   4.127788
    15  H    5.455170   6.460180   7.757271   8.109745   7.395063
    16  H    4.551153   5.702614   6.844951   6.969462   6.126256
    17  H    4.225072   5.052369   6.336753   6.813044   6.275652
    18  H    3.967430   4.849166   6.186729   6.677949   6.126710
    19  H    4.358445   5.566479   6.753065   6.887876   6.024871
    20  H    2.131758   1.091761   2.174587   3.384780   3.854284
    21  H    3.417260   2.172212   1.090190   2.163369   3.374193
    22  H    3.835483   3.381875   2.162838   1.095507   2.062004
    23  H    4.000610   4.932415   4.887244   3.832418   2.588088
    24  H    4.001881   4.923283   4.875972   3.826452   2.588673
    25  H    4.833553   6.124105   6.583844   5.858506   4.562533
    26  H    5.696154   6.875339   7.055771   6.065670   4.749957
    27  H    4.830595   6.129773   6.590920   5.861485   4.561301
                   11         12         13         14         15
    11  C    0.000000
    12  O    1.327305   0.000000
    13  C    2.367426   1.422002   0.000000
    14  C    3.619845   2.363976   1.511682   0.000000
    15  H    6.088809   5.614814   6.696088   6.402119   0.000000
    16  H    4.881085   4.266366   5.223156   4.936463   1.784174
    17  H    5.040412   4.881767   6.110156   6.194865   1.781218
    18  H    4.840940   4.683255   5.965902   6.054308   2.521749
    19  H    4.724937   4.086725   5.100627   4.797306   2.501384
    20  H    3.384104   4.496003   5.740801   6.854923   6.354733
    21  H    3.835574   5.162255   5.954555   7.374507   8.602055
    22  H    3.262375   4.338721   4.531051   6.042683   9.178781
    23  H    2.657013   2.069159   1.101562   2.176895   7.493321
    24  H    2.660794   2.069658   1.101644   2.177016   7.224311
    25  H    3.896773   2.630115   2.161673   1.099465   5.776047
    26  H    4.482924   3.325207   2.151823   1.099442   7.402048
    27  H    3.892683   2.628093   2.161212   1.099376   6.109469
                   16         17         18         19         20
    16  H    0.000000
    17  H    1.789383   0.000000
    18  H    3.082565   2.495124   0.000000
    19  H    2.525425   3.082594   1.789714   0.000000
    20  H    5.861616   4.891438   4.676910   5.720709   0.000000
    21  H    7.777361   7.112856   6.983294   7.704385   2.537812
    22  H    7.983332   7.876056   7.764644   7.924731   4.315416
    23  H    6.138336   6.923856   6.468270   5.663487   5.949407
    24  H    5.624797   6.468740   6.675573   5.912406   5.937236
    25  H    4.199007   5.601974   5.835849   4.544864   6.928791
    26  H    5.914852   7.245637   7.133743   5.813754   7.809490
    27  H    4.868219   6.123512   5.593129   4.210827   6.937400
                   21         22         23         24         25
    21  H    0.000000
    22  H    2.508966   0.000000
    23  H    5.879759   4.243119   0.000000
    24  H    5.865322   4.238352   1.767865   0.000000
    25  H    7.658517   6.515909   3.090034   2.529238   0.000000
    26  H    8.096859   6.494625   2.515774   2.516624   1.784466
    27  H    7.668368   6.518416   2.529504   3.089792   1.781725
                   26         27
    26  H    0.000000
    27  H    1.784809   0.000000
 Stoichiometry    C10H13NO3
 Framework group  C1[X(C10H13NO3)]
 Deg. of freedom    75
 Full point group                 C1      NOp   1
 Largest Abelian subgroup         C1      NOp   1
 Largest concise Abelian subgroup C1      NOp   1
                         Standard orientation:                         
 ---------------------------------------------------------------------
 Center     Atomic      Atomic             Coordinates (Angstroms)
 Number     Number       Type             X           Y           Z
 ---------------------------------------------------------------------
      1          6           0        3.789721    0.081336    0.834730
      2          6           0        3.124651    0.039756   -0.527130
      3          8           0        1.701671    0.054428   -0.418610
      4          6           0        1.094590   -1.102651   -0.176520
      5          8           0        1.680598   -2.154822   -0.077520
      6          6           0       -0.393110   -1.002339   -0.062480
      7          6           0       -1.089812   -2.207418    0.003560
      8          6           0       -2.478532   -2.220297    0.102750
      9          6           0       -3.126530   -0.992316    0.137680
     10          7           0       -2.487549    0.174303    0.089820
     11          6           0       -1.165049    0.188912   -0.004050
     12          8           0       -0.550557    1.365091   -0.031260
     13          6           0       -1.334216    2.550022    0.031260
     14          6           0       -0.382314    3.723061   -0.023930
     15          1           0        4.880911    0.154054    0.716190
     16          1           0        3.444032    0.952946    1.409320
     17          1           0        3.566130   -0.832254    1.402690
     18          1           0        3.436310   -0.852794   -1.088970
     19          1           0        3.366392    0.935366   -1.114850
     20          1           0       -0.507983   -3.130709   -0.027300
     21          1           0       -3.039473   -3.153896    0.150210
     22          1           0       -4.218380   -0.939965    0.210190
     23          1           0       -2.049556    2.562453   -0.806340
     24          1           0       -1.930666    2.548813    0.957470
     25          1           0        0.319435    3.695870    0.822020
     26          1           0       -0.945313    4.666381    0.020250
     27          1           0        0.200915    3.707640   -0.955720
 ---------------------------------------------------------------------
 Rotational constants (GHZ):           0.8185834           0.5825054           0.3525187
 Standard basis: def2SVP (5D, 7F)
 There are   275 symmetry adapted cartesian basis functions of A   symmetry.
 There are   261 symmetry adapted basis functions of A   symmetry.
   261 basis functions,   441 primitive gaussians,   275 cartesian basis functions
    52 alpha electrons       52 beta electrons
       nuclear repulsion energy       904.0220183834 Hartrees.
 NAtoms=   27 NActive=   27 NUniq=   27 SFac= 1.00D+00 NAtFMM=   60 NAOKFM=F Big=F
 Integral buffers will be    131072 words long.
 Raffenetti 2 integral format.
 Two-electron integral symmetry is turned on.
 Nuclear repulsion after empirical dispersion term =      904.0076905107 Hartrees.
 One-electron integrals computed using PRISM.
   1 Symmetry operations used in ECPInt.
 ECPInt:  NShTT=    7626 NPrTT=   27482 LenC2=    7256 LenP2D=   18802.
 LDataN:  DoStor=T MaxTD1= 4 Len=   56
 NBasis=   261 RedAO= T EigKep=  6.18D-04  NBF=   261
 NBsUse=   261 1.00D-06 EigRej= -1.00D+00 NBFU=   261
 ExpMin= 1.22D-01 ExpMax= 2.27D+03 ExpMxC= 3.41D+02 IAcc=3 IRadAn=         5 AccDes= 0.00D+00
 Harris functional with IExCor= 4639 and IRadAn=       5 diagonalized for initial guess.
 HarFok:  IExCor= 4639 AccDes= 0.00D+00 IRadAn=         5 IDoV= 1 UseB2=F ITyADJ=14
 ICtDFT=  3500011 ScaDFX=  1.000000  1.000000  1.000000  1.000000
 FoFCou: FMM=F IPFlag=           0 FMFlag=      100000 FMFlg1=           0
         NFxFlg=           0 DoJE=T BraDBF=F KetDBF=T FulRan=T
         wScrn=  0.000000 ICntrl=       500 IOpCl=  0 I1Cent=   200000004 NGrid=           0
         NMat0=    1 NMatS0=      1 NMatT0=    0 NMatD0=    1 NMtDS0=    0 NMtDT0=    0
 Petite list used in FoFCou.
 Requested convergence on RMS density matrix=1.00D-08 within 128 cycles.
 Requested convergence on MAX density matrix=1.00D-06.
 Requested convergence on             energy=1.00D-06.
 No special actions if energy rises.
 Integral accuracy reduced to 1.0D-05 until final iterations.
 Initial convergence to 1.0D-05 achieved.  Increase integral accuracy.
 SCF Done:  E(RwB97XD) =  -668.630847846     A.U. after   16 cycles
            NFock= 16  Conv=0.48D-08     -V/T= 2.0098

 **********************************************************************

            Population analysis using the SCF Density.

 **********************************************************************

 Orbital symmetries:
       Occupied  (A) (A) (A) (A) (A) (A) (A) (A) (A) (A) (A) (A)
                 (A) (A) (A) (A) (A) (A) (A) (A) (A) (A) (A) (A)
                 (A) (A) (A) (A) (A) (A) (A) (A) (A) (A) (A) (A)
                 (A) (A) (A) (A) (A) (A) (A) (A) (A) (A) (A) (A)
                 (A) (A) (A) (A)
       Virtual   (A) (A) (A) (A) (A) (A) (A) (A) (A) (A) (A) (A)
                 (A) (A) (A) (A) (A) (A) (A) (A) (A) (A) (A) (A)
                 (A) (A) (A) (A) (A) (A) (A) (A) (A) (A) (A) (A)
                 (A) (A) (A) (A) (A) (A) (A) (A) (A) (A) (A) (A)
                 (A) (A) (A) (A) (A) (A) (A) (A) (A) (A) (A) (A)
                 (A) (A) (A) (A) (A) (A) (A) (A) (A) (A) (A) (A)
                 (A) (A) (A) (A) (A) (A) (A) (A) (A) (A) (A) (A)
                 (A) (A) (A) (A) (A) (A) (A) (A) (A) (A) (A) (A)
                 (A) (A) (A) (A) (A) (A) (A) (A) (A) (A) (A) (A)
                 (A) (A) (A) (A) (A) (A) (A) (A) (A) (A) (A) (A)
                 (A) (A) (A) (A) (A) (A) (A) (A) (A) (A) (A) (A)
                 (A) (A) (A) (A) (A) (A) (A) (A) (A) (A) (A) (A)
                 (A) (A) (A) (A) (A) (A) (A) (A) (A) (A) (A) (A)
                 (A) (A) (A) (A) (A) (A) (A) (A) (A) (A) (A) (A)
                 (A) (A) (A) (A) (A) (A) (A) (A) (A) (A) (A) (A)
                 (A) (A) (A) (A) (A) (A) (A) (A) (A) (A) (A) (A)
                 (A) (A) (A) (A) (A) (A) (A) (A) (A) (A) (A) (A)
                 (A) (A) (A) (A) (A)
 The electronic state is 1-A.
 Alpha  occ. eigenvalues --  -19.29637 -19.29227 -19.23740 -14.44278 -10.42841
 Alpha  occ. eigenvalues --  -10.40510 -10.35298 -10.35067 -10.34807 -10.32651
 Alpha  occ. eigenvalues --  -10.31967 -10.30797 -10.29480 -10.29392  -1.20244
 Alpha  occ. eigenvalues --   -1.18196  -1.10485  -1.04194  -0.91477  -0.88629
 Alpha  occ. eigenvalues --   -0.86425  -0.83773  -0.77021  -0.74645  -0.72961
 Alpha  occ. eigenvalues --   -0.68841  -0.65718  -0.63830  -0.62212  -0.59402
 Alpha  occ. eigenvalues --   -0.58345  -0.56783  -0.56615  -0.54816  -0.53037
 Alpha  occ. eigenvalues --   -0.51574  -0.50776  -0.49060  -0.48642  -0.47542
 Alpha  occ. eigenvalues --   -0.47156  -0.46932  -0.45809  -0.45382  -0.43139
 Alpha  occ. eigenvalues --   -0.41192  -0.41037  -0.38358  -0.37317  -0.36905
 Alpha  occ. eigenvalues --   -0.34748  -0.31676
 Alpha virt. eigenvalues --    0.01409   0.05830   0.12608   0.14254   0.15590
 Alpha virt. eigenvalues --    0.15958   0.18536   0.18825   0.19659   0.20294
 Alpha virt. eigenvalues --    0.20743   0.21004   0.21550   0.22612   0.23128
 Alpha virt. eigenvalues --    0.23540   0.24595   0.25026   0.25804   0.29067
 Alpha virt. eigenvalues --    0.29852   0.30795   0.32496   0.33720   0.35590
 Alpha virt. eigenvalues --    0.36701   0.37791   0.40084   0.45037   0.47492
 Alpha virt. eigenvalues --    0.47824   0.49382   0.50342   0.50974   0.51140
 Alpha virt. eigenvalues --    0.51569   0.52243   0.53292   0.53471   0.55233
 Alpha virt. eigenvalues --    0.56805   0.58501   0.58938   0.60332   0.60603
 Alpha virt. eigenvalues --    0.62740   0.65116   0.66214   0.67848   0.69216
 Alpha virt. eigenvalues --    0.70085   0.70788   0.70878   0.71909   0.72255
 Alpha virt. eigenvalues --    0.72980   0.73318   0.74122   0.74812   0.75119
 Alpha virt. eigenvalues --    0.75408   0.76086   0.76710   0.77104   0.77559
 Alpha virt. eigenvalues --    0.78784   0.79001   0.80139   0.80282   0.81305
 Alpha virt. eigenvalues --    0.82046   0.82778   0.83709   0.87195   0.88799
 Alpha virt. eigenvalues --    0.90412   0.96607   0.97954   0.99597   1.00790
 Alpha virt. eigenvalues --    1.00982   1.05006   1.08849   1.11545   1.12958
 Alpha virt. eigenvalues --    1.14124   1.16187   1.18547   1.19758   1.23022
 Alpha virt. eigenvalues --    1.24351   1.27101   1.29796   1.31893   1.33106
 Alpha virt. eigenvalues --    1.34412   1.35998   1.36469   1.37432   1.41021
 Alpha virt. eigenvalues --    1.42623   1.43478   1.44239   1.45135   1.50588
 Alpha virt. eigenvalues --    1.53587   1.55670   1.56605   1.61196   1.61502
 Alpha virt. eigenvalues --    1.62695   1.64231   1.68118   1.69645   1.74810
 Alpha virt. eigenvalues --    1.75976   1.77372   1.78547   1.79500   1.80767
 Alpha virt. eigenvalues --    1.81872   1.82970   1.83713   1.84654   1.85259
 Alpha virt. eigenvalues --    1.85529   1.85882   1.87235   1.87490   1.88622
 Alpha virt. eigenvalues --    1.88923   1.90067   1.90261   1.92225   1.92831
 Alpha virt. eigenvalues --    1.95742   1.96750   1.97217   1.98575   1.99744
 Alpha virt. eigenvalues --    2.02213   2.03313   2.04173   2.04946   2.06979
 Alpha virt. eigenvalues --    2.10083   2.11872   2.13322   2.16323   2.18631
 Alpha virt. eigenvalues --    2.19424   2.22663   2.24927   2.25297   2.27689
 Alpha virt. eigenvalues --    2.28902   2.29651   2.33576   2.36276   2.41457
 Alpha virt. eigenvalues --    2.44259   2.46448   2.47406   2.48412   2.48869
 Alpha virt. eigenvalues --    2.50330   2.50790   2.55738   2.55959   2.58492
 Alpha virt. eigenvalues --    2.62291   2.62697   2.63961   2.64372   2.73013
 Alpha virt. eigenvalues --    2.74633   2.76949   2.78473   2.79671   2.80981
 Alpha virt. eigenvalues --    2.83323   2.85788   2.85922   2.88447   2.91076
 Alpha virt. eigenvalues --    2.93899   2.97427   3.00154   3.00676   3.01872
 Alpha virt. eigenvalues --    3.03558   3.04768   3.06074   3.07467   3.09969
 Alpha virt. eigenvalues --    3.12096   3.13818   3.17917   3.19105   3.22759
 Alpha virt. eigenvalues --    3.30048   3.31606   3.34648   3.51301   3.57544
 Alpha virt. eigenvalues --    3.61934   3.70208   3.79044   3.84676
          Condensed to atoms (all electrons):
               1          2          3          4          5          6
     1  C    4.607792   0.445565  -0.036466  -0.008637  -0.008746  -0.001648
     2  C    0.445565   4.455564   0.252102  -0.032436   0.002430   0.010578
     3  O   -0.036466   0.252102   7.929665   0.431805  -0.083895  -0.141317
     4  C   -0.008637  -0.032436   0.431805   4.576635   0.730321   0.091581
     5  O   -0.008746   0.002430  -0.083895   0.730321   7.700549  -0.144935
     6  C   -0.001648   0.010578  -0.141317   0.091581  -0.144935   5.878406
     7  C    0.000025  -0.000388   0.002969  -0.046238   0.012352   0.467612
     8  C    0.000001   0.000000   0.000033   0.017827   0.001616  -0.002929
     9  C   -0.000000   0.000001  -0.000009  -0.000368  -0.000033  -0.074244
    10  N   -0.000001   0.000005   0.000047   0.005501  -0.000007  -0.082198
    11  C   -0.000050  -0.000336   0.009317  -0.039215   0.001873   0.300532
    12  O   -0.000146   0.000468  -0.009175   0.009732  -0.000002  -0.109928
    13  C    0.000003  -0.000010  -0.000287  -0.000455   0.000000   0.006438
    14  C   -0.000004  -0.000018   0.000148  -0.000222   0.000000   0.000495
    15  H    0.382671  -0.016586   0.003609   0.000310  -0.000059   0.000030
    16  H    0.387295  -0.020624   0.001219   0.000136   0.000235  -0.000305
    17  H    0.394030  -0.015720  -0.005709   0.004037   0.008812   0.000476
    18  H   -0.030006   0.390567  -0.026814  -0.008000   0.018007   0.000976
    19  H   -0.025677   0.389119  -0.024660   0.005005   0.000410   0.000179
    20  H    0.000011  -0.000072   0.000694  -0.018942   0.018231  -0.048890
    21  H   -0.000000  -0.000000   0.000000  -0.000234  -0.000017   0.011100
    22  H   -0.000000   0.000000  -0.000000   0.000083  -0.000000   0.001597
    23  H   -0.000000   0.000002  -0.000028   0.000051   0.000000   0.000267
    24  H   -0.000000   0.000001  -0.000023  -0.000017  -0.000000   0.000270
    25  H   -0.000018   0.000013   0.000087   0.000067   0.000000  -0.000202
    26  H   -0.000000   0.000001   0.000001   0.000004   0.000000   0.000003
    27  H   -0.000002   0.000010   0.000168   0.000051   0.000000  -0.000182
               7          8          9         10         11         12
     1  C    0.000025   0.000001  -0.000000  -0.000001  -0.000050  -0.000146
     2  C   -0.000388   0.000000   0.000001   0.000005  -0.000336   0.000468
     3  O    0.002969   0.000033  -0.000009   0.000047   0.009317  -0.009175
     4  C   -0.046238   0.017827  -0.000368   0.005501  -0.039215   0.009732
     5  O    0.012352   0.001616  -0.000033  -0.000007   0.001873  -0.000002
     6  C    0.467612  -0.002929  -0.074244  -0.082198   0.300532  -0.109928
     7  C    4.809710   0.392878   0.006181  -0.039703  -0.045606   0.000108
     8  C    0.392878   5.024034   0.433150  -0.042376  -0.064936   0.000491
     9  C    0.006181   0.433150   4.713798   0.511664  -0.034014   0.001612
    10  N   -0.039703  -0.042376   0.511664   6.409132   0.529184  -0.084004
    11  C   -0.045606  -0.064936  -0.034014   0.529184   4.727416   0.451714
    12  O    0.000108   0.000491   0.001612  -0.084004   0.451714   7.867405
    13  C   -0.000184   0.000017   0.000734  -0.013931  -0.042758   0.273591
    14  C    0.000026   0.000004   0.000036   0.002016   0.005428  -0.049646
    15  H   -0.000000   0.000000   0.000000   0.000000   0.000001   0.000000
    16  H   -0.000007   0.000000  -0.000000   0.000001   0.000101   0.000091
    17  H    0.000007  -0.000002   0.000000   0.000000  -0.000082   0.000008
    18  H    0.000016   0.000000   0.000000   0.000001   0.000060  -0.000024
    19  H    0.000021  -0.000001   0.000000  -0.000000  -0.000132   0.000148
    20  H    0.436362  -0.055559   0.008599  -0.000111   0.011839  -0.000054
    21  H   -0.055290   0.427344  -0.046215   0.005220   0.001013   0.000014
    22  H    0.005869  -0.065950   0.421418  -0.038668   0.003795  -0.000081
    23  H    0.000003   0.000020   0.000285   0.014851  -0.006484  -0.029069
    24  H    0.000042  -0.000000   0.000258   0.014961  -0.007034  -0.028832
    25  H   -0.000002  -0.000000  -0.000000  -0.000040  -0.000046   0.002253
    26  H   -0.000000  -0.000000  -0.000002   0.000023  -0.000030   0.003367
    27  H   -0.000002  -0.000000  -0.000000  -0.000039  -0.000078   0.002242
              13         14         15         16         17         18
     1  C    0.000003  -0.000004   0.382671   0.387295   0.394030  -0.030006
     2  C   -0.000010  -0.000018  -0.016586  -0.020624  -0.015720   0.390567
     3  O   -0.000287   0.000148   0.003609   0.001219  -0.005709  -0.026814
     4  C   -0.000455  -0.000222   0.000310   0.000136   0.004037  -0.008000
     5  O    0.000000   0.000000  -0.000059   0.000235   0.008812   0.018007
     6  C    0.006438   0.000495   0.000030  -0.000305   0.000476   0.000976
     7  C   -0.000184   0.000026  -0.000000  -0.000007   0.000007   0.000016
     8  C    0.000017   0.000004   0.000000   0.000000  -0.000002   0.000000
     9  C    0.000734   0.000036   0.000000  -0.000000   0.000000   0.000000
    10  N   -0.013931   0.002016   0.000000   0.000001   0.000000   0.000001
    11  C   -0.042758   0.005428   0.000001   0.000101  -0.000082   0.000060
    12  O    0.273591  -0.049646   0.000000   0.000091   0.000008  -0.000024
    13  C    4.488292   0.405935   0.000000  -0.000007  -0.000000   0.000001
    14  C    0.405935   4.601220   0.000000   0.000008  -0.000000   0.000000
    15  H    0.000000   0.000000   0.623925  -0.017350  -0.017650  -0.001279
    16  H   -0.000007   0.000008  -0.017350   0.624088  -0.023782   0.007585
    17  H   -0.000000  -0.000000  -0.017650  -0.023782   0.597473  -0.010253
    18  H    0.000001   0.000000  -0.001279   0.007585  -0.010253   0.638790
    19  H   -0.000003   0.000008  -0.003202  -0.009425   0.006537  -0.029070
    20  H    0.000007  -0.000000   0.000000  -0.000001  -0.000011  -0.000019
    21  H    0.000001  -0.000000  -0.000000   0.000000   0.000000   0.000000
    22  H   -0.000050  -0.000009   0.000000   0.000000   0.000000  -0.000000
    23  H    0.394857  -0.027547   0.000000   0.000001   0.000000  -0.000000
    24  H    0.394966  -0.027976  -0.000000  -0.000002  -0.000000  -0.000000
    25  H   -0.017380   0.387886   0.000000   0.000118  -0.000000   0.000001
    26  H   -0.014124   0.380050  -0.000000  -0.000000   0.000000  -0.000000
    27  H   -0.017236   0.388188  -0.000000   0.000001   0.000000   0.000001
              19         20         21         22         23         24
     1  C   -0.025677   0.000011  -0.000000  -0.000000  -0.000000  -0.000000
     2  C    0.389119  -0.000072  -0.000000   0.000000   0.000002   0.000001
     3  O   -0.024660   0.000694   0.000000  -0.000000  -0.000028  -0.000023
     4  C    0.005005  -0.018942  -0.000234   0.000083   0.000051  -0.000017
     5  O    0.000410   0.018231  -0.000017  -0.000000   0.000000  -0.000000
     6  C    0.000179  -0.048890   0.011100   0.001597   0.000267   0.000270
     7  C    0.000021   0.436362  -0.055290   0.005869   0.000003   0.000042
     8  C   -0.000001  -0.055559   0.427344  -0.065950   0.000020  -0.000000
     9  C    0.000000   0.008599  -0.046215   0.421418   0.000285   0.000258
    10  N   -0.000000  -0.000111   0.005220  -0.038668   0.014851   0.014961
    11  C   -0.000132   0.011839   0.001013   0.003795  -0.006484  -0.007034
    12  O    0.000148  -0.000054   0.000014  -0.000081  -0.029069  -0.028832
    13  C   -0.000003   0.000007   0.000001  -0.000050   0.394857   0.394966
    14  C    0.000008  -0.000000  -0.000000  -0.000009  -0.027547  -0.027976
    15  H   -0.003202   0.000000  -0.000000   0.000000   0.000000  -0.000000
    16  H   -0.009425  -0.000001   0.000000   0.000000   0.000001  -0.000002
    17  H    0.006537  -0.000011   0.000000   0.000000   0.000000  -0.000000
    18  H   -0.029070  -0.000019   0.000000  -0.000000  -0.000000  -0.000000
    19  H    0.647413   0.000000   0.000000   0.000000   0.000000   0.000001
    20  H    0.000000   0.607425  -0.008725  -0.000243   0.000000   0.000001
    21  H    0.000000  -0.008725   0.640263  -0.006044  -0.000002  -0.000002
    22  H    0.000000  -0.000243  -0.006044   0.638953  -0.000066  -0.000060
    23  H    0.000000   0.000000  -0.000002  -0.000066   0.659931  -0.038837
    24  H    0.000001   0.000001  -0.000002  -0.000060  -0.038837   0.661010
    25  H   -0.000001  -0.000000   0.000000   0.000000   0.007610  -0.010635
    26  H   -0.000000   0.000000  -0.000000   0.000000  -0.002331  -0.002246
    27  H    0.000039  -0.000000   0.000000   0.000000  -0.010581   0.007584
              25         26         27
     1  C   -0.000018  -0.000000  -0.000002
     2  C    0.000013   0.000001   0.000010
     3  O    0.000087   0.000001   0.000168
     4  C    0.000067   0.000004   0.000051
     5  O    0.000000   0.000000   0.000000
     6  C   -0.000202   0.000003  -0.000182
     7  C   -0.000002  -0.000000  -0.000002
     8  C   -0.000000  -0.000000  -0.000000
     9  C   -0.000000  -0.000002  -0.000000
    10  N   -0.000040   0.000023  -0.000039
    11  C   -0.000046  -0.000030  -0.000078
    12  O    0.002253   0.003367   0.002242
    13  C   -0.017380  -0.014124  -0.017236
    14  C    0.387886   0.380050   0.388188
    15  H    0.000000  -0.000000  -0.000000
    16  H    0.000118  -0.000000   0.000001
    17  H   -0.000000   0.000000   0.000000
    18  H    0.000001  -0.000000   0.000001
    19  H   -0.000001  -0.000000   0.000039
    20  H   -0.000000   0.000000  -0.000000
    21  H    0.000000  -0.000000   0.000000
    22  H    0.000000   0.000000   0.000000
    23  H    0.007610  -0.002331  -0.010581
    24  H   -0.010635  -0.002246   0.007584
    25  H    0.624226  -0.017978  -0.024245
    26  H   -0.017978   0.630134  -0.017844
    27  H   -0.024245  -0.017844   0.622111
 Mulliken charges:
               1
     1  C   -0.105992
     2  C    0.139764
     3  O   -0.303478
     4  C    0.281618
     5  O   -0.257144
     6  C   -0.163759
     7  C    0.053242
     8  C   -0.065663
     9  C    0.057150
    10  N   -0.191526
    11  C    0.198526
    12  O   -0.302284
    13  C    0.141586
    14  C   -0.066027
    15  H    0.045580
    16  H    0.050623
    17  H    0.061828
    18  H    0.049461
    19  H    0.043292
    20  H    0.049457
    21  H    0.031573
    22  H    0.039455
    23  H    0.037070
    24  H    0.036572
    25  H    0.048287
    26  H    0.040974
    27  H    0.049816
 Sum of Mulliken charges =  -0.00000
 Mulliken charges with hydrogens summed into heavy atoms:
               1
     1  C    0.052039
     2  C    0.232516
     3  O   -0.303478
     4  C    0.281618
     5  O   -0.257144
     6  C   -0.163759
     7  C    0.102699
     8  C   -0.034090
     9  C    0.096605
    10  N   -0.191526
    11  C    0.198526
    12  O   -0.302284
    13  C    0.215228
    14  C    0.073050
 Electronic spatial extent (au):  <R**2>=           3142.8034
 Charge=              0.0000 electrons
 Dipole moment (field-independent basis, Debye):
    X=             -0.3978    Y=              1.4830    Z=             -0.0590  Tot=              1.5366
 Quadrupole moment (field-independent basis, Debye-Ang):
   XX=            -73.7457   YY=            -78.4709   ZZ=            -82.2105
   XY=              6.9318   XZ=             -0.9995   YZ=              0.0104
 Traceless Quadrupole moment (field-independent basis, Debye-Ang):
   XX=              4.3967   YY=             -0.3285   ZZ=             -4.0682
   XY=              6.9318   XZ=             -0.9995   YZ=              0.0104
 Octapole moment (field-independent basis, Debye-Ang**2):
  XXX=             26.4589  YYY=             21.5174  ZZZ=             -3.1223  XYY=            -24.5843
  XXY=             -1.7761  XXZ=             -3.0077  XZZ=              9.4865  YZZ=              4.6849
  YYZ=             -0.2423  XYZ=              0.7555
 Hexadecapole moment (field-independent basis, Debye-Ang**3):
 XXXX=          -2133.1217 YYYY=          -1605.6898 ZZZZ=           -163.1072 XXXY=             54.6177
 XXXZ=            -25.3612 YYYX=             14.8674 YYYZ=             -1.1878 ZZZX=             -5.7436
 ZZZY=              0.8123 XXYY=           -658.4378 XXZZ=           -421.0185 YYZZ=           -310.4584
 XXYZ=             -5.8315 YYXZ=             -3.7964 ZZXY=            -15.0824
 N-N= 9.040076905107D+02 E-N=-3.365780660682D+03  KE= 6.621403549127D+02
   1 Symmetry operations used in ECPInt.
 ECPInt:  NShTT=    7626 NPrTT=   27482 LenC2=    7256 LenP2D=   18802.
 LDataN:  DoStor=T MaxTD1= 5 Len=  102
 Calling FoFJK, ICntrl=      2127 FMM=F ISym2X=0 I1Cent= 0 IOpClX= 0 NMat=1 NMatS=1 NMatT=0.
 ***** Axes restored to original set *****
 -------------------------------------------------------------------
 Center     Atomic                   Forces (Hartrees/Bohr)
 Number     Number              X              Y              Z
 -------------------------------------------------------------------
      1        6          -0.000020544   -0.000003590   -0.000016186
      2        6           0.000005030    0.000001636    0.000013992
      3        8          -0.000001026   -0.000002703    0.000007432
      4        6           0.000010964    0.000006302   -0.000004062
      5        8          -0.000003004    0.000000222    0.000001401
      6        6          -0.000006405   -0.000013918    0.000001452
      7        6           0.000004913   -0.000000270   -0.000001215
      8        6          -0.000001648   -0.000002688    0.000001315
      9        6          -0.000009983   -0.000009498   -0.000001847
     10        7           0.000007812    0.000010107   -0.000004066
     11        6          -0.000011686   -0.000002996    0.000013090
     12        8          -0.000005509    0.000023416   -0.000024013
     13        6           0.000032475   -0.000009400    0.000016443
     14        6          -0.000007480   -0.000017456    0.000003777
     15        1           0.000002289   -0.000000114    0.000004679
     16        1           0.000004675   -0.000005636    0.000001043
     17        1           0.000002909    0.000003178    0.000002965
     18        1          -0.000002352    0.000002237   -0.000000932
     19        1          -0.000000543   -0.000006399   -0.000004173
     20        1           0.000001616    0.000003314    0.000000332
     21        1          -0.000001232    0.000008013   -0.000001670
     22        1           0.000005626    0.000000112    0.000000351
     23        1          -0.000002513    0.000003673   -0.000000300
     24        1          -0.000008664    0.000000273   -0.000006880
     25        1          -0.000002080    0.000004690   -0.000005125
     26        1           0.000005351    0.000001831   -0.000000434
     27        1           0.000001009    0.000005665    0.000002632
 -------------------------------------------------------------------
 Cartesian Forces:  Max     0.000032475 RMS     0.000008344

 GradGradGradGradGradGradGradGradGradGradGradGradGradGradGradGradGradGrad
 Berny optimization.
 FormGI is forming the generalized inverse of G from B-inverse, IUseBI=4.
 Internal  Forces:  Max     0.000016988 RMS     0.000004349
 Search for a local minimum.
 Step number   1 out of a maximum of  134
 All quantities printed in internal units (Hartrees-Bohrs-Radians)
 Mixed Optimization -- En-DIIS/RFO-DIIS
 Second derivative matrix not updated -- first step.
 ITU=  0
     Eigenvalues ---    0.00552   0.00611   0.00826   0.01332   0.01401
     Eigenvalues ---    0.01441   0.01613   0.02001   0.02182   0.02214
     Eigenvalues ---    0.02222   0.02232   0.02354   0.02527   0.02632
     Eigenvalues ---    0.02653   0.05016   0.05410   0.05697   0.05708
     Eigenvalues ---    0.05741   0.05769   0.05814   0.05816   0.11291
     Eigenvalues ---    0.11729   0.13634   0.13901   0.16000   0.16000
     Eigenvalues ---    0.16000   0.16000   0.16000   0.16000   0.16000
     Eigenvalues ---    0.16000   0.16000   0.21891   0.22059   0.22084
     Eigenvalues ---    0.23314   0.24910   0.24997   0.24999   0.24999
     Eigenvalues ---    0.25000   0.25000   0.25000   0.30740   0.31182
     Eigenvalues ---    0.32861   0.33501   0.33510   0.33680   0.33710
     Eigenvalues ---    0.33714   0.33741   0.33744   0.33751   0.33822
     Eigenvalues ---    0.33886   0.34184   0.34610   0.34791   0.40490
     Eigenvalues ---    0.41396   0.42160   0.44511   0.45539   0.47098
     Eigenvalues ---    0.57251   0.59152   0.59765   0.60147   1.00705
 RFO step:  Lambda=-2.43117989D-08 EMin= 5.52319055D-03
 Linear search not attempted -- first point.
 Iteration  1 RMS(Cart)=  0.00026371 RMS(Int)=  0.00000003
 Iteration  2 RMS(Cart)=  0.00000006 RMS(Int)=  0.00000000
 Variable       Old X    -DE/DX   Delta X   Delta X   Delta X     New X
                                 (Linear)    (Quad)   (Total)
    R1        2.86511  -0.00001   0.00000  -0.00004  -0.00004   2.86506
    R2        2.07873   0.00000   0.00000   0.00001   0.00001   2.07874
    R3        2.07815  -0.00001   0.00000  -0.00001  -0.00001   2.07813
    R4        2.07631  -0.00000   0.00000  -0.00001  -0.00001   2.07630
    R5        2.69699  -0.00001   0.00000  -0.00002  -0.00002   2.69697
    R6        2.07822  -0.00000   0.00000  -0.00001  -0.00001   2.07821
    R7        2.07523  -0.00000   0.00000  -0.00001  -0.00001   2.07523
    R8        2.51127  -0.00001   0.00000  -0.00002  -0.00002   2.51125
    R9        2.28358  -0.00000   0.00000  -0.00000  -0.00000   2.28357
   R10        2.82596  -0.00000   0.00000  -0.00000  -0.00000   2.82596
   R11        2.63342  -0.00001   0.00000  -0.00002  -0.00002   2.63340
   R12        2.68473   0.00001   0.00000   0.00001   0.00001   2.68474
   R13        2.63110   0.00000   0.00000   0.00000   0.00000   2.63110
   R14        2.06313  -0.00000   0.00000  -0.00000  -0.00000   2.06313
   R15        2.62465  -0.00000   0.00000  -0.00000  -0.00000   2.62465
   R16        2.06016  -0.00001   0.00000  -0.00002  -0.00002   2.06014
   R17        2.51524   0.00001   0.00000   0.00002   0.00002   2.51526
   R18        2.07021  -0.00001   0.00000  -0.00002  -0.00002   2.07019
   R19        2.50560  -0.00000   0.00000  -0.00001  -0.00001   2.50559
   R20        2.50824   0.00001   0.00000   0.00002   0.00002   2.50826
   R21        2.68720  -0.00002   0.00000  -0.00004  -0.00004   2.68715
   R22        2.85666  -0.00001   0.00000  -0.00003  -0.00003   2.85664
   R23        2.08165   0.00000   0.00000   0.00001   0.00001   2.08166
   R24        2.08181  -0.00000   0.00000  -0.00000  -0.00000   2.08180
   R25        2.07769  -0.00001   0.00000  -0.00002  -0.00002   2.07767
   R26        2.07764  -0.00000   0.00000  -0.00000  -0.00000   2.07764
   R27        2.07752  -0.00000   0.00000  -0.00001  -0.00001   2.07751
    A1        1.91788   0.00000   0.00000   0.00002   0.00002   1.91790
    A2        1.93175   0.00000   0.00000   0.00003   0.00003   1.93178
    A3        1.93077   0.00001   0.00000   0.00004   0.00004   1.93081
    A4        1.89203  -0.00000   0.00000  -0.00004  -0.00004   1.89199
    A5        1.88866  -0.00000   0.00000  -0.00003  -0.00003   1.88863
    A6        1.90178  -0.00000   0.00000  -0.00003  -0.00003   1.90175
    A7        1.94850  -0.00001   0.00000  -0.00002  -0.00002   1.94847
    A8        1.93568   0.00000   0.00000   0.00002   0.00002   1.93570
    A9        1.94099   0.00001   0.00000   0.00005   0.00005   1.94104
   A10        1.90683  -0.00000   0.00000  -0.00002  -0.00002   1.90681
   A11        1.82533   0.00000   0.00000   0.00001   0.00001   1.82534
   A12        1.90297  -0.00000   0.00000  -0.00004  -0.00004   1.90293
   A13        2.04922  -0.00001   0.00000  -0.00004  -0.00004   2.04918
   A14        2.15497   0.00000   0.00000   0.00001   0.00001   2.15498
   A15        1.99320  -0.00000   0.00000  -0.00000  -0.00000   1.99319
   A16        2.13482  -0.00000   0.00000  -0.00001  -0.00001   2.13481
   A17        2.02971  -0.00000   0.00000   0.00000   0.00000   2.02971
   A18        2.21420  -0.00001   0.00000  -0.00002  -0.00002   2.21418
   A19        2.03924   0.00001   0.00000   0.00002   0.00002   2.03926
   A20        2.10602  -0.00000   0.00000  -0.00002  -0.00002   2.10600
   A21        2.05278  -0.00000   0.00000  -0.00002  -0.00002   2.05277
   A22        2.12438   0.00001   0.00000   0.00003   0.00003   2.12442
   A23        2.04762   0.00000   0.00000   0.00001   0.00001   2.04763
   A24        2.12260   0.00000   0.00000   0.00002   0.00002   2.12263
   A25        2.11296  -0.00000   0.00000  -0.00003  -0.00003   2.11293
   A26        2.15322   0.00000   0.00000   0.00001   0.00001   2.15323
   A27        2.10472  -0.00000   0.00000  -0.00001  -0.00001   2.10471
   A28        2.02524   0.00000   0.00000   0.00000   0.00000   2.02524
   A29        2.08408  -0.00000   0.00000  -0.00001  -0.00001   2.08407
   A30        2.13605  -0.00000   0.00000  -0.00001  -0.00001   2.13604
   A31        2.08361  -0.00000   0.00000  -0.00001  -0.00001   2.08360
   A32        2.06347   0.00000   0.00000   0.00002   0.00002   2.06349
   A33        2.07415   0.00000   0.00000   0.00001   0.00001   2.07416
   A34        1.87338   0.00000   0.00000   0.00003   0.00003   1.87341
   A35        1.91118  -0.00000   0.00000   0.00001   0.00001   1.91119
   A36        1.91179   0.00000   0.00000   0.00003   0.00003   1.91182
   A37        1.95239  -0.00000   0.00000  -0.00001  -0.00001   1.95238
   A38        1.95247   0.00000   0.00000   0.00001   0.00001   1.95249
   A39        1.86263  -0.00000   0.00000  -0.00007  -0.00007   1.86256
   A40        1.93332   0.00000   0.00000   0.00003   0.00003   1.93335
   A41        1.91970   0.00000   0.00000   0.00002   0.00002   1.91972
   A42        1.93277   0.00001   0.00000   0.00004   0.00004   1.93281
   A43        1.89351  -0.00000   0.00000  -0.00004  -0.00004   1.89347
   A44        1.88933  -0.00000   0.00000  -0.00001  -0.00001   1.88932
   A45        1.89416  -0.00001   0.00000  -0.00004  -0.00004   1.89412
    D1       -3.05920  -0.00000   0.00000  -0.00000  -0.00000  -3.05920
    D2        1.09305   0.00000   0.00000   0.00003   0.00003   1.09308
    D3       -1.02775   0.00000   0.00000   0.00003   0.00003  -1.02772
    D4       -0.97008  -0.00000   0.00000  -0.00002  -0.00002  -0.97010
    D5       -3.10101   0.00000   0.00000   0.00001   0.00001  -3.10100
    D6        1.06138  -0.00000   0.00000   0.00001   0.00001   1.06139
    D7        1.13965  -0.00000   0.00000  -0.00001  -0.00001   1.13964
    D8       -0.99128   0.00000   0.00000   0.00002   0.00002  -0.99126
    D9       -3.11208   0.00000   0.00000   0.00002   0.00002  -3.11206
   D10       -1.43813  -0.00000   0.00000  -0.00010  -0.00010  -1.43823
   D11        0.70931   0.00000   0.00000  -0.00010  -0.00010   0.70920
   D12        2.74440  -0.00000   0.00000  -0.00015  -0.00015   2.74425
   D13       -0.03158   0.00000   0.00000   0.00006   0.00006  -0.03152
   D14        3.13086   0.00000   0.00000   0.00005   0.00005   3.13092
   D15        2.99011   0.00000   0.00000   0.00001   0.00001   2.99012
   D16       -0.16091  -0.00000   0.00000  -0.00002  -0.00002  -0.16094
   D17       -0.13090   0.00000   0.00000   0.00000   0.00000  -0.13089
   D18        3.00126  -0.00000   0.00000  -0.00003  -0.00003   3.00123
   D19       -3.13465  -0.00000   0.00000  -0.00003  -0.00003  -3.13468
   D20        0.00497  -0.00000   0.00000  -0.00001  -0.00001   0.00495
   D21        0.01540  -0.00000   0.00000   0.00000   0.00000   0.01540
   D22       -3.12817   0.00000   0.00000   0.00002   0.00002  -3.12815
   D23        3.13485   0.00000   0.00000   0.00004   0.00004   3.13489
   D24       -0.01784   0.00000   0.00000   0.00002   0.00002  -0.01782
   D25       -0.01622   0.00000   0.00000   0.00000   0.00000  -0.01622
   D26        3.11428  -0.00000   0.00000  -0.00002  -0.00002   3.11426
   D27       -0.00437   0.00000   0.00000  -0.00000  -0.00000  -0.00437
   D28        3.13599  -0.00000   0.00000  -0.00001  -0.00001   3.13598
   D29        3.13928  -0.00000   0.00000  -0.00002  -0.00002   3.13926
   D30       -0.00354  -0.00000   0.00000  -0.00003  -0.00003  -0.00357
   D31       -0.00759  -0.00000   0.00000  -0.00000  -0.00000  -0.00759
   D32        3.13641   0.00000   0.00000   0.00004   0.00004   3.13645
   D33        3.13523   0.00000   0.00000   0.00000   0.00000   3.13523
   D34       -0.00396   0.00000   0.00000   0.00005   0.00005  -0.00391
   D35        0.00722   0.00000   0.00000   0.00001   0.00001   0.00723
   D36       -3.13668  -0.00000   0.00000  -0.00003  -0.00003  -3.13671
   D37        0.00518  -0.00000   0.00000  -0.00001  -0.00001   0.00517
   D38       -3.12544   0.00000   0.00000   0.00001   0.00001  -3.12543
   D39       -3.13885   0.00001   0.00000   0.00029   0.00029  -3.13855
   D40       -0.00789   0.00001   0.00000   0.00027   0.00027  -0.00761
   D41       -3.13723  -0.00001   0.00000  -0.00048  -0.00048  -3.13771
   D42       -1.01439  -0.00000   0.00000  -0.00047  -0.00047  -1.01486
   D43        1.02266  -0.00001   0.00000  -0.00054  -0.00054   1.02213
   D44       -1.04987  -0.00000   0.00000  -0.00002  -0.00002  -1.04988
   D45        3.14018  -0.00000   0.00000   0.00000   0.00000   3.14018
   D46        1.04658   0.00000   0.00000   0.00001   0.00001   1.04659
   D47        3.13650  -0.00000   0.00000  -0.00004  -0.00004   3.13646
   D48        1.04335  -0.00000   0.00000  -0.00002  -0.00002   1.04333
   D49       -1.05024  -0.00000   0.00000  -0.00001  -0.00001  -1.05025
   D50        1.04776   0.00000   0.00000   0.00005   0.00005   1.04781
   D51       -1.04539   0.00000   0.00000   0.00007   0.00007  -1.04532
   D52       -3.13898   0.00000   0.00000   0.00008   0.00008  -3.13890
         Item               Value     Threshold  Converged?
 Maximum Force            0.000017     0.000450     YES
 RMS     Force            0.000004     0.000300     YES
 Maximum Displacement     0.000900     0.001800     YES
 RMS     Displacement     0.000264     0.001200     YES
 Predicted change in Energy=-1.215592D-08
 Optimization completed.
    -- Stationary point found.
                           ----------------------------
                           !   Optimized Parameters   !
                           ! (Angstroms and Degrees)  !
 --------------------------                            --------------------------
 ! Name  Definition              Value          Derivative Info.                !
 --------------------------------------------------------------------------------
 ! R1    R(1,2)                  1.5161         -DE/DX =    0.0                 !
 ! R2    R(1,15)                 1.1            -DE/DX =    0.0                 !
 ! R3    R(1,16)                 1.0997         -DE/DX =    0.0                 !
 ! R4    R(1,17)                 1.0987         -DE/DX =    0.0                 !
 ! R5    R(2,3)                  1.4272         -DE/DX =    0.0                 !
 ! R6    R(2,18)                 1.0997         -DE/DX =    0.0                 !
 ! R7    R(2,19)                 1.0982         -DE/DX =    0.0                 !
 ! R8    R(3,4)                  1.3289         -DE/DX =    0.0                 !
 ! R9    R(4,5)                  1.2084         -DE/DX =    0.0                 !
 ! R10   R(4,6)                  1.4954         -DE/DX =    0.0                 !
 ! R11   R(6,7)                  1.3935         -DE/DX =    0.0                 !
 ! R12   R(6,11)                 1.4207         -DE/DX =    0.0                 !
 ! R13   R(7,8)                  1.3923         -DE/DX =    0.0                 !
 ! R14   R(7,20)                 1.0918         -DE/DX =    0.0                 !
 ! R15   R(8,9)                  1.3889         -DE/DX =    0.0                 !
 ! R16   R(8,21)                 1.0902         -DE/DX =    0.0                 !
 ! R17   R(9,10)                 1.331          -DE/DX =    0.0                 !
 ! R18   R(9,22)                 1.0955         -DE/DX =    0.0                 !
 ! R19   R(10,11)                1.3259         -DE/DX =    0.0                 !
 ! R20   R(11,12)                1.3273         -DE/DX =    0.0                 !
 ! R21   R(12,13)                1.422          -DE/DX =    0.0                 !
 ! R22   R(13,14)                1.5117         -DE/DX =    0.0                 !
 ! R23   R(13,23)                1.1016         -DE/DX =    0.0                 !
 ! R24   R(13,24)                1.1016         -DE/DX =    0.0                 !
 ! R25   R(14,25)                1.0995         -DE/DX =    0.0                 !
 ! R26   R(14,26)                1.0994         -DE/DX =    0.0                 !
 ! R27   R(14,27)                1.0994         -DE/DX =    0.0                 !
 ! A1    A(2,1,15)             109.8863         -DE/DX =    0.0                 !
 ! A2    A(2,1,16)             110.6812         -DE/DX =    0.0                 !
 ! A3    A(2,1,17)             110.6249         -DE/DX =    0.0                 !
 ! A4    A(15,1,16)            108.4051         -DE/DX =    0.0                 !
 ! A5    A(15,1,17)            108.2122         -DE/DX =    0.0                 !
 ! A6    A(16,1,17)            108.9638         -DE/DX =    0.0                 !
 ! A7    A(1,2,3)              111.6405         -DE/DX =    0.0                 !
 ! A8    A(1,2,18)             110.9061         -DE/DX =    0.0                 !
 ! A9    A(1,2,19)             111.2103         -DE/DX =    0.0                 !
 ! A10   A(3,2,18)             109.2533         -DE/DX =    0.0                 !
 ! A11   A(3,2,19)             104.5836         -DE/DX =    0.0                 !
 ! A12   A(18,2,19)            109.0322         -DE/DX =    0.0                 !
 ! A13   A(2,3,4)              117.4118         -DE/DX =    0.0                 !
 ! A14   A(3,4,5)              123.4708         -DE/DX =    0.0                 !
 ! A15   A(3,4,6)              114.2019         -DE/DX =    0.0                 !
 ! A16   A(5,4,6)              122.3161         -DE/DX =    0.0                 !
 ! A17   A(4,6,7)              116.2936         -DE/DX =    0.0                 !
 ! A18   A(4,6,11)             126.8644         -DE/DX =    0.0                 !
 ! A19   A(7,6,11)             116.8399         -DE/DX =    0.0                 !
 ! A20   A(6,7,8)              120.6659         -DE/DX =    0.0                 !
 ! A21   A(6,7,20)             117.6158         -DE/DX =    0.0                 !
 ! A22   A(8,7,20)             121.7182         -DE/DX =    0.0                 !
 ! A23   A(7,8,9)              117.3201         -DE/DX =    0.0                 !
 ! A24   A(7,8,21)             121.6163         -DE/DX =    0.0                 !
 ! A25   A(9,8,21)             121.0636         -DE/DX =    0.0                 !
 ! A26   A(8,9,10)             123.3707         -DE/DX =    0.0                 !
 ! A27   A(8,9,22)             120.5913         -DE/DX =    0.0                 !
 ! A28   A(10,9,22)            116.0379         -DE/DX =    0.0                 !
 ! A29   A(9,10,11)            119.409          -DE/DX =    0.0                 !
 ! A30   A(6,11,10)            122.3866         -DE/DX =    0.0                 !
 ! A31   A(6,11,12)            119.3822         -DE/DX =    0.0                 !
 ! A32   A(10,11,12)           118.2283         -DE/DX =    0.0                 !
 ! A33   A(11,12,13)           118.8403         -DE/DX =    0.0                 !
 ! A34   A(12,13,14)           107.3366         -DE/DX =    0.0                 !
 ! A35   A(12,13,23)           109.5024         -DE/DX =    0.0                 !
 ! A36   A(12,13,24)           109.5374         -DE/DX =    0.0                 !
 ! A37   A(14,13,23)           111.8637         -DE/DX =    0.0                 !
 ! A38   A(14,13,24)           111.8684         -DE/DX =    0.0                 !
 ! A39   A(23,13,24)           106.7209         -DE/DX =    0.0                 !
 ! A40   A(13,14,25)           110.7709         -DE/DX =    0.0                 !
 ! A41   A(13,14,26)           109.991          -DE/DX =    0.0                 !
 ! A42   A(13,14,27)           110.7395         -DE/DX =    0.0                 !
 ! A43   A(25,14,26)           108.4901         -DE/DX =    0.0                 !
 ! A44   A(25,14,27)           108.2509         -DE/DX =    0.0                 !
 ! A45   A(26,14,27)           108.5272         -DE/DX =    0.0                 !
 ! D1    D(15,1,2,3)          -175.2795         -DE/DX =    0.0                 !
 ! D2    D(15,1,2,18)           62.6271         -DE/DX =    0.0                 !
 ! D3    D(15,1,2,19)          -58.8856         -DE/DX =    0.0                 !
 ! D4    D(16,1,2,3)           -55.5814         -DE/DX =    0.0                 !
 ! D5    D(16,1,2,18)         -177.6749         -DE/DX =    0.0                 !
 ! D6    D(16,1,2,19)           60.8125         -DE/DX =    0.0                 !
 ! D7    D(17,1,2,3)            65.2971         -DE/DX =    0.0                 !
 ! D8    D(17,1,2,18)          -56.7964         -DE/DX =    0.0                 !
 ! D9    D(17,1,2,19)         -178.3091         -DE/DX =    0.0                 !
 ! D10   D(1,2,3,4)            -82.399          -DE/DX =    0.0                 !
 ! D11   D(18,2,3,4)            40.6404         -DE/DX =    0.0                 !
 ! D12   D(19,2,3,4)           157.2425         -DE/DX =    0.0                 !
 ! D13   D(2,3,4,5)             -1.8096         -DE/DX =    0.0                 !
 ! D14   D(2,3,4,6)            179.3852         -DE/DX =    0.0                 !
 ! D15   D(3,4,6,7)            171.3208         -DE/DX =    0.0                 !
 ! D16   D(3,4,6,11)            -9.2196         -DE/DX =    0.0                 !
 ! D17   D(5,4,6,7)             -7.4999         -DE/DX =    0.0                 !
 ! D18   D(5,4,6,11)           171.9598         -DE/DX =    0.0                 !
 ! D19   D(4,6,7,8)           -179.6023         -DE/DX =    0.0                 !
 ! D20   D(4,6,7,20)             0.2846         -DE/DX =    0.0                 !
 ! D21   D(11,6,7,8)             0.8822         -DE/DX =    0.0                 !
 ! D22   D(11,6,7,20)         -179.2309         -DE/DX =    0.0                 !
 ! D23   D(4,6,11,10)          179.6135         -DE/DX =    0.0                 !
 ! D24   D(4,6,11,12)           -1.0219         -DE/DX =    0.0                 !
 ! D25   D(7,6,11,10)           -0.9294         -DE/DX =    0.0                 !
 ! D26   D(7,6,11,12)          178.4351         -DE/DX =    0.0                 !
 ! D27   D(6,7,8,9)             -0.2503         -DE/DX =    0.0                 !
 ! D28   D(6,7,8,21)           179.6791         -DE/DX =    0.0                 !
 ! D29   D(20,7,8,9)           179.8675         -DE/DX =    0.0                 !
 ! D30   D(20,7,8,21)           -0.2031         -DE/DX =    0.0                 !
 ! D31   D(7,8,9,10)            -0.4349         -DE/DX =    0.0                 !
 ! D32   D(7,8,9,22)           179.703          -DE/DX =    0.0                 !
 ! D33   D(21,8,9,10)          179.6353         -DE/DX =    0.0                 !
 ! D34   D(21,8,9,22)           -0.2268         -DE/DX =    0.0                 !
 ! D35   D(8,9,10,11)            0.4137         -DE/DX =    0.0                 !
 ! D36   D(22,9,10,11)        -179.7184         -DE/DX =    0.0                 !
 ! D37   D(9,10,11,6)            0.2968         -DE/DX =    0.0                 !
 ! D38   D(9,10,11,12)        -179.0747         -DE/DX =    0.0                 !
 ! D39   D(6,11,12,13)        -179.8428         -DE/DX =    0.0                 !
 ! D40   D(10,11,12,13)         -0.4518         -DE/DX =    0.0                 !
 ! D41   D(11,12,13,14)       -179.7498         -DE/DX =    0.0                 !
 ! D42   D(11,12,13,23)        -58.1202         -DE/DX =    0.0                 !
 ! D43   D(11,12,13,24)         58.5944         -DE/DX =    0.0                 !
 ! D44   D(12,13,14,25)        -60.153          -DE/DX =    0.0                 !
 ! D45   D(12,13,14,26)        179.9188         -DE/DX =    0.0                 !
 ! D46   D(12,13,14,27)         59.9645         -DE/DX =    0.0                 !
 ! D47   D(23,13,14,25)        179.708          -DE/DX =    0.0                 !
 ! D48   D(23,13,14,26)         59.7798         -DE/DX =    0.0                 !
 ! D49   D(23,13,14,27)        -60.1746         -DE/DX =    0.0                 !
 ! D50   D(24,13,14,25)         60.032          -DE/DX =    0.0                 !
 ! D51   D(24,13,14,26)        -59.8962         -DE/DX =    0.0                 !
 ! D52   D(24,13,14,27)       -179.8505         -DE/DX =    0.0                 !
 --------------------------------------------------------------------------------
 GradGradGradGradGradGradGradGradGradGradGradGradGradGradGradGradGradGrad

                          Input orientation:                          
 ---------------------------------------------------------------------
 Center     Atomic      Atomic             Coordinates (Angstroms)
 Number     Number       Type             X           Y           Z
 ---------------------------------------------------------------------
      1          6           0        3.789720    0.081340    0.834730
      2          6           0        3.124650    0.039760   -0.527130
      3          8           0        1.701670    0.054430   -0.418610
      4          6           0        1.094590   -1.102650   -0.176520
      5          8           0        1.680600   -2.154820   -0.077520
      6          6           0       -0.393110   -1.002340   -0.062480
      7          6           0       -1.089810   -2.207420    0.003560
      8          6           0       -2.478530   -2.220300    0.102750
      9          6           0       -3.126530   -0.992320    0.137680
     10          7           0       -2.487550    0.174300    0.089820
     11          6           0       -1.165050    0.188910   -0.004050
     12          8           0       -0.550560    1.365090   -0.031260
     13          6           0       -1.334220    2.550020    0.031260
     14          6           0       -0.382320    3.723060   -0.023930
     15          1           0        4.880910    0.154060    0.716190
     16          1           0        3.444030    0.952950    1.409320
     17          1           0        3.566130   -0.832250    1.402690
     18          1           0        3.436310   -0.852790   -1.088970
     19          1           0        3.366390    0.935370   -1.114850
     20          1           0       -0.507980   -3.130710   -0.027300
     21          1           0       -3.039470   -3.153900    0.150210
     22          1           0       -4.218380   -0.939970    0.210190
     23          1           0       -2.049560    2.562450   -0.806340
     24          1           0       -1.930670    2.548810    0.957470
     25          1           0        0.319430    3.695870    0.822020
     26          1           0       -0.945320    4.666380    0.020250
     27          1           0        0.200910    3.707640   -0.955720
 ---------------------------------------------------------------------
                    Distance matrix (angstroms):
                    1          2          3          4          5
     1  C    0.000000
     2  C    1.516150   0.000000
     3  O    2.435475   1.427187   0.000000
     4  C    3.112585   2.355668   1.328905   0.000000
     5  O    3.206400   2.665260   2.235525   1.208416   0.000000
     6  C    4.413096   3.698176   2.373119   1.495433   2.372490
     7  C    5.453355   4.805530   3.617534   2.454496   2.772095
     8  C    6.717462   6.074557   4.787513   3.754240   4.163550
     9  C    7.033714   6.370590   4.971585   4.234235   4.950375
    10  N    6.321997   5.647612   4.221662   3.812252   4.777685
    11  C    5.026417   4.324047   2.899660   2.608418   3.687301
    12  O    4.608252   3.938217   2.634466   2.969404   4.167731
    13  C    5.744102   5.147303   3.955626   4.391388   5.588962
    14  C    5.604047   5.110650   4.237645   5.048963   6.229605
    15  H    1.100016   2.154845   3.377168   4.088089   4.025281
    16  H    1.099709   2.164661   2.680389   3.501464   3.870221
    17  H    1.098735   2.163218   2.753098   2.945425   2.737779
    18  H    2.167515   1.099746   2.069156   2.525598   2.408491
    19  H    2.170124   1.098167   2.008008   3.192971   3.669771
    20  H    5.434205   4.847444   3.896254   2.589117   2.396824
    21  H    7.587699   6.975287   5.752855   4.626536   4.830019
    22  H    8.097085   7.444703   6.035827   5.329508   6.029644
    23  H    6.553336   5.763191   4.529042   4.869837   6.057880
    24  H    6.231078   5.835720   4.616213   4.875581   6.019685
    25  H    5.010779   4.801729   4.087767   4.962232   6.073922
    26  H    6.641278   6.186267   5.335657   6.122227   7.309842
    27  H    5.406970   4.710126   3.985814   4.954261   6.109759
                    6          7          8          9         10
     6  C    0.000000
     7  C    1.393546   0.000000
     8  C    2.420683   1.392317   0.000000
     9  C    2.740757   2.375434   1.388906   0.000000
    10  N    2.407147   2.762917   2.394652   1.331010   0.000000
    11  C    1.420698   2.397523   2.746075   2.294078   1.325908
    12  O    2.372865   3.613147   4.073088   3.495933   2.276965
    13  C    3.676103   4.763795   4.906171   3.971382   2.641523
    14  C    4.725570   5.972595   6.303465   5.458170   4.127788
    15  H    5.455170   6.460180   7.757271   8.109745   7.395063
    16  H    4.551153   5.702614   6.844951   6.969462   6.126256
    17  H    4.225072   5.052369   6.336753   6.813044   6.275652
    18  H    3.967430   4.849166   6.186729   6.677949   6.126710
    19  H    4.358445   5.566479   6.753065   6.887876   6.024871
    20  H    2.131758   1.091761   2.174587   3.384780   3.854284
    21  H    3.417260   2.172212   1.090190   2.163369   3.374193
    22  H    3.835483   3.381875   2.162838   1.095507   2.062004
    23  H    4.000610   4.932415   4.887244   3.832418   2.588088
    24  H    4.001881   4.923283   4.875972   3.826452   2.588673
    25  H    4.833553   6.124105   6.583844   5.858506   4.562533
    26  H    5.696154   6.875339   7.055771   6.065670   4.749957
    27  H    4.830595   6.129773   6.590920   5.861485   4.561301
                   11         12         13         14         15
    11  C    0.000000
    12  O    1.327305   0.000000
    13  C    2.367426   1.422002   0.000000
    14  C    3.619845   2.363976   1.511682   0.000000
    15  H    6.088809   5.614814   6.696088   6.402119   0.000000
    16  H    4.881085   4.266366   5.223156   4.936463   1.784174
    17  H    5.040412   4.881767   6.110156   6.194865   1.781218
    18  H    4.840940   4.683255   5.965902   6.054308   2.521749
    19  H    4.724937   4.086725   5.100627   4.797306   2.501384
    20  H    3.384104   4.496003   5.740801   6.854923   6.354733
    21  H    3.835574   5.162255   5.954555   7.374507   8.602055
    22  H    3.262375   4.338721   4.531051   6.042683   9.178781
    23  H    2.657013   2.069159   1.101562   2.176895   7.493321
    24  H    2.660794   2.069658   1.101644   2.177016   7.224311
    25  H    3.896773   2.630115   2.161673   1.099465   5.776047
    26  H    4.482924   3.325207   2.151823   1.099442   7.402048
    27  H    3.892683   2.628093   2.161212   1.099376   6.109469
                   16         17         18         19         20
    16  H    0.000000
    17  H    1.789383   0.000000
    18  H    3.082565   2.495124   0.000000
    19  H    2.525425   3.082594   1.789714   0.000000
    20  H    5.861616   4.891438   4.676910   5.720709   0.000000
    21  H    7.777361   7.112856   6.983294   7.704385   2.537812
    22  H    7.983332   7.876056   7.764644   7.924731   4.315416
    23  H    6.138336   6.923856   6.468270   5.663487   5.949407
    24  H    5.624797   6.468740   6.675573   5.912406   5.937236
    25  H    4.199007   5.601974   5.835849   4.544864   6.928791
    26  H    5.914852   7.245637   7.133743   5.813754   7.809490
    27  H    4.868219   6.123512   5.593129   4.210827   6.937400
                   21         22         23         24         25
    21  H    0.000000
[...]
 Alpha virt. eigenvalues --    6.29749   6.36249   6.46273   6.50543   6.54546
 Alpha virt. eigenvalues --    6.66912   6.75003   6.76413   6.78014   6.88926
 Alpha virt. eigenvalues --    6.90478   6.94945   6.97260   7.04214   7.08582
 Alpha virt. eigenvalues --    7.17484   7.26957   7.36968   7.46306   7.55402
 Alpha virt. eigenvalues --    7.58718  22.39579  22.41833  22.49729  22.58668
 Alpha virt. eigenvalues --   22.63464  22.73663  22.92280  23.15454  23.33852
 Alpha virt. eigenvalues --   23.67251  32.67369  44.06670  44.36309  44.51150
          Condensed to atoms (all electrons):
               1          2          3          4          5          6
     1  C    4.960829   0.320996  -0.036592   0.002224  -0.013320   0.000838
     2  C    0.320996   4.805040   0.212773  -0.040493   0.008783   0.004550
     3  O   -0.036592   0.212773   7.928109   0.406851  -0.082716  -0.122956
     4  C    0.002224  -0.040493   0.406851   4.501394   0.622032   0.282129
     5  O   -0.013320   0.008783  -0.082716   0.622032   7.934675  -0.149717
     6  C    0.000838   0.004550  -0.122956   0.282129  -0.149717   5.489296
     7  C    0.000197  -0.001581   0.007524  -0.071522   0.032305   0.413124
     8  C    0.000012  -0.000050  -0.000135   0.006169   0.001591  -0.031115
     9  C   -0.000002   0.000014   0.000144  -0.001564   0.000218  -0.051661
    10  N   -0.000012   0.000073  -0.000089   0.004240  -0.000253  -0.048590
    11  C   -0.000380  -0.000292   0.008416  -0.089739   0.001280   0.398718
    12  O   -0.000564   0.001900  -0.015679   0.007897  -0.000091  -0.098348
    13  C    0.000053  -0.000127  -0.000713  -0.001212   0.000006   0.011102
    14  C   -0.000009  -0.000229   0.001356  -0.000252   0.000006   0.001297
    15  H    0.396867  -0.033326   0.004145   0.000690   0.000186  -0.000067
    16  H    0.397670  -0.030368   0.002852  -0.002747   0.000526  -0.001647
    17  H    0.418045  -0.040120  -0.003212   0.003715   0.006282   0.003191
    18  H   -0.043263   0.422896  -0.028860  -0.015587   0.012125  -0.004823
    19  H   -0.030838   0.395807  -0.034793   0.004853   0.001256   0.003448
    20  H    0.000030  -0.000199   0.000796  -0.016842   0.020245  -0.032979
    21  H    0.000000  -0.000000   0.000001  -0.000283  -0.000112   0.010112
    22  H   -0.000000   0.000000  -0.000000   0.000190  -0.000002   0.001022
    23  H   -0.000005   0.000009  -0.000071   0.000224   0.000000  -0.002377
    24  H    0.000004   0.000006  -0.000033  -0.000139  -0.000001  -0.003169
    25  H   -0.000030   0.000001  -0.000002   0.000060  -0.000000  -0.000382
    26  H   -0.000002   0.000007   0.000020   0.000022   0.000000  -0.000068
    27  H    0.000025  -0.000015   0.000082   0.000014   0.000000  -0.000334
               7          8          9         10         11         12
     1  C    0.000197   0.000012  -0.000002  -0.000012  -0.000380  -0.000564
     2  C   -0.001581  -0.000050   0.000014   0.000073  -0.000292   0.001900
     3  O    0.007524  -0.000135   0.000144  -0.000089   0.008416  -0.015679
     4  C   -0.071522   0.006169  -0.001564   0.004240  -0.089739   0.007897
     5  O    0.032305   0.001591   0.000218  -0.000253   0.001280  -0.000091
     6  C    0.413124  -0.031115  -0.051661  -0.048590   0.398718  -0.098348
     7  C    4.987851   0.461271   0.010805  -0.044296  -0.033123  -0.000001
     8  C    0.461271   4.964421   0.502268  -0.058144  -0.033844   0.002197
     9  C    0.010805   0.502268   4.692763   0.541657  -0.069687  -0.000591
    10  N   -0.044296  -0.058144   0.541657   6.589614   0.448753  -0.085292
    11  C   -0.033123  -0.033844  -0.069687   0.448753   4.666731   0.423123
    12  O   -0.000001   0.002197  -0.000591  -0.085292   0.423123   7.900329
    13  C   -0.000957   0.000361   0.000082  -0.020024  -0.042599   0.227303
    14  C    0.000127   0.000012   0.000216   0.004732   0.001156  -0.049784
    15  H   -0.000000  -0.000000   0.000000   0.000000   0.000021   0.000005
    16  H   -0.000006  -0.000003   0.000002   0.000002  -0.000026   0.000254
    17  H   -0.000080   0.000003  -0.000001   0.000001  -0.000053   0.000024
    18  H   -0.000002  -0.000005   0.000003   0.000004   0.000031  -0.000036
    19  H    0.000002  -0.000001  -0.000002   0.000002  -0.000132   0.000111
    20  H    0.419130  -0.043339   0.004035  -0.001127   0.011260  -0.000078
    21  H   -0.058145   0.427518  -0.037604   0.006513  -0.000566   0.000045
    22  H    0.002968  -0.069435   0.430999  -0.032957   0.003552  -0.000097
    23  H    0.000109  -0.000233   0.000848   0.012958  -0.008458  -0.038875
    24  H    0.000235  -0.000244   0.000557   0.013110  -0.009045  -0.036203
    25  H   -0.000004   0.000000  -0.000005  -0.000081  -0.000217   0.002025
    26  H   -0.000003  -0.000002   0.000016   0.000177   0.000356   0.004486
    27  H   -0.000007   0.000001  -0.000008  -0.000084  -0.000219   0.002295
              13         14         15         16         17         18
     1  C    0.000053  -0.000009   0.396867   0.397670   0.418045  -0.043263
     2  C   -0.000127  -0.000229  -0.033326  -0.030368  -0.040120   0.422896
     3  O   -0.000713   0.001356   0.004145   0.002852  -0.003212  -0.028860
     4  C   -0.001212  -0.000252   0.000690  -0.002747   0.003715  -0.015587
     5  O    0.000006   0.000006   0.000186   0.000526   0.006282   0.012125
     6  C    0.011102   0.001297  -0.000067  -0.001647   0.003191  -0.004823
     7  C   -0.000957   0.000127  -0.000000  -0.000006  -0.000080  -0.000002
     8  C    0.000361   0.000012  -0.000000  -0.000003   0.000003  -0.000005
     9  C    0.000082   0.000216   0.000000   0.000002  -0.000001   0.000003
    10  N   -0.020024   0.004732   0.000000   0.000002   0.000001   0.000004
    11  C   -0.042599   0.001156   0.000021  -0.000026  -0.000053   0.000031
    12  O    0.227303  -0.049784   0.000005   0.000254   0.000024  -0.000036
    13  C    4.836035   0.315209  -0.000001  -0.000056   0.000004  -0.000010
    14  C    0.315209   4.886871   0.000002   0.000046  -0.000003   0.000016
    15  H   -0.000001   0.000002   0.555589  -0.019289  -0.020687   0.000914
    16  H   -0.000056   0.000046  -0.019289   0.556744  -0.023020   0.006656
    17  H    0.000004  -0.000003  -0.020687  -0.023020   0.510097  -0.005338
    18  H   -0.000010   0.000016   0.000914   0.006656  -0.005338   0.567082
    19  H    0.000066  -0.000050  -0.002577  -0.005233   0.004795  -0.030399
    20  H    0.000034   0.000000   0.000000  -0.000003   0.000010  -0.000032
    21  H   -0.000007  -0.000001  -0.000000  -0.000000   0.000000  -0.000000
    22  H   -0.000161  -0.000031   0.000000   0.000000   0.000000   0.000000
    23  H    0.411423  -0.031415   0.000000   0.000003   0.000000  -0.000000
    24  H    0.409363  -0.031991  -0.000000  -0.000005  -0.000000  -0.000000
    25  H   -0.030994   0.404245   0.000001   0.000143   0.000001   0.000002
    26  H   -0.040743   0.411961   0.000000   0.000003  -0.000000   0.000000
    27  H   -0.031066   0.404317  -0.000001  -0.000012   0.000000  -0.000002
              19         20         21         22         23         24
     1  C   -0.030838   0.000030   0.000000  -0.000000  -0.000005   0.000004
     2  C    0.395807  -0.000199  -0.000000   0.000000   0.000009   0.000006
     3  O   -0.034793   0.000796   0.000001  -0.000000  -0.000071  -0.000033
     4  C    0.004853  -0.016842  -0.000283   0.000190   0.000224  -0.000139
     5  O    0.001256   0.020245  -0.000112  -0.000002   0.000000  -0.000001
     6  C    0.003448  -0.032979   0.010112   0.001022  -0.002377  -0.003169
     7  C    0.000002   0.419130  -0.058145   0.002968   0.000109   0.000235
     8  C   -0.000001  -0.043339   0.427518  -0.069435  -0.000233  -0.000244
     9  C   -0.000002   0.004035  -0.037604   0.430999   0.000848   0.000557
    10  N    0.000002  -0.001127   0.006513  -0.032957   0.012958   0.013110
    11  C   -0.000132   0.011260  -0.000566   0.003552  -0.008458  -0.009045
    12  O    0.000111  -0.000078   0.000045  -0.000097  -0.038875  -0.036203
    13  C    0.000066   0.000034  -0.000007  -0.000161   0.411423   0.409363
    14  C   -0.000050   0.000000  -0.000001  -0.000031  -0.031415  -0.031991
    15  H   -0.002577   0.000000  -0.000000   0.000000   0.000000  -0.000000
    16  H   -0.005233  -0.000003  -0.000000   0.000000   0.000003  -0.000005
    17  H    0.004795   0.000010   0.000000   0.000000   0.000000  -0.000000
    18  H   -0.030399  -0.000032  -0.000000   0.000000  -0.000000  -0.000000
    19  H    0.579240   0.000004   0.000000  -0.000000  -0.000003   0.000002
    20  H    0.000004   0.475268  -0.004876  -0.000208   0.000002   0.000004
    21  H    0.000000  -0.004876   0.527682  -0.001772  -0.000005  -0.000004
    22  H   -0.000000  -0.000208  -0.001772   0.537097  -0.000035  -0.000038
    23  H   -0.000003   0.000002  -0.000005  -0.000035   0.599385  -0.046478
    24  H    0.000002   0.000004  -0.000004  -0.000038  -0.046478   0.601758
    25  H    0.000005  -0.000000   0.000000   0.000000   0.007659  -0.008498
    26  H   -0.000002   0.000000  -0.000000   0.000001  -0.001739  -0.001687
    27  H    0.000062  -0.000000   0.000000   0.000000  -0.008453   0.007689
              25         26         27
     1  C   -0.000030  -0.000002   0.000025
     2  C    0.000001   0.000007  -0.000015
     3  O   -0.000002   0.000020   0.000082
     4  C    0.000060   0.000022   0.000014
     5  O   -0.000000   0.000000   0.000000
     6  C   -0.000382  -0.000068  -0.000334
     7  C   -0.000004  -0.000003  -0.000007
     8  C    0.000000  -0.000002   0.000001
     9  C   -0.000005   0.000016  -0.000008
    10  N   -0.000081   0.000177  -0.000084
    11  C   -0.000217   0.000356  -0.000219
    12  O    0.002025   0.004486   0.002295
    13  C   -0.030994  -0.040743  -0.031066
    14  C    0.404245   0.411961   0.404317
    15  H    0.000001   0.000000  -0.000001
    16  H    0.000143   0.000003  -0.000012
    17  H    0.000001  -0.000000   0.000000
    18  H    0.000002   0.000000  -0.000002
    19  H    0.000005  -0.000002   0.000062
    20  H   -0.000000   0.000000  -0.000000
    21  H    0.000000  -0.000000   0.000000
    22  H    0.000000   0.000001   0.000000
    23  H    0.007659  -0.001739  -0.008453
    24  H   -0.008498  -0.001687   0.007689
    25  H    0.558554  -0.022299  -0.026598
    26  H   -0.022299   0.554651  -0.022197
    27  H   -0.026598  -0.022197   0.556576
 Mulliken charges:
               1
     1  C   -0.372772
     2  C   -0.026054
     3  O   -0.247218
     4  C    0.397677
     5  O   -0.395304
     6  C   -0.070594
     7  C   -0.125923
     8  C   -0.129278
     9  C   -0.023503
    10  N   -0.330885
    11  C    0.324985
    12  O   -0.246355
    13  C   -0.042368
    14  C   -0.317804
    15  H    0.117528
    16  H    0.117515
    17  H    0.146347
    18  H    0.118630
    19  H    0.114377
    20  H    0.168865
    21  H    0.131504
    22  H    0.128906
    23  H    0.105526
    24  H    0.104806
    25  H    0.116414
    26  H    0.117042
    27  H    0.117936
 Sum of Mulliken charges =  -0.00000
 Mulliken charges with hydrogens summed into heavy atoms:
               1
     1  C    0.008618
     2  C    0.206954
     3  O   -0.247218
     4  C    0.397677
     5  O   -0.395304
     6  C   -0.070594
     7  C    0.042942
     8  C    0.002226
     9  C    0.105404
    10  N   -0.330885
    11  C    0.324985
    12  O   -0.246355
    13  C    0.167964
    14  C    0.033588
 Electronic spatial extent (au):  <R**2>=           3143.9046
 Charge=              0.0000 electrons
 Dipole moment (field-independent basis, Debye):
    X=             -0.4517    Y=              1.5705    Z=             -0.0697  Tot=              1.6356
 Quadrupole moment (field-independent basis, Debye-Ang):
   XX=            -74.2554   YY=            -78.8735   ZZ=            -82.7794
   XY=              7.2883   XZ=             -1.0473   YZ=             -0.0510
 Traceless Quadrupole moment (field-independent basis, Debye-Ang):
   XX=              4.3807   YY=             -0.2374   ZZ=             -4.1433
   XY=              7.2883   XZ=             -1.0473   YZ=             -0.0510
 Octapole moment (field-independent basis, Debye-Ang**2):
  XXX=             23.1731  YYY=             20.7802  ZZZ=             -3.3373  XYY=            -25.4881
  XXY=             -2.2182  XXZ=             -2.9845  XZZ=              9.4801  YZZ=              5.0334
  YYZ=             -0.2371  XYZ=              0.7228
 Hexadecapole moment (field-independent basis, Debye-Ang**3):
 XXXX=          -2148.5292 YYYY=          -1621.0436 ZZZZ=           -169.3565 XXXY=             59.4854
 XXXZ=            -27.1288 YYYX=             19.0603 YYYZ=             -1.4703 ZZZX=             -6.1970
 ZZZY=              0.7655 XXYY=           -665.0622 XXZZ=           -427.7498 YYZZ=           -315.4413
 XXYZ=             -6.3968 YYXZ=             -4.1699 ZZXY=            -15.0101
 N-N= 9.040076905107D+02 E-N=-3.371054228460D+03  KE= 6.660551096798D+02
 Breneman (CHELPG) radii used.
 Read replacement radii for each type of atom:
 Atom Element Radius
    1     6    1.50
    2     6    1.50
    3     8    1.70
    4     6    1.50
    5     8    1.70
    6     6    1.50
    7     6    1.50
    8     6    1.50
    9     6    1.50
   10     7    1.70
   11     6    1.50
   12     8    1.70
   13     6    1.50
   14     6    1.50
   15     1    1.45
   16     1    1.45
   17     1    1.45
   18     1    1.45
   19     1    1.45
   20     1    1.45
   21     1    1.45
   22     1    1.45
   23     1    1.45
   24     1    1.45
   25     1    1.45
   26     1    1.45
   27     1    1.45
 Generate Potential Derived Charges using the Breneman model, NDens= 1.
 Grid spacing= 0.300 Box extension= 2.800
 NStep X,Y,Z=   50     46     29   Total possible points=       66700
 Number of Points to Fit=   17250

 **********************************************************************

            Electrostatic Properties Using The SCF Density.

 **********************************************************************

       Atomic Center    1 is at   3.789721  0.081336  0.834730
       Atomic Center    2 is at   3.124651  0.039756 -0.527130
       Atomic Center    3 is at   1.701671  0.054428 -0.418610
       Atomic Center    4 is at   1.094590 -1.102651 -0.176520
       Atomic Center    5 is at   1.680598 -2.154822 -0.077520
       Atomic Center    6 is at  -0.393110 -1.002339 -0.062480
       Atomic Center    7 is at  -1.089812 -2.207418  0.003560
       Atomic Center    8 is at  -2.478532 -2.220297  0.102750
       Atomic Center    9 is at  -3.126530 -0.992316  0.137680
       Atomic Center   10 is at  -2.487549  0.174303  0.089820
       Atomic Center   11 is at  -1.165049  0.188912 -0.004050
       Atomic Center   12 is at  -0.550557  1.365091 -0.031260
       Atomic Center   13 is at  -1.334216  2.550022  0.031260
       Atomic Center   14 is at  -0.382314  3.723061 -0.023930
       Atomic Center   15 is at   4.880911  0.154054  0.716190
       Atomic Center   16 is at   3.444032  0.952946  1.409320
       Atomic Center   17 is at   3.566130 -0.832254  1.402690
       Atomic Center   18 is at   3.436310 -0.852794 -1.088970
       Atomic Center   19 is at   3.366392  0.935366 -1.114850
       Atomic Center   20 is at  -0.507983 -3.130709 -0.027300
       Atomic Center   21 is at  -3.039473 -3.153896  0.150210
       Atomic Center   22 is at  -4.218380 -0.939965  0.210190
       Atomic Center   23 is at  -2.049556  2.562453 -0.806340
       Atomic Center   24 is at  -1.930666  2.548813  0.957470
       Atomic Center   25 is at   0.319435  3.695870  0.822020
       Atomic Center   26 is at  -0.945313  4.666381  0.020250
       Atomic Center   27 is at   0.200915  3.707640 -0.955720
   17250 points will be used for fitting atomic charges
 Fitting point charges to electrostatic potential
 Charges from ESP fit, RMS=   0.00286 RRMS=   0.27074:
 ESP charges:
               1
     1  C   -0.201942
     2  C    0.317769
     3  O   -0.420874
     4  C    0.774543
     5  O   -0.534662
     6  C   -0.509778
     7  C    0.210181
     8  C   -0.400676
     9  C    0.356945
    10  N   -0.654890
    11  C    0.833395
    12  O   -0.495044
    13  C    0.450958
    14  C   -0.291121
    15  H    0.043785
    16  H    0.059838
    17  H    0.064638
    18  H   -0.013161
    19  H    0.007307
    20  H    0.067663
    21  H    0.144049
    22  H    0.038974
    23  H   -0.041044
    24  H   -0.041207
    25  H    0.091489
    26  H    0.052676
    27  H    0.090189
 Sum of ESP charges =   0.00000
 ESP charges with hydrogens summed into heavy atoms:
               1
     1  C   -0.033680
     2  C    0.311915
     3  O   -0.420874
     4  C    0.774543
     5  O   -0.534662
     6  C   -0.509778
     7  C    0.277843
     8  C   -0.256628
     9  C    0.395919
    10  N   -0.654890
    11  C    0.833395
    12  O   -0.495044
    13  C    0.368707
    14  C   -0.056767
 Charge=   0.00000 Dipole=    -0.4625     1.5407    -0.0769 Tot=     1.6104
 -----------------------------------------------------------------

              Electrostatic Properties (Atomic Units)

 -----------------------------------------------------------------
    Center     Electric         -------- Electric Field --------
               Potential          X             Y             Z
 -----------------------------------------------------------------
    1 Atom    -14.774572
    2 Atom    -14.712270
    3 Atom    -22.319227
    4 Atom    -14.641886
    5 Atom    -22.387570
    6 Atom    -14.745840
    7 Atom    -14.746616
    8 Atom    -14.763337
    9 Atom    -14.724266
   10 Atom    -18.396815
   11 Atom    -14.663125
   12 Atom    -22.321606
   13 Atom    -14.714061
   14 Atom    -14.772742
   15 Atom     -1.112319
   16 Atom     -1.118840
   17 Atom     -1.121165
   18 Atom     -1.115341
   19 Atom     -1.113178
   20 Atom     -1.093749
   21 Atom     -1.093583
   22 Atom     -1.097814
   23 Atom     -1.119316
   24 Atom     -1.119395
   25 Atom     -1.118309
   26 Atom     -1.111582
   27 Atom     -1.118474
 -----------------------------------------------------------------
 Unable to Open any file for archive entry.
 1\1\GINC-NOTCH345\SP\RwB97XD\def2TZVP\C10H13N1O3\U6053008\12-Jul-2024\
 0\\#N Guess=Read Geom=Check Integral(Ultrafine) Density Pop=(ChelpG,Re
 adRadii) NMR wB97XD def2TZVP\\12326832_3\\0,1\C,0,3.78972,0.08134,0.83
 473\C,0,3.12465,0.03976,-0.52713\O,0,1.70167,0.05443,-0.41861\C,0,1.09
 459,-1.10265,-0.17652\O,0,1.6806,-2.15482,-0.07752\C,0,-0.39311,-1.002
 34,-0.06248\C,0,-1.08981,-2.20742,0.00356\C,0,-2.47853,-2.2203,0.10275
 \C,0,-3.12653,-0.99232,0.13768\N,0,-2.48755,0.1743,0.08982\C,0,-1.1650
 5,0.18891,-0.00405\O,0,-0.55056,1.36509,-0.03126\C,0,-1.33422,2.55002,
 0.03126\C,0,-0.38232,3.72306,-0.02393\H,0,4.88091,0.15406,0.71619\H,0,
 3.44403,0.95295,1.40932\H,0,3.56613,-0.83225,1.40269\H,0,3.43631,-0.85
 279,-1.08897\H,0,3.36639,0.93537,-1.11485\H,0,-0.50798,-3.13071,-0.027
 3\H,0,-3.03947,-3.1539,0.15021\H,0,-4.21838,-0.93997,0.21019\H,0,-2.04
 956,2.56245,-0.80634\H,0,-1.93067,2.54881,0.95747\H,0,0.31943,3.69587,
 0.82202\H,0,-0.94532,4.66638,0.02025\H,0,0.20091,3.70764,-0.95572\\Ver
 sion=ES64L-G16RevC.01\State=1-A\HF=-669.3650664\RMSD=2.431e-09\Dipole=
 -0.1776946,0.6178773,-0.0274375\Quadrupole=3.2569637,-0.1765245,-3.080
 4392,5.4187085,-0.7786322,-0.0379248\PG=C01 [X(C10H13N1O3)]\\@
 The archive entry for this job was punched.


 MARY HAD A LITTLE LAMB
      HIS FEET WERE BLACK AS SOOT,
           AND EVERYWHERE THAT MARY WENT
                HIS SOOTY FOOT HE PUT.

                    -- NONAME
 Job cpu time:       0 days  1 hours  6 minutes 24.2 seconds.
 Elapsed time:       0 days  0 hours  4 minutes 22.1 seconds.
 File lengths (MBytes):  RWF=    165 Int=      0 D2E=      0 Chk=     25 Scr=      2
 Normal termination of Gaussian 16 at Fri Jul 12 13:29:36 2024.
