 Entering Gaussian System, Link 0=g16
 Input=12326832_10.com
 Output=12326832_10.log
 Initial command:
 /uufs/chpc.utah.edu/sys/installdir/gaussian16/C01/AVX/g16/l1.exe "/scratch/general/vast/u6053008/1287135-notchpeak.peaks/Gau-450416.inp" -scrdir="/scratch/general/vast/u6053008/1287135-notchpeak.peaks/"
 Entering Link 1 = /uufs/chpc.utah.edu/sys/installdir/gaussian16/C01/AVX/g16/l1.exe PID=    450417.
  
 Copyright (c) 1988-2019, Gaussian, Inc.  All Rights Reserved.
  
 This is part of the Gaussian(R) 16 program.  It is based on
 the Gaussian(R) 09 system (copyright 2009, Gaussian, Inc.),
 the Gaussian(R) 03 system (copyright 2003, Gaussian, Inc.),
 the Gaussian(R) 98 system (copyright 1998, Gaussian, Inc.),
 the Gaussian(R) 94 system (copyright 1995, Gaussian, Inc.),
 the Gaussian 92(TM) system (copyright 1992, Gaussian, Inc.),
 the Gaussian 90(TM) system (copyright 1990, Gaussian, Inc.),
 the Gaussian 88(TM) system (copyright 1988, Gaussian, Inc.),
 the Gaussian 86(TM) system (copyright 1986, Carnegie Mellon
 University), and the Gaussian 82(TM) system (copyright 1983,
 Carnegie Mellon University). Gaussian is a federally registered
 trademark of Gaussian, Inc.
  
 This software contains proprietary and confidential information,
 including trade secrets, belonging to Gaussian, Inc.
  
 This software is provided under written license and may be
 used, copied, transmitted, or stored only in accord with that
 written license.
  
 The following legend is applicable only to US Government
 contracts under FAR:
  
                    RESTRICTED RIGHTS LEGEND
  
 Use, reproduction and disclosure by the US Government is
 subject to restrictions as set forth in subparagraphs (a)
 and (c) of the Commercial Computer Software - Restricted
 Rights clause in FAR 52.227-19.
  
 Gaussian, Inc.
 340 Quinnipiac St., Bldg. 40, Wallingford CT 06492
  
  
 ---------------------------------------------------------------
 Warning -- This program may not be used in any manner that
 competes with the business of Gaussian, Inc. or will provide
 assistance to any competitor of Gaussian, Inc.  The licensee
 of this program is prohibited from giving any competitor of
 Gaussian, Inc. access to this program.  By using this program,
 the user acknowledges that Gaussian, Inc. is engaged in the
 business of creating and licensing software in the field of
 computational chemistry and represents and warrants to the
 licensee that it is not a competitor of Gaussian, Inc. and that
 it will not use this program in any manner prohibited above.
 ---------------------------------------------------------------
  

 Cite this work as:
 Gaussian 16, Revision C.01,
 M. J. Frisch, G. W. Trucks, H. B. Schlegel, G. E. Scuseria, 
 M. A. Robb, J. R. Cheeseman, G. Scalmani, V. Barone, 
 G. A. Petersson, H. Nakatsuji, X. Li, M. Caricato, A. V. Marenich, 
 J. Bloino, B. G. Janesko, R. Gomperts, B. Mennucci, H. P. Hratchian, 
 J. V. Ortiz, A. F. Izmaylov, J. L. Sonnenberg, D. Williams-Young, 
 F. Ding, F. Lipparini, F. Egidi, J. Goings, B. Peng, A. Petrone, 
 T. Henderson, D. Ranasinghe, V. G. Zakrzewski, J. Gao, N. Rega, 
 G. Zheng, W. Liang, M. Hada, M. Ehara, K. Toyota, R. Fukuda, 
 J. Hasegawa, M. Ishida, T. Nakajima, Y. Honda, O. Kitao, H. Nakai, 
 T. Vreven, K. Throssell, J. A. Montgomery, Jr., J. E. Peralta, 
 F. Ogliaro, M. J. Bearpark, J. J. Heyd, E. N. Brothers, K. N. Kudin, 
 V. N. Staroverov, T. A. Keith, R. Kobayashi, J. Normand, 
 K. Raghavachari, A. P. Rendell, J. C. Burant, S. S. Iyengar, 
 J. Tomasi, M. Cossi, J. M. Millam, M. Klene, C. Adamo, R. Cammi, 
 J. W. Ochterski, R. L. Martin, K. Morokuma, O. Farkas, 
 J. B. Foresman, and D. J. Fox, Gaussian, Inc., Wallingford CT, 2019.
 
 ******************************************
 Gaussian 16:  ES64L-G16RevC.01  3-Jul-2019
                12-Jul-2024 
 ******************************************
 %NProcShared=16
 Will use up to   16 processors via shared memory.
 %Mem=32GB
 %chk=12326832_10.chk
 ------------------------------------------------------
 #N OPT FREQ=NORAMAN Integral(Ultrafine) wB97XD def2SVP
 ------------------------------------------------------
 1/18=20,19=15,26=4,38=1/1,3;
 2/9=110,12=2,17=6,18=5,40=1/2;
 3/5=43,7=101,11=2,25=1,30=1,71=1,74=-58,75=-5/1,2,3;
 4//1;
 5/5=2,38=5/2;
 6/7=2,8=2,9=2,10=2,28=1/1;
 7//1,2,3,16;
 1/18=20,19=15,26=4/3(2);
 2/9=110/2;
 99//99;
 2/9=110/2;
 3/5=43,7=101,11=2,25=1,30=1,71=1,74=-58,75=-5/1,2,3;
 4/5=5,16=3,69=1/1;
 5/5=2,38=5/2;
 7//1,2,3,16;
 1/18=20,19=15,26=4/3(-5);
 2/9=110/2;
 6/7=2,8=2,9=2,10=2,19=2,28=1/1;
 99/9=1/99;
 -----------
 12326832_10
 -----------
 Symbolic Z-matrix:
 Charge =  0 Multiplicity = 1
 C                    -4.78045  -0.06998   0.09213 
 C                    -3.519    -0.90098   0.04826 
 O                    -2.40691  -0.01163   0.01221 
 C                    -1.18721  -0.57679  -0.02448 
 O                    -1.02692  -1.76755  -0.03602 
 C                    -0.11636   0.46363  -0.03842 
 C                    -0.4335    1.81318   0.11055 
 C                     0.56947   2.77976   0.11152 
 C                     1.87908   2.34305  -0.04118 
 N                     2.2115    1.06352  -0.1893 
 C                     1.25938   0.13993  -0.1943 
 O                     1.59791  -1.12914  -0.36662 
 C                     2.9702   -1.48268  -0.50926 
 C                     3.67301  -1.58127   0.83061 
 H                    -4.85604   0.57511  -0.79513 
 H                    -5.66166  -0.72684   0.1178 
 H                    -4.7994    0.56811   0.98753 
 H                    -3.48855  -1.55272  -0.83918 
 H                    -3.42923  -1.55689   0.92868 
 H                    -1.48088   2.09194   0.22768 
 H                     0.34061   3.83901   0.2304 
 H                     2.70827   3.05904  -0.04327 
 H                     2.94458  -2.45924  -1.01129 
 H                     3.47342  -0.75697  -1.16429 
 H                     3.14081  -2.2761    1.4963 
 H                     3.72881  -0.59572   1.31298 
 H                     4.69831  -1.95388   0.68771 
 

 GradGradGradGradGradGradGradGradGradGradGradGradGradGradGradGradGradGrad
 Berny optimization.
 Initialization pass.
                           ----------------------------
                           !    Initial Parameters    !
                           ! (Angstroms and Degrees)  !
 --------------------------                            --------------------------
 ! Name  Definition              Value          Derivative Info.                !
 --------------------------------------------------------------------------------
 ! R1    R(1,2)                  1.5112         estimate D2E/DX2                !
 ! R2    R(1,15)                 1.0996         estimate D2E/DX2                !
 ! R3    R(1,16)                 1.0994         estimate D2E/DX2                !
 ! R4    R(1,17)                 1.0997         estimate D2E/DX2                !
 ! R5    R(2,3)                  1.4244         estimate D2E/DX2                !
 ! R6    R(2,18)                 1.1015         estimate D2E/DX2                !
 ! R7    R(2,19)                 1.1016         estimate D2E/DX2                !
 ! R8    R(3,4)                  1.3448         estimate D2E/DX2                !
 ! R9    R(4,5)                  1.2016         estimate D2E/DX2                !
 ! R10   R(4,6)                  1.4931         estimate D2E/DX2                !
 ! R11   R(6,7)                  1.3943         estimate D2E/DX2                !
 ! R12   R(6,11)                 1.4219         estimate D2E/DX2                !
 ! R13   R(7,8)                  1.3929         estimate D2E/DX2                !
 ! R14   R(7,20)                 1.0902         estimate D2E/DX2                !
 ! R15   R(8,9)                  1.3889         estimate D2E/DX2                !
 ! R16   R(8,21)                 1.0902         estimate D2E/DX2                !
 ! R17   R(9,10)                 1.3303         estimate D2E/DX2                !
 ! R18   R(9,22)                 1.0955         estimate D2E/DX2                !
 ! R19   R(10,11)                1.3265         estimate D2E/DX2                !
 ! R20   R(11,12)                1.3247         estimate D2E/DX2                !
 ! R21   R(12,13)                1.4243         estimate D2E/DX2                !
 ! R22   R(13,14)                1.5162         estimate D2E/DX2                !
 ! R23   R(13,23)                1.0983         estimate D2E/DX2                !
 ! R24   R(13,24)                1.0995         estimate D2E/DX2                !
 ! R25   R(14,25)                1.0996         estimate D2E/DX2                !
 ! R26   R(14,26)                1.0987         estimate D2E/DX2                !
 ! R27   R(14,27)                1.1002         estimate D2E/DX2                !
 ! A1    A(2,1,15)             110.8892         estimate D2E/DX2                !
 ! A2    A(2,1,16)             109.9503         estimate D2E/DX2                !
 ! A3    A(2,1,17)             110.9223         estimate D2E/DX2                !
 ! A4    A(15,1,16)            108.3161         estimate D2E/DX2                !
 ! A5    A(15,1,17)            108.3861         estimate D2E/DX2                !
 ! A6    A(16,1,17)            108.2924         estimate D2E/DX2                !
 ! A7    A(1,2,3)              108.0053         estimate D2E/DX2                !
 ! A8    A(1,2,18)             111.8289         estimate D2E/DX2                !
 ! A9    A(1,2,19)             111.8546         estimate D2E/DX2                !
 ! A10   A(3,2,18)             109.1145         estimate D2E/DX2                !
 ! A11   A(3,2,19)             109.17           estimate D2E/DX2                !
 ! A12   A(18,2,19)            106.8204         estimate D2E/DX2                !
 ! A13   A(2,3,4)              116.5136         estimate D2E/DX2                !
 ! A14   A(3,4,5)              122.5302         estimate D2E/DX2                !
 ! A15   A(3,4,6)              110.9711         estimate D2E/DX2                !
 ! A16   A(5,4,6)              126.4975         estimate D2E/DX2                !
 ! A17   A(4,6,7)              120.6854         estimate D2E/DX2                !
 ! A18   A(4,6,11)             122.4328         estimate D2E/DX2                !
 ! A19   A(7,6,11)             116.881          estimate D2E/DX2                !
 ! A20   A(6,7,8)              120.5274         estimate D2E/DX2                !
 ! A21   A(6,7,20)             118.5231         estimate D2E/DX2                !
 ! A22   A(8,7,20)             120.9494         estimate D2E/DX2                !
 ! A23   A(7,8,9)              117.4302         estimate D2E/DX2                !
 ! A24   A(7,8,21)             121.5436         estimate D2E/DX2                !
 ! A25   A(9,8,21)             121.0259         estimate D2E/DX2                !
 ! A26   A(8,9,10)             123.3867         estimate D2E/DX2                !
 ! A27   A(8,9,22)             120.5557         estimate D2E/DX2                !
 ! A28   A(10,9,22)            116.0575         estimate D2E/DX2                !
 ! A29   A(9,10,11)            119.3906         estimate D2E/DX2                !
 ! A30   A(6,11,10)            122.3819         estimate D2E/DX2                !
 ! A31   A(6,11,12)            118.6603         estimate D2E/DX2                !
 ! A32   A(10,11,12)           118.9527         estimate D2E/DX2                !
 ! A33   A(11,12,13)           119.8055         estimate D2E/DX2                !
 ! A34   A(12,13,14)           111.9782         estimate D2E/DX2                !
 ! A35   A(12,13,23)           104.1231         estimate D2E/DX2                !
 ! A36   A(12,13,24)           109.682          estimate D2E/DX2                !
 ! A37   A(14,13,23)           110.9109         estimate D2E/DX2                !
 ! A38   A(14,13,24)           110.9299         estimate D2E/DX2                !
 ! A39   A(23,13,24)           108.9786         estimate D2E/DX2                !
 ! A40   A(13,14,25)           110.5924         estimate D2E/DX2                !
 ! A41   A(13,14,26)           110.6828         estimate D2E/DX2                !
 ! A42   A(13,14,27)           109.8286         estimate D2E/DX2                !
 ! A43   A(25,14,26)           109.0024         estimate D2E/DX2                !
 ! A44   A(25,14,27)           108.4004         estimate D2E/DX2                !
 ! A45   A(26,14,27)           108.2696         estimate D2E/DX2                !
 ! D1    D(15,1,2,3)            60.0747         estimate D2E/DX2                !
 ! D2    D(15,1,2,18)          -59.9984         estimate D2E/DX2                !
 ! D3    D(15,1,2,19)         -179.768          estimate D2E/DX2                !
 ! D4    D(16,1,2,3)           179.8353         estimate D2E/DX2                !
 ! D5    D(16,1,2,18)           59.7622         estimate D2E/DX2                !
 ! D6    D(16,1,2,19)          -60.0075         estimate D2E/DX2                !
 ! D7    D(17,1,2,3)           -60.4126         estimate D2E/DX2                !
 ! D8    D(17,1,2,18)          179.5143         estimate D2E/DX2                !
 ! D9    D(17,1,2,19)           59.7447         estimate D2E/DX2                !
 ! D10   D(1,2,3,4)            179.7458         estimate D2E/DX2                !
 ! D11   D(18,2,3,4)           -58.4891         estimate D2E/DX2                !
 ! D12   D(19,2,3,4)            57.9163         estimate D2E/DX2                !
 ! D13   D(2,3,4,5)              0.4965         estimate D2E/DX2                !
 ! D14   D(2,3,4,6)           -179.1327         estimate D2E/DX2                !
 ! D15   D(3,4,6,7)              5.9878         estimate D2E/DX2                !
 ! D16   D(3,4,6,11)          -174.3485         estimate D2E/DX2                !
 ! D17   D(5,4,6,7)           -173.6233         estimate D2E/DX2                !
 ! D18   D(5,4,6,11)             6.0404         estimate D2E/DX2                !
 ! D19   D(4,6,7,8)            179.3032         estimate D2E/DX2                !
 ! D20   D(4,6,7,20)            -0.5799         estimate D2E/DX2                !
 ! D21   D(11,6,7,8)            -0.3786         estimate D2E/DX2                !
 ! D22   D(11,6,7,20)          179.7383         estimate D2E/DX2                !
 ! D23   D(4,6,11,10)         -179.111          estimate D2E/DX2                !
 ! D24   D(4,6,11,12)            1.7182         estimate D2E/DX2                !
 ! D25   D(7,6,11,10)            0.5648         estimate D2E/DX2                !
 ! D26   D(7,6,11,12)         -178.6061         estimate D2E/DX2                !
 ! D27   D(6,7,8,9)              0.0349         estimate D2E/DX2                !
 ! D28   D(6,7,8,21)          -179.7749         estimate D2E/DX2                !
 ! D29   D(20,7,8,9)           179.9151         estimate D2E/DX2                !
 ! D30   D(20,7,8,21)            0.1054         estimate D2E/DX2                !
 ! D31   D(7,8,9,10)             0.1761         estimate D2E/DX2                !
 ! D32   D(7,8,9,22)          -179.7203         estimate D2E/DX2                !
 ! D33   D(21,8,9,10)          179.9868         estimate D2E/DX2                !
 ! D34   D(21,8,9,22)            0.0904         estimate D2E/DX2                !
 ! D35   D(8,9,10,11)           -0.0059         estimate D2E/DX2                !
 ! D36   D(22,9,10,11)         179.8948         estimate D2E/DX2                !
 ! D37   D(9,10,11,6)           -0.3777         estimate D2E/DX2                !
 ! D38   D(9,10,11,12)         178.7908         estimate D2E/DX2                !
 ! D39   D(6,11,12,13)        -179.2518         estimate D2E/DX2                !
 ! D40   D(10,11,12,13)          1.5485         estimate D2E/DX2                !
 ! D41   D(11,12,13,14)         81.4069         estimate D2E/DX2                !
 ! D42   D(11,12,13,23)       -158.697          estimate D2E/DX2                !
 ! D43   D(11,12,13,24)        -42.1995         estimate D2E/DX2                !
 ! D44   D(12,13,14,25)         54.6911         estimate D2E/DX2                !
 ! D45   D(12,13,14,26)        -66.2154         estimate D2E/DX2                !
 ! D46   D(12,13,14,27)        174.2905         estimate D2E/DX2                !
 ! D47   D(23,13,14,25)        -61.1503         estimate D2E/DX2                !
 ! D48   D(23,13,14,26)        177.9432         estimate D2E/DX2                !
 ! D49   D(23,13,14,27)         58.4491         estimate D2E/DX2                !
 ! D50   D(24,13,14,25)        177.5932         estimate D2E/DX2                !
 ! D51   D(24,13,14,26)         56.6867         estimate D2E/DX2                !
 ! D52   D(24,13,14,27)        -62.8074         estimate D2E/DX2                !
 --------------------------------------------------------------------------------
 Trust Radius=3.00D-01 FncErr=1.00D-07 GrdErr=1.00D-06 EigMax=2.50D+02 EigMin=1.00D-04
 Number of steps in this run=    134 maximum allowed number of steps=    162.
 GradGradGradGradGradGradGradGradGradGradGradGradGradGradGradGradGradGrad

                          Input orientation:                          
 ---------------------------------------------------------------------
 Center     Atomic      Atomic             Coordinates (Angstroms)
 Number     Number       Type             X           Y           Z
 ---------------------------------------------------------------------
      1          6           0       -4.780450   -0.069980    0.092130
      2          6           0       -3.519000   -0.900980    0.048260
      3          8           0       -2.406910   -0.011630    0.012210
      4          6           0       -1.187210   -0.576790   -0.024480
      5          8           0       -1.026920   -1.767550   -0.036020
      6          6           0       -0.116360    0.463630   -0.038420
      7          6           0       -0.433500    1.813180    0.110550
      8          6           0        0.569470    2.779760    0.111520
      9          6           0        1.879080    2.343050   -0.041180
     10          7           0        2.211500    1.063520   -0.189300
     11          6           0        1.259380    0.139930   -0.194300
     12          8           0        1.597910   -1.129140   -0.366620
     13          6           0        2.970200   -1.482680   -0.509260
     14          6           0        3.673010   -1.581270    0.830610
     15          1           0       -4.856040    0.575110   -0.795130
     16          1           0       -5.661660   -0.726840    0.117800
     17          1           0       -4.799400    0.568110    0.987530
     18          1           0       -3.488550   -1.552720   -0.839180
     19          1           0       -3.429230   -1.556890    0.928680
     20          1           0       -1.480880    2.091940    0.227680
     21          1           0        0.340610    3.839010    0.230400
     22          1           0        2.708270    3.059040   -0.043270
     23          1           0        2.944580   -2.459240   -1.011290
     24          1           0        3.473420   -0.756970   -1.164290
     25          1           0        3.140810   -2.276100    1.496300
     26          1           0        3.728810   -0.595720    1.312980
     27          1           0        4.698310   -1.953880    0.687710
 ---------------------------------------------------------------------
                    Distance matrix (angstroms):
                    1          2          3          4          5
     1  C    0.000000
     2  C    1.511205   0.000000
     3  O    2.375602   1.424425   0.000000
     4  C    3.630679   2.355342   1.344775   0.000000
     5  O    4.121547   2.639793   2.233820   1.201555   0.000000
     6  C    4.696330   3.667101   2.339883   1.493113   2.409832
     7  C    4.737363   4.109849   2.689600   2.509635   3.632528
     8  C    6.061604   5.501585   4.081735   3.790890   4.821645
     9  C    7.084478   6.298492   4.890509   4.234133   5.034073
    10  N    7.088821   6.062535   4.746184   3.777435   4.304163
    11  C    6.050260   4.896452   3.675228   2.555059   2.981728
    12  O    6.481956   5.138769   4.175036   2.859903   2.721506
    13  C    7.901264   6.539031   5.599038   4.282488   4.035105
    14  C    8.619184   7.266352   6.332375   5.036060   4.782791
    15  H    1.099584   2.162828   2.644674   3.921873   4.552633
    16  H    1.099388   2.150849   3.334077   4.479226   4.752636
    17  H    1.099663   2.163303   2.647897   3.922101   4.553523
    18  H    2.175974   1.101473   2.066342   2.629133   2.598238
    19  H    2.176353   1.101552   2.067096   2.625979   2.597329
    20  H    3.947079   3.625423   2.308455   2.696655   3.895033
    21  H    6.443957   6.115331   4.735388   4.679582   5.777078
    22  H    8.117267   7.380314   5.966335   5.328637   6.103087
    23  H    8.161016   6.732658   5.973005   4.646407   4.147577
    24  H    8.377166   7.098236   6.043010   4.801365   4.748402
    25  H    8.341764   6.952758   6.173131   4.892053   4.469519
    26  H    8.612455   7.363657   6.299224   5.094743   5.080350
    27  H    9.682494   8.309132   7.396809   6.086291   5.773800
                    6          7          8          9         10
     6  C    0.000000
     7  C    1.394294   0.000000
     8  C    2.420187   1.392920   0.000000
     9  C    2.741169   2.377354   1.388924   0.000000
    10  N    2.408644   2.765488   2.394209   1.330278   0.000000
    11  C    1.421879   2.399696   2.745579   2.293733   1.326490
    12  O    2.362912   3.607155   4.070111   3.498724   2.283789
    13  C    3.679221   4.778287   4.931254   4.005727   2.676030
    14  C    4.392739   5.376263   5.400707   4.402101   3.189223
    15  H    4.801000   4.681018   5.926099   7.003991   7.110253
    16  H    5.673797   5.812522   7.150053   8.143234   8.079997
    17  H    4.795243   4.623892   5.872270   6.986469   7.126225
    18  H    4.009807   4.643770   6.011800   6.680216   6.305365
    19  H    3.999111   4.582696   5.955156   6.657951   6.319356
    20  H    2.141055   1.090152   2.165762   3.380040   3.855540
    21  H    3.416764   2.172003   1.090193   2.162994   3.373384
    22  H    3.835976   3.383275   2.162504   1.095537   2.061603
    23  H    4.342695   5.560892   5.860800   5.013820   3.690923
    24  H    3.955246   4.847155   4.750692   3.662434   2.420172
    25  H    4.524449   5.605195   5.838761   5.029150   3.854598
    26  H    4.211156   4.957163   4.776903   3.727146   2.704099
    27  H    5.436236   6.392130   6.307667   5.190659   4.007253
                   11         12         13         14         15
    11  C    0.000000
    12  O    1.324702   0.000000
    13  C    2.378859   1.424260   0.000000
    14  C    3.136651   2.437995   1.516217   0.000000
    15  H    6.160255   6.688913   8.097299   8.946379   0.000000
    16  H    6.982084   7.286828   8.687549   9.400756   1.782565
    17  H    6.187801   6.755735   8.173910   8.742207   1.783573
    18  H    5.081710   5.125896   6.467550   7.353704   2.529749
    19  H    5.111100   5.208926   6.559412   7.102959   3.090749
    20  H    3.390787   4.495275   5.756136   6.357561   3.839091
    21  H    3.835062   5.159433   5.981825   6.390976   6.221730
    22  H    3.262406   4.344917   4.573071   4.819426   7.997124
    23  H    3.203601   1.999571   1.098344   2.166573   8.372794
    24  H    2.578233   2.071793   1.099522   2.167702   8.443377
    25  H    3.497872   2.677037   2.163537   1.099622   8.793728
    26  H    2.985156   2.765199   2.163965   1.098683   8.917097
    27  H    4.121677   3.377024   2.154328   1.100227   9.994009
                   16         17         18         19         20
    16  H    0.000000
    17  H    1.782363   0.000000
    18  H    2.514020   3.090812   0.000000
    19  H    2.515999   2.529121   1.768860   0.000000
    20  H    5.043463   3.729880   4.295634   4.195406   0.000000
    21  H    7.542341   6.139360   6.699046   6.619292   2.523903
    22  H    9.187740   7.976991   7.765461   7.740827   4.307862
    23  H    8.851182   8.551570   6.498966   6.723331   6.467842
    24  H    9.224660   8.650186   7.014837   7.257201   5.882088
    25  H    9.043448   8.449575   7.065845   6.633617   6.484535
    26  H    9.467131   8.613407   7.591965   7.232501   5.961733
    27  H   10.447938   9.831420   8.337685   8.140797   7.400181
                   21         22         23         24         25
    21  H    0.000000
    22  H    2.507800   0.000000
    23  H    6.927511   5.607523   0.000000
    24  H    5.734343   4.050194   1.789079   0.000000
    25  H    6.843843   5.569658   2.521915   3.081741   0.000000
    26  H    5.684955   4.029663   3.080577   2.495615   1.789700
    27  H    7.263350   5.442790   2.493503   2.522470   1.784222
                   26         27
    26  H    0.000000
    27  H    1.781991   0.000000
 Stoichiometry    C10H13NO3
 Framework group  C1[X(C10H13NO3)]
 Deg. of freedom    75
 Full point group                 C1      NOp   1
 Largest Abelian subgroup         C1      NOp   1
 Largest concise Abelian subgroup C1      NOp   1
                         Standard orientation:                         
 ---------------------------------------------------------------------
 Center     Atomic      Atomic             Coordinates (Angstroms)
 Number     Number       Type             X           Y           Z
 ---------------------------------------------------------------------
      1          6           0       -4.780449   -0.069982    0.092130
      2          6           0       -3.518999   -0.900981    0.048260
      3          8           0       -2.406909   -0.011631    0.012210
      4          6           0       -1.187209   -0.576791   -0.024480
      5          8           0       -1.026919   -1.767551   -0.036020
      6          6           0       -0.116359    0.463630   -0.038420
      7          6           0       -0.433500    1.813180    0.110550
      8          6           0        0.569470    2.779760    0.111520
      9          6           0        1.879080    2.343050   -0.041180
     10          7           0        2.211501    1.063520   -0.189300
     11          6           0        1.259381    0.139930   -0.194300
     12          8           0        1.597911   -1.129140   -0.366620
     13          6           0        2.970201   -1.482679   -0.509260
     14          6           0        3.673011   -1.581269    0.830610
     15          1           0       -4.856039    0.575108   -0.795130
     16          1           0       -5.661659   -0.726842    0.117800
     17          1           0       -4.799399    0.568108    0.987530
     18          1           0       -3.488549   -1.552721   -0.839180
     19          1           0       -3.429229   -1.556891    0.928680
     20          1           0       -1.480880    2.091939    0.227680
     21          1           0        0.340610    3.839010    0.230400
     22          1           0        2.708270    3.059041   -0.043270
     23          1           0        2.944582   -2.459239   -1.011290
     24          1           0        3.473421   -0.756969   -1.164290
     25          1           0        3.140812   -2.276099    1.496300
     26          1           0        3.728811   -0.595719    1.312980
     27          1           0        4.698311   -1.953879    0.687710
 ---------------------------------------------------------------------
 Rotational constants (GHZ):           1.1670628           0.4212864           0.3193825
 Standard basis: def2SVP (5D, 7F)
 There are   275 symmetry adapted cartesian basis functions of A   symmetry.
 There are   261 symmetry adapted basis functions of A   symmetry.
   261 basis functions,   441 primitive gaussians,   275 cartesian basis functions
    52 alpha electrons       52 beta electrons
       nuclear repulsion energy       893.9404119939 Hartrees.
 NAtoms=   27 NActive=   27 NUniq=   27 SFac= 1.00D+00 NAtFMM=   60 NAOKFM=F Big=F
 Integral buffers will be    131072 words long.
 Raffenetti 2 integral format.
 Two-electron integral symmetry is turned on.
 Nuclear repulsion after empirical dispersion term =      893.9261558924 Hartrees.
 One-electron integrals computed using PRISM.
   1 Symmetry operations used in ECPInt.
 ECPInt:  NShTT=    7626 NPrTT=   27482 LenC2=    7067 LenP2D=   18413.
 LDataN:  DoStor=T MaxTD1= 4 Len=   56
 NBasis=   261 RedAO= T EigKep=  6.15D-04  NBF=   261
 NBsUse=   261 1.00D-06 EigRej= -1.00D+00 NBFU=   261
 ExpMin= 1.22D-01 ExpMax= 2.27D+03 ExpMxC= 3.41D+02 IAcc=3 IRadAn=         5 AccDes= 0.00D+00
 Harris functional with IExCor= 4639 and IRadAn=       5 diagonalized for initial guess.
 HarFok:  IExCor= 4639 AccDes= 0.00D+00 IRadAn=         5 IDoV= 1 UseB2=F ITyADJ=14
 ICtDFT=  3500011 ScaDFX=  1.000000  1.000000  1.000000  1.000000
 FoFCou: FMM=F IPFlag=           0 FMFlag=      100000 FMFlg1=           0
         NFxFlg=           0 DoJE=T BraDBF=F KetDBF=T FulRan=T
         wScrn=  0.000000 ICntrl=       500 IOpCl=  0 I1Cent=   200000004 NGrid=           0
         NMat0=    1 NMatS0=      1 NMatT0=    0 NMatD0=    1 NMtDS0=    0 NMtDT0=    0
 Petite list used in FoFCou.
 Requested convergence on RMS density matrix=1.00D-08 within 128 cycles.
 Requested convergence on MAX density matrix=1.00D-06.
 Requested convergence on             energy=1.00D-06.
 No special actions if energy rises.
 Integral accuracy reduced to 1.0D-05 until final iterations.
 Initial convergence to 1.0D-05 achieved.  Increase integral accuracy.
 SCF Done:  E(RwB97XD) =  -668.629372598     A.U. after   16 cycles
            NFock= 16  Conv=0.54D-08     -V/T= 2.0098

 **********************************************************************

            Population analysis using the SCF Density.

 **********************************************************************

 Orbital symmetries:
       Occupied  (A) (A) (A) (A) (A) (A) (A) (A) (A) (A) (A) (A)
                 (A) (A) (A) (A) (A) (A) (A) (A) (A) (A) (A) (A)
                 (A) (A) (A) (A) (A) (A) (A) (A) (A) (A) (A) (A)
                 (A) (A) (A) (A) (A) (A) (A) (A) (A) (A) (A) (A)
                 (A) (A) (A) (A)
       Virtual   (A) (A) (A) (A) (A) (A) (A) (A) (A) (A) (A) (A)
                 (A) (A) (A) (A) (A) (A) (A) (A) (A) (A) (A) (A)
                 (A) (A) (A) (A) (A) (A) (A) (A) (A) (A) (A) (A)
                 (A) (A) (A) (A) (A) (A) (A) (A) (A) (A) (A) (A)
                 (A) (A) (A) (A) (A) (A) (A) (A) (A) (A) (A) (A)
                 (A) (A) (A) (A) (A) (A) (A) (A) (A) (A) (A) (A)
                 (A) (A) (A) (A) (A) (A) (A) (A) (A) (A) (A) (A)
                 (A) (A) (A) (A) (A) (A) (A) (A) (A) (A) (A) (A)
                 (A) (A) (A) (A) (A) (A) (A) (A) (A) (A) (A) (A)
                 (A) (A) (A) (A) (A) (A) (A) (A) (A) (A) (A) (A)
                 (A) (A) (A) (A) (A) (A) (A) (A) (A) (A) (A) (A)
                 (A) (A) (A) (A) (A) (A) (A) (A) (A) (A) (A) (A)
                 (A) (A) (A) (A) (A) (A) (A) (A) (A) (A) (A) (A)
                 (A) (A) (A) (A) (A) (A) (A) (A) (A) (A) (A) (A)
                 (A) (A) (A) (A) (A) (A) (A) (A) (A) (A) (A) (A)
                 (A) (A) (A) (A) (A) (A) (A) (A) (A) (A) (A) (A)
                 (A) (A) (A) (A) (A) (A) (A) (A) (A) (A) (A) (A)
                 (A) (A) (A) (A) (A)
 The electronic state is 1-A.
 Alpha  occ. eigenvalues --  -19.29656 -19.28914 -19.23553 -14.44316 -10.42543
 Alpha  occ. eigenvalues --  -10.40488 -10.35435 -10.34886 -10.34705 -10.32906
 Alpha  occ. eigenvalues --  -10.32002 -10.30863 -10.29973 -10.28794  -1.19968
 Alpha  occ. eigenvalues --   -1.17972  -1.10306  -1.04216  -0.91818  -0.88061
 Alpha  occ. eigenvalues --   -0.86846  -0.83615  -0.76768  -0.75119  -0.72468
 Alpha  occ. eigenvalues --   -0.68817  -0.66381  -0.63291  -0.61145  -0.60104
 Alpha  occ. eigenvalues --   -0.58671  -0.56332  -0.55743  -0.54927  -0.53414
 Alpha  occ. eigenvalues --   -0.51432  -0.50251  -0.49344  -0.48879  -0.48098
 Alpha  occ. eigenvalues --   -0.47984  -0.46659  -0.45385  -0.44518  -0.43363
 Alpha  occ. eigenvalues --   -0.41802  -0.41284  -0.38262  -0.37337  -0.36125
 Alpha  occ. eigenvalues --   -0.34540  -0.31507
 Alpha virt. eigenvalues --    0.01370   0.05781   0.12832   0.14122   0.15401
 Alpha virt. eigenvalues --    0.16332   0.18725   0.19349   0.19534   0.19687
 Alpha virt. eigenvalues --    0.20399   0.21054   0.21404   0.22271   0.23633
 Alpha virt. eigenvalues --    0.23942   0.24646   0.24888   0.25398   0.28842
 Alpha virt. eigenvalues --    0.30191   0.31134   0.32374   0.34511   0.35250
 Alpha virt. eigenvalues --    0.37175   0.37517   0.40417   0.44520   0.46108
 Alpha virt. eigenvalues --    0.47976   0.50035   0.50088   0.51245   0.51713
 Alpha virt. eigenvalues --    0.51924   0.52219   0.53308   0.53747   0.55537
 Alpha virt. eigenvalues --    0.56221   0.57139   0.58376   0.60243   0.61899
 Alpha virt. eigenvalues --    0.63327   0.64939   0.66260   0.67719   0.69424
 Alpha virt. eigenvalues --    0.69505   0.70245   0.71101   0.71670   0.72836
 Alpha virt. eigenvalues --    0.73491   0.73988   0.74222   0.74733   0.75493
 Alpha virt. eigenvalues --    0.76044   0.76506   0.77280   0.77450   0.77936
 Alpha virt. eigenvalues --    0.77956   0.79519   0.79676   0.80129   0.81136
 Alpha virt. eigenvalues --    0.81876   0.82238   0.84880   0.87122   0.87748
 Alpha virt. eigenvalues --    0.90367   0.96680   0.97078   0.99632   1.00941
 Alpha virt. eigenvalues --    1.01731   1.06828   1.09728   1.10827   1.12388
 Alpha virt. eigenvalues --    1.13439   1.17508   1.18577   1.20056   1.22181
 Alpha virt. eigenvalues --    1.24755   1.27510   1.30651   1.31118   1.31891
 Alpha virt. eigenvalues --    1.33536   1.33944   1.36573   1.41059   1.41433
 Alpha virt. eigenvalues --    1.42182   1.44154   1.44494   1.48409   1.49107
 Alpha virt. eigenvalues --    1.53411   1.54822   1.58455   1.61119   1.62111
 Alpha virt. eigenvalues --    1.63139   1.65600   1.67340   1.68284   1.70690
 Alpha virt. eigenvalues --    1.75113   1.77906   1.78675   1.79184   1.80549
 Alpha virt. eigenvalues --    1.82771   1.83450   1.83635   1.84305   1.84986
 Alpha virt. eigenvalues --    1.85406   1.85697   1.87956   1.88467   1.88543
 Alpha virt. eigenvalues --    1.89296   1.89677   1.89765   1.92013   1.94439
 Alpha virt. eigenvalues --    1.94968   1.96095   1.97350   1.99437   2.00284
 Alpha virt. eigenvalues --    2.01622   2.02080   2.04864   2.06218   2.07410
 Alpha virt. eigenvalues --    2.10593   2.11562   2.13041   2.14700   2.17905
 Alpha virt. eigenvalues --    2.19250   2.21878   2.24519   2.25354   2.27349
 Alpha virt. eigenvalues --    2.28848   2.31650   2.32497   2.36724   2.41221
 Alpha virt. eigenvalues --    2.44982   2.45283   2.48058   2.48304   2.49143
 Alpha virt. eigenvalues --    2.50525   2.51608   2.55381   2.55499   2.59761
 Alpha virt. eigenvalues --    2.62754   2.63064   2.63974   2.65320   2.71978
 Alpha virt. eigenvalues --    2.72930   2.76801   2.77637   2.80020   2.80861
 Alpha virt. eigenvalues --    2.82444   2.83963   2.89696   2.90705   2.93226
 Alpha virt. eigenvalues --    2.93340   2.96088   2.98167   3.00784   3.02207
 Alpha virt. eigenvalues --    3.03342   3.05271   3.06255   3.07191   3.09100
 Alpha virt. eigenvalues --    3.11633   3.13348   3.18778   3.19748   3.22611
 Alpha virt. eigenvalues --    3.29008   3.31931   3.34877   3.51976   3.56006
 Alpha virt. eigenvalues --    3.63592   3.69718   3.79149   3.84506
          Condensed to atoms (all electrons):
               1          2          3          4          5          6
     1  C    4.598555   0.410032  -0.045404   0.006122   0.001536   0.001167
     2  C    0.410032   4.479069   0.257130  -0.033891  -0.002370   0.009719
     3  O   -0.045404   0.257130   7.993658   0.414512  -0.083542  -0.167277
     4  C    0.006122  -0.033891   0.414512   4.548593   0.748862   0.111992
     5  O    0.001536  -0.002370  -0.083542   0.748862   7.641698  -0.109849
     6  C    0.001167   0.009719  -0.167277   0.111992  -0.109849   5.886984
     7  C   -0.000539  -0.000402   0.014827  -0.045938   0.003392   0.431467
     8  C   -0.000002  -0.000014   0.000904   0.012719  -0.000030   0.003417
     9  C   -0.000000   0.000000  -0.000001   0.000122   0.000008  -0.069918
    10  N   -0.000000   0.000002  -0.000008   0.006333   0.000042  -0.092244
    11  C    0.000018   0.000032   0.000369  -0.043892   0.004991   0.328319
    12  O    0.000000   0.000012  -0.000012   0.010670  -0.006890  -0.116389
    13  C    0.000000  -0.000000   0.000002  -0.000081   0.000274   0.005672
    14  C    0.000000   0.000000  -0.000000  -0.000017  -0.000076  -0.001183
    15  H    0.388982  -0.018109   0.001807  -0.000127  -0.000037  -0.000148
    16  H    0.382145  -0.013817   0.003220   0.000012   0.000025   0.000008
    17  H    0.389001  -0.018059   0.001628  -0.000148  -0.000039  -0.000188
    18  H   -0.026831   0.398104  -0.028748  -0.003827   0.008668   0.000298
    19  H   -0.027316   0.398173  -0.029469  -0.003666   0.008659   0.001082
    20  H   -0.000345  -0.000693   0.016405  -0.022432   0.000277  -0.044450
    21  H   -0.000000   0.000001  -0.000024  -0.000166   0.000000   0.010930
    22  H    0.000000   0.000000  -0.000000   0.000080  -0.000000   0.001091
    23  H   -0.000000  -0.000000   0.000000  -0.000208   0.000178   0.000432
    24  H    0.000000   0.000000   0.000000   0.000029  -0.000028   0.000237
    25  H    0.000000   0.000000   0.000000   0.000089   0.000029  -0.000396
    26  H   -0.000000  -0.000000   0.000000  -0.000097   0.000006   0.000377
    27  H    0.000000   0.000000   0.000000   0.000001   0.000000   0.000033
               7          8          9         10         11         12
     1  C   -0.000539  -0.000002  -0.000000  -0.000000   0.000018   0.000000
     2  C   -0.000402  -0.000014   0.000000   0.000002   0.000032   0.000012
     3  O    0.014827   0.000904  -0.000001  -0.000008   0.000369  -0.000012
     4  C   -0.045938   0.012719   0.000122   0.006333  -0.043892   0.010670
     5  O    0.003392  -0.000030   0.000008   0.000042   0.004991  -0.006890
     6  C    0.431467   0.003417  -0.069918  -0.092244   0.328319  -0.116389
     7  C    4.817649   0.408053   0.000660  -0.038498  -0.053976  -0.000023
     8  C    0.408053   5.012677   0.439197  -0.043112  -0.066809   0.000439
     9  C    0.000660   0.439197   4.707371   0.511489  -0.035237   0.001797
    10  N   -0.038498  -0.043112   0.511489   6.408144   0.530185  -0.083646
    11  C   -0.053976  -0.066809  -0.035237   0.530185   4.721762   0.461342
    12  O   -0.000023   0.000439   0.001797  -0.083646   0.461342   7.844055
    13  C   -0.000273   0.000031   0.000266  -0.009558  -0.040261   0.271090
    14  C    0.000008  -0.000072  -0.000273  -0.010989  -0.006587  -0.041363
    15  H    0.000021  -0.000000   0.000000  -0.000000  -0.000002   0.000000
    16  H    0.000006   0.000000   0.000000   0.000000  -0.000000   0.000000
    17  H    0.000007   0.000003   0.000000  -0.000000   0.000001  -0.000000
    18  H    0.000090   0.000007  -0.000000  -0.000000   0.000025  -0.000003
    19  H   -0.000005   0.000003  -0.000000  -0.000000  -0.000034  -0.000000
    20  H    0.439609  -0.056679   0.009081  -0.000100   0.011022  -0.000055
    21  H   -0.053369   0.424920  -0.045677   0.005232   0.001100   0.000014
    22  H    0.006290  -0.066400   0.421511  -0.038804   0.004286  -0.000079
    23  H    0.000032   0.000002   0.000030   0.000405   0.004842  -0.025420
    24  H    0.000009   0.000087   0.000483   0.026733  -0.013656  -0.025474
    25  H   -0.000011   0.000002  -0.000001   0.000407   0.000013   0.001567
    26  H    0.000114   0.000098   0.000403   0.011996   0.003993  -0.004701
    27  H   -0.000001   0.000001   0.000006  -0.000043   0.000198   0.003704
              13         14         15         16         17         18
     1  C    0.000000   0.000000   0.388982   0.382145   0.389001  -0.026831
     2  C   -0.000000   0.000000  -0.018109  -0.013817  -0.018059   0.398104
     3  O    0.000002  -0.000000   0.001807   0.003220   0.001628  -0.028748
     4  C   -0.000081  -0.000017  -0.000127   0.000012  -0.000148  -0.003827
     5  O    0.000274  -0.000076  -0.000037   0.000025  -0.000039   0.008668
     6  C    0.005672  -0.001183  -0.000148   0.000008  -0.000188   0.000298
     7  C   -0.000273   0.000008   0.000021   0.000006   0.000007   0.000090
     8  C    0.000031  -0.000072  -0.000000   0.000000   0.000003   0.000007
     9  C    0.000266  -0.000273   0.000000   0.000000   0.000000  -0.000000
    10  N   -0.009558  -0.010989  -0.000000   0.000000  -0.000000  -0.000000
    11  C   -0.040261  -0.006587  -0.000002  -0.000000   0.000001   0.000025
    12  O    0.271090  -0.041363   0.000000   0.000000  -0.000000  -0.000003
    13  C    4.448135   0.447173   0.000000  -0.000000   0.000000  -0.000000
    14  C    0.447173   4.615387   0.000000   0.000000  -0.000000  -0.000000
    15  H    0.000000   0.000000   0.623076  -0.017551  -0.025089  -0.010386
    16  H   -0.000000   0.000000  -0.017551   0.623080  -0.017768  -0.002360
    17  H    0.000000  -0.000000  -0.025089  -0.017768   0.624662   0.007449
    18  H   -0.000000  -0.000000  -0.010386  -0.002360   0.007449   0.649744
    19  H    0.000000   0.000000   0.007490  -0.002300  -0.010452  -0.037729
    20  H    0.000007  -0.000000   0.000162   0.000010   0.000325   0.000150
    21  H    0.000001   0.000001  -0.000000  -0.000000  -0.000000  -0.000000
    22  H   -0.000021   0.000106  -0.000000   0.000000  -0.000000   0.000000
    23  H    0.388733  -0.025867  -0.000000  -0.000000   0.000000   0.000000
    24  H    0.386357  -0.029789  -0.000000  -0.000000   0.000000   0.000000
    25  H   -0.020280   0.388315   0.000000  -0.000000  -0.000000  -0.000000
    26  H   -0.018498   0.390467   0.000000  -0.000000   0.000000   0.000000
    27  H   -0.015521   0.378703  -0.000000  -0.000000   0.000000   0.000000
              19         20         21         22         23         24
     1  C   -0.027316  -0.000345  -0.000000   0.000000  -0.000000   0.000000
     2  C    0.398173  -0.000693   0.000001   0.000000  -0.000000   0.000000
     3  O   -0.029469   0.016405  -0.000024  -0.000000   0.000000   0.000000
     4  C   -0.003666  -0.022432  -0.000166   0.000080  -0.000208   0.000029
     5  O    0.008659   0.000277   0.000000  -0.000000   0.000178  -0.000028
     6  C    0.001082  -0.044450   0.010930   0.001091   0.000432   0.000237
     7  C   -0.000005   0.439609  -0.053369   0.006290   0.000032   0.000009
     8  C    0.000003  -0.056679   0.424920  -0.066400   0.000002   0.000087
     9  C   -0.000000   0.009081  -0.045677   0.421511   0.000030   0.000483
    10  N   -0.000000  -0.000100   0.005232  -0.038804   0.000405   0.026733
    11  C   -0.000034   0.011022   0.001100   0.004286   0.004842  -0.013656
    12  O   -0.000000  -0.000055   0.000014  -0.000079  -0.025420  -0.025474
    13  C    0.000000   0.000007   0.000001  -0.000021   0.388733   0.386357
    14  C    0.000000  -0.000000   0.000001   0.000106  -0.025867  -0.029789
    15  H    0.007490   0.000162  -0.000000  -0.000000  -0.000000  -0.000000
    16  H   -0.002300   0.000010  -0.000000   0.000000  -0.000000  -0.000000
    17  H   -0.010452   0.000325  -0.000000  -0.000000   0.000000   0.000000
    18  H   -0.037729   0.000150  -0.000000   0.000000   0.000000   0.000000
    19  H    0.650740   0.000100  -0.000000   0.000000  -0.000000  -0.000000
    20  H    0.000100   0.615316  -0.009250  -0.000242  -0.000000   0.000001
    21  H   -0.000000  -0.009250   0.642536  -0.006070  -0.000000  -0.000005
    22  H    0.000000  -0.000242  -0.006070   0.639343  -0.000006  -0.000126
    23  H   -0.000000  -0.000000  -0.000000  -0.000006   0.646548  -0.029674
    24  H   -0.000000   0.000001  -0.000005  -0.000126  -0.029674   0.646845
    25  H    0.000000  -0.000000  -0.000000   0.000002  -0.009480   0.007691
    26  H   -0.000000   0.000000  -0.000005  -0.000308   0.006889  -0.010056
    27  H   -0.000000   0.000000  -0.000000  -0.000002  -0.003118  -0.001013
              25         26         27
     1  C    0.000000  -0.000000   0.000000
     2  C    0.000000  -0.000000   0.000000
     3  O    0.000000   0.000000   0.000000
     4  C    0.000089  -0.000097   0.000001
     5  O    0.000029   0.000006   0.000000
     6  C   -0.000396   0.000377   0.000033
     7  C   -0.000011   0.000114  -0.000001
     8  C    0.000002   0.000098   0.000001
     9  C   -0.000001   0.000403   0.000006
    10  N    0.000407   0.011996  -0.000043
    11  C    0.000013   0.003993   0.000198
    12  O    0.001567  -0.004701   0.003704
    13  C   -0.020280  -0.018498  -0.015521
    14  C    0.388315   0.390467   0.378703
    15  H    0.000000   0.000000  -0.000000
    16  H   -0.000000  -0.000000  -0.000000
    17  H   -0.000000   0.000000   0.000000
    18  H   -0.000000   0.000000   0.000000
    19  H    0.000000  -0.000000  -0.000000
    20  H   -0.000000   0.000000   0.000000
    21  H   -0.000000  -0.000005  -0.000000
    22  H    0.000002  -0.000308  -0.000002
    23  H   -0.009480   0.006889  -0.003118
    24  H    0.007691  -0.010056  -0.001013
    25  H    0.620153  -0.024245  -0.017179
    26  H   -0.024245   0.609768  -0.017432
    27  H   -0.017179  -0.017432   0.629732
 Mulliken charges:
               1
     1  C   -0.077122
     2  C    0.135080
     3  O   -0.349979
     4  C    0.294354
     5  O   -0.215783
     6  C   -0.191180
     7  C    0.070803
     8  C   -0.069442
     9  C    0.058683
    10  N   -0.183966
    11  C    0.187956
    12  O   -0.290633
    13  C    0.156754
    14  C   -0.103944
    15  H    0.049911
    16  H    0.045291
    17  H    0.048668
    18  H    0.045348
    19  H    0.044724
    20  H    0.041782
    21  H    0.029833
    22  H    0.039348
    23  H    0.045682
    24  H    0.041349
    25  H    0.053322
    26  H    0.051233
    27  H    0.041929
 Sum of Mulliken charges =  -0.00000
 Mulliken charges with hydrogens summed into heavy atoms:
               1
     1  C    0.066748
     2  C    0.225153
     3  O   -0.349979
     4  C    0.294354
     5  O   -0.215783
     6  C   -0.191180
     7  C    0.112585
     8  C   -0.039609
     9  C    0.098030
    10  N   -0.183966
    11  C    0.187956
    12  O   -0.290633
    13  C    0.243784
    14  C    0.042539
 Electronic spatial extent (au):  <R**2>=           3465.5145
 Charge=             -0.0000 electrons
 Dipole moment (field-independent basis, Debye):
    X=             -0.7815    Y=              1.9312    Z=              0.1966  Tot=              2.0926
 Quadrupole moment (field-independent basis, Debye-Ang):
   XX=            -68.5997   YY=            -79.1088   ZZ=            -82.2096
   XY=             -1.5535   XZ=             -0.8151   YZ=              0.7539
 Traceless Quadrupole moment (field-independent basis, Debye-Ang):
   XX=              8.0397   YY=             -2.4695   ZZ=             -5.5702
   XY=             -1.5535   XZ=             -0.8151   YZ=              0.7539
 Octapole moment (field-independent basis, Debye-Ang**2):
  XXX=            -34.0513  YYY=             16.5923  ZZZ=             -2.5811  XYY=             11.4661
  XXY=            -26.1559  XXZ=             -2.0448  XZZ=             -4.6719  YZZ=             -9.9610
  YYZ=              0.9755  XYZ=              1.9163
 Hexadecapole moment (field-independent basis, Debye-Ang**3):
 XXXX=          -3045.7967 YYYY=          -1084.4029 ZZZZ=           -162.2100 XXXY=             11.2462
 XXXZ=            -15.5262 YYYX=              4.1106 YYYZ=             11.4043 ZZZX=             -6.1811
 ZZZY=              1.9231 XXYY=           -680.6524 XXZZ=           -568.6971 YYZZ=           -227.1616
 XXYZ=              8.6660 YYXZ=             -6.0349 ZZXY=             -3.1423
 N-N= 8.939261558924D+02 E-N=-3.345665036731D+03  KE= 6.621339857232D+02
   1 Symmetry operations used in ECPInt.
 ECPInt:  NShTT=    7626 NPrTT=   27482 LenC2=    7067 LenP2D=   18413.
 LDataN:  DoStor=T MaxTD1= 5 Len=  102
 Calling FoFJK, ICntrl=      2127 FMM=F ISym2X=0 I1Cent= 0 IOpClX= 0 NMat=1 NMatS=1 NMatT=0.
 ***** Axes restored to original set *****
 -------------------------------------------------------------------
 Center     Atomic                   Forces (Hartrees/Bohr)
 Number     Number              X              Y              Z
 -------------------------------------------------------------------
      1        6          -0.000004969    0.000006321    0.000006219
      2        6          -0.000000655   -0.000008524   -0.000001710
      3        8           0.000002198    0.000001525   -0.000002086
      4        6           0.000000236   -0.000002241    0.000004203
      5        8          -0.000000851    0.000005369   -0.000001760
      6        6           0.000011380   -0.000007283   -0.000002470
      7        6           0.000006502    0.000005056   -0.000000267
      8        6          -0.000012589    0.000003108    0.000001796
      9        6           0.000007689   -0.000017470   -0.000003472
     10        7           0.000006438    0.000012568    0.000000754
     11        6          -0.000012046   -0.000010370    0.000003967
     12        8          -0.000004045    0.000010803   -0.000002198
     13        6          -0.000000176   -0.000007419    0.000000001
     14        6           0.000006578   -0.000001556    0.000003758
     15        1           0.000001966    0.000000625   -0.000002134
     16        1          -0.000002788   -0.000001783   -0.000000302
     17        1           0.000001834   -0.000001994   -0.000002802
     18        1           0.000000048    0.000001947   -0.000000742
     19        1           0.000000157    0.000001990    0.000001148
     20        1          -0.000001060    0.000001457   -0.000000221
     21        1           0.000000531    0.000001359    0.000000240
     22        1           0.000000083    0.000001181    0.000000554
     23        1           0.000000040    0.000000873    0.000002009
     24        1           0.000001240    0.000002868   -0.000001586
     25        1          -0.000000873   -0.000000451   -0.000001292
     26        1          -0.000000847    0.000001572    0.000000472
     27        1          -0.000006019    0.000000469   -0.000002078
 -------------------------------------------------------------------
 Cartesian Forces:  Max     0.000017470 RMS     0.000004827

 GradGradGradGradGradGradGradGradGradGradGradGradGradGradGradGradGradGrad
 Berny optimization.
 FormGI is forming the generalized inverse of G from B-inverse, IUseBI=4.
 Internal  Forces:  Max     0.000009765 RMS     0.000002566
 Search for a local minimum.
 Step number   1 out of a maximum of  134
 All quantities printed in internal units (Hartrees-Bohrs-Radians)
 Mixed Optimization -- En-DIIS/RFO-DIIS
 Second derivative matrix not updated -- first step.
 ITU=  0
     Eigenvalues ---    0.00551   0.00618   0.00857   0.01346   0.01369
     Eigenvalues ---    0.01371   0.01627   0.01987   0.02173   0.02210
     Eigenvalues ---    0.02219   0.02233   0.02356   0.02422   0.02527
     Eigenvalues ---    0.02688   0.04970   0.05346   0.05700   0.05710
     Eigenvalues ---    0.05737   0.05756   0.05821   0.05823   0.11363
     Eigenvalues ---    0.11763   0.13679   0.13933   0.16000   0.16000
     Eigenvalues ---    0.16000   0.16000   0.16000   0.16000   0.16000
     Eigenvalues ---    0.16000   0.16000   0.21907   0.22064   0.22084
     Eigenvalues ---    0.23315   0.24910   0.24998   0.25000   0.25000
     Eigenvalues ---    0.25000   0.25000   0.25000   0.30734   0.31230
     Eigenvalues ---    0.33111   0.33511   0.33520   0.33657   0.33719
     Eigenvalues ---    0.33724   0.33728   0.33735   0.33750   0.33828
     Eigenvalues ---    0.33866   0.34180   0.34790   0.34795   0.40345
     Eigenvalues ---    0.41801   0.41825   0.44416   0.45459   0.47041
     Eigenvalues ---    0.56148   0.57341   0.59087   0.60775   1.04045
 RFO step:  Lambda= 0.00000000D+00 EMin= 5.51429843D-03
 Linear search not attempted -- first point.
 Iteration  1 RMS(Cart)=  0.00004892 RMS(Int)=  0.00000000
 Iteration  2 RMS(Cart)=  0.00000000 RMS(Int)=  0.00000000
 Variable       Old X    -DE/DX   Delta X   Delta X   Delta X     New X
                                 (Linear)    (Quad)   (Total)
    R1        2.85576   0.00000   0.00000   0.00001   0.00001   2.85578
    R2        2.07791   0.00000   0.00000   0.00000   0.00000   2.07792
    R3        2.07754   0.00000   0.00000   0.00001   0.00001   2.07755
    R4        2.07806  -0.00000   0.00000  -0.00001  -0.00001   2.07805
    R5        2.69177   0.00001   0.00000   0.00001   0.00001   2.69179
    R6        2.08148  -0.00000   0.00000  -0.00000  -0.00000   2.08148
    R7        2.08163   0.00000   0.00000   0.00000   0.00000   2.08163
    R8        2.54126   0.00000   0.00000   0.00000   0.00000   2.54126
    R9        2.27061  -0.00001   0.00000  -0.00001  -0.00001   2.27061
   R10        2.82158   0.00000   0.00000   0.00000   0.00000   2.82158
   R11        2.63483   0.00000   0.00000   0.00001   0.00001   2.63484
   R12        2.68696  -0.00001   0.00000  -0.00002  -0.00002   2.68694
   R13        2.63224  -0.00001   0.00000  -0.00001  -0.00001   2.63223
   R14        2.06009   0.00000   0.00000   0.00000   0.00000   2.06009
   R15        2.62469   0.00001   0.00000   0.00002   0.00002   2.62471
   R16        2.06017   0.00000   0.00000   0.00000   0.00000   2.06017
   R17        2.51386  -0.00001   0.00000  -0.00002  -0.00002   2.51385
   R18        2.07027   0.00000   0.00000   0.00000   0.00000   2.07027
   R19        2.50670   0.00001   0.00000   0.00001   0.00001   2.50671
   R20        2.50332  -0.00001   0.00000  -0.00002  -0.00002   2.50331
   R21        2.69146   0.00000   0.00000   0.00000   0.00000   2.69146
   R22        2.86523   0.00000   0.00000   0.00000   0.00000   2.86524
   R23        2.07557  -0.00000   0.00000  -0.00001  -0.00001   2.07556
   R24        2.07780   0.00000   0.00000   0.00001   0.00001   2.07781
   R25        2.07798  -0.00000   0.00000  -0.00000  -0.00000   2.07798
   R26        2.07621   0.00000   0.00000   0.00001   0.00001   2.07621
   R27        2.07913  -0.00001   0.00000  -0.00002  -0.00002   2.07911
    A1        1.93538  -0.00000   0.00000  -0.00002  -0.00002   1.93536
    A2        1.91899   0.00000   0.00000   0.00001   0.00001   1.91900
    A3        1.93596  -0.00000   0.00000  -0.00001  -0.00001   1.93595
    A4        1.89047   0.00000   0.00000   0.00001   0.00001   1.89048
    A5        1.89169   0.00000   0.00000   0.00001   0.00001   1.89170
    A6        1.89006   0.00000   0.00000   0.00001   0.00001   1.89007
    A7        1.88505  -0.00000   0.00000  -0.00000  -0.00000   1.88504
    A8        1.95178   0.00000   0.00000   0.00001   0.00001   1.95179
    A9        1.95223  -0.00000   0.00000  -0.00001  -0.00001   1.95222
   A10        1.90441  -0.00000   0.00000  -0.00000  -0.00000   1.90441
   A11        1.90538  -0.00000   0.00000  -0.00001  -0.00001   1.90536
   A12        1.86437   0.00000   0.00000   0.00002   0.00002   1.86439
   A13        2.03355  -0.00000   0.00000  -0.00001  -0.00001   2.03354
   A14        2.13856  -0.00000   0.00000  -0.00001  -0.00001   2.13854
   A15        1.93681   0.00001   0.00000   0.00003   0.00003   1.93684
   A16        2.20780  -0.00000   0.00000  -0.00001  -0.00001   2.20778
   A17        2.10636   0.00000   0.00000   0.00001   0.00001   2.10637
   A18        2.13686  -0.00000   0.00000  -0.00001  -0.00001   2.13684
   A19        2.03996   0.00000   0.00000   0.00000   0.00000   2.03996
   A20        2.10360   0.00000   0.00000   0.00000   0.00000   2.10360
   A21        2.06862   0.00000   0.00000   0.00000   0.00000   2.06862
   A22        2.11097  -0.00000   0.00000  -0.00001  -0.00001   2.11096
   A23        2.04954  -0.00000   0.00000  -0.00001  -0.00001   2.04953
   A24        2.12134   0.00000   0.00000   0.00001   0.00001   2.12134
   A25        2.11230   0.00000   0.00000   0.00000   0.00000   2.11230
   A26        2.15350   0.00000   0.00000   0.00001   0.00001   2.15352
   A27        2.10409  -0.00000   0.00000  -0.00001  -0.00001   2.10408
   A28        2.02558  -0.00000   0.00000   0.00000   0.00000   2.02559
   A29        2.08376  -0.00000   0.00000  -0.00001  -0.00001   2.08375
   A30        2.13597   0.00000   0.00000   0.00001   0.00001   2.13597
   A31        2.07101  -0.00000   0.00000  -0.00001  -0.00001   2.07101
   A32        2.07612  -0.00000   0.00000  -0.00000  -0.00000   2.07612
   A33        2.09100   0.00000   0.00000   0.00000   0.00000   2.09100
   A34        1.95439   0.00000   0.00000  -0.00000  -0.00000   1.95439
   A35        1.81729   0.00000   0.00000   0.00001   0.00001   1.81730
   A36        1.91431  -0.00000   0.00000  -0.00001  -0.00001   1.91431
   A37        1.93576  -0.00000   0.00000  -0.00000  -0.00000   1.93576
   A38        1.93609  -0.00000   0.00000  -0.00001  -0.00001   1.93609
   A39        1.90204   0.00000   0.00000   0.00001   0.00001   1.90205
   A40        1.93020  -0.00000   0.00000  -0.00001  -0.00001   1.93019
   A41        1.93178   0.00000   0.00000   0.00000   0.00000   1.93178
   A42        1.91687  -0.00000   0.00000  -0.00003  -0.00003   1.91684
   A43        1.90245   0.00000   0.00000   0.00001   0.00001   1.90246
   A44        1.89194   0.00000   0.00000   0.00001   0.00001   1.89195
   A45        1.88966   0.00000   0.00000   0.00002   0.00002   1.88968
    D1        1.04850   0.00000   0.00000   0.00001   0.00001   1.04851
    D2       -1.04717   0.00000   0.00000   0.00001   0.00001  -1.04716
    D3       -3.13754  -0.00000   0.00000  -0.00002  -0.00002  -3.13756
    D4        3.13872   0.00000   0.00000   0.00001   0.00001   3.13872
    D5        1.04305   0.00000   0.00000   0.00001   0.00001   1.04306
    D6       -1.04733  -0.00000   0.00000  -0.00001  -0.00001  -1.04734
    D7       -1.05440   0.00000   0.00000   0.00002   0.00002  -1.05438
    D8        3.13312   0.00000   0.00000   0.00002   0.00002   3.13314
    D9        1.04274  -0.00000   0.00000  -0.00000  -0.00000   1.04274
   D10        3.13716  -0.00000   0.00000  -0.00005  -0.00005   3.13711
   D11       -1.02083  -0.00000   0.00000  -0.00004  -0.00004  -1.02087
   D12        1.01083   0.00000   0.00000  -0.00003  -0.00003   1.01080
   D13        0.00867   0.00000   0.00000   0.00008   0.00008   0.00874
   D14       -3.12646   0.00000   0.00000  -0.00002  -0.00002  -3.12647
   D15        0.10451   0.00000   0.00000   0.00001   0.00001   0.10452
   D16       -3.04295   0.00000   0.00000   0.00001   0.00001  -3.04294
   D17       -3.03030  -0.00000   0.00000  -0.00009  -0.00009  -3.03038
   D18        0.10543  -0.00000   0.00000  -0.00009  -0.00009   0.10534
   D19        3.12943  -0.00000   0.00000  -0.00000  -0.00000   3.12943
   D20       -0.01012  -0.00000   0.00000  -0.00001  -0.00001  -0.01013
   D21       -0.00661  -0.00000   0.00000  -0.00000  -0.00000  -0.00661
   D22        3.13703  -0.00000   0.00000  -0.00001  -0.00001   3.13702
   D23       -3.12608  -0.00000   0.00000  -0.00000  -0.00000  -3.12608
   D24        0.02999   0.00000   0.00000   0.00004   0.00004   0.03003
   D25        0.00986  -0.00000   0.00000  -0.00000  -0.00000   0.00986
   D26       -3.11726   0.00000   0.00000   0.00004   0.00004  -3.11722
   D27        0.00061   0.00000   0.00000   0.00001   0.00001   0.00061
   D28       -3.13766   0.00000   0.00000   0.00000   0.00000  -3.13766
   D29        3.14011   0.00000   0.00000   0.00001   0.00001   3.14012
   D30        0.00184   0.00000   0.00000   0.00001   0.00001   0.00185
   D31        0.00307  -0.00000   0.00000  -0.00001  -0.00001   0.00307
   D32       -3.13671   0.00000   0.00000   0.00001   0.00001  -3.13671
   D33        3.14136  -0.00000   0.00000  -0.00000  -0.00000   3.14136
   D34        0.00158   0.00000   0.00000   0.00001   0.00001   0.00159
   D35       -0.00010   0.00000   0.00000   0.00000   0.00000  -0.00010
   D36        3.13976  -0.00000   0.00000  -0.00001  -0.00001   3.13975
   D37       -0.00659   0.00000   0.00000   0.00000   0.00000  -0.00659
   D38        3.12049  -0.00000   0.00000  -0.00004  -0.00004   3.12045
   D39       -3.12853   0.00000   0.00000  -0.00000  -0.00000  -3.12854
   D40        0.02703   0.00000   0.00000   0.00004   0.00004   0.02706
   D41        1.42082  -0.00000   0.00000  -0.00006  -0.00006   1.42075
   D42       -2.76979  -0.00000   0.00000  -0.00006  -0.00006  -2.76985
   D43       -0.73652  -0.00000   0.00000  -0.00005  -0.00005  -0.73657
   D44        0.95454   0.00000   0.00000   0.00001   0.00001   0.95455
   D45       -1.15568   0.00000   0.00000   0.00000   0.00000  -1.15567
   D46        3.04194  -0.00000   0.00000  -0.00000  -0.00000   3.04194
   D47       -1.06727   0.00000   0.00000   0.00000   0.00000  -1.06727
   D48        3.10569  -0.00000   0.00000  -0.00000  -0.00000   3.10569
   D49        1.02013  -0.00000   0.00000  -0.00001  -0.00001   1.02012
   D50        3.09959   0.00000   0.00000  -0.00000  -0.00000   3.09958
   D51        0.98937  -0.00000   0.00000  -0.00001  -0.00001   0.98936
   D52       -1.09620  -0.00000   0.00000  -0.00002  -0.00002  -1.09621
         Item               Value     Threshold  Converged?
 Maximum Force            0.000010     0.000450     YES
 RMS     Force            0.000003     0.000300     YES
 Maximum Displacement     0.000149     0.001800     YES
 RMS     Displacement     0.000049     0.001200     YES
 Predicted change in Energy=-1.496024D-09
 Optimization completed.
    -- Stationary point found.
                           ----------------------------
                           !   Optimized Parameters   !
                           ! (Angstroms and Degrees)  !
 --------------------------                            --------------------------
 ! Name  Definition              Value          Derivative Info.                !
 --------------------------------------------------------------------------------
 ! R1    R(1,2)                  1.5112         -DE/DX =    0.0                 !
 ! R2    R(1,15)                 1.0996         -DE/DX =    0.0                 !
 ! R3    R(1,16)                 1.0994         -DE/DX =    0.0                 !
 ! R4    R(1,17)                 1.0997         -DE/DX =    0.0                 !
 ! R5    R(2,3)                  1.4244         -DE/DX =    0.0                 !
 ! R6    R(2,18)                 1.1015         -DE/DX =    0.0                 !
 ! R7    R(2,19)                 1.1016         -DE/DX =    0.0                 !
 ! R8    R(3,4)                  1.3448         -DE/DX =    0.0                 !
 ! R9    R(4,5)                  1.2016         -DE/DX =    0.0                 !
 ! R10   R(4,6)                  1.4931         -DE/DX =    0.0                 !
 ! R11   R(6,7)                  1.3943         -DE/DX =    0.0                 !
 ! R12   R(6,11)                 1.4219         -DE/DX =    0.0                 !
 ! R13   R(7,8)                  1.3929         -DE/DX =    0.0                 !
 ! R14   R(7,20)                 1.0902         -DE/DX =    0.0                 !
 ! R15   R(8,9)                  1.3889         -DE/DX =    0.0                 !
 ! R16   R(8,21)                 1.0902         -DE/DX =    0.0                 !
 ! R17   R(9,10)                 1.3303         -DE/DX =    0.0                 !
 ! R18   R(9,22)                 1.0955         -DE/DX =    0.0                 !
 ! R19   R(10,11)                1.3265         -DE/DX =    0.0                 !
 ! R20   R(11,12)                1.3247         -DE/DX =    0.0                 !
 ! R21   R(12,13)                1.4243         -DE/DX =    0.0                 !
 ! R22   R(13,14)                1.5162         -DE/DX =    0.0                 !
 ! R23   R(13,23)                1.0983         -DE/DX =    0.0                 !
 ! R24   R(13,24)                1.0995         -DE/DX =    0.0                 !
 ! R25   R(14,25)                1.0996         -DE/DX =    0.0                 !
 ! R26   R(14,26)                1.0987         -DE/DX =    0.0                 !
 ! R27   R(14,27)                1.1002         -DE/DX =    0.0                 !
 ! A1    A(2,1,15)             110.8892         -DE/DX =    0.0                 !
 ! A2    A(2,1,16)             109.9503         -DE/DX =    0.0                 !
 ! A3    A(2,1,17)             110.9223         -DE/DX =    0.0                 !
 ! A4    A(15,1,16)            108.3161         -DE/DX =    0.0                 !
 ! A5    A(15,1,17)            108.3861         -DE/DX =    0.0                 !
 ! A6    A(16,1,17)            108.2924         -DE/DX =    0.0                 !
 ! A7    A(1,2,3)              108.0053         -DE/DX =    0.0                 !
 ! A8    A(1,2,18)             111.8289         -DE/DX =    0.0                 !
 ! A9    A(1,2,19)             111.8546         -DE/DX =    0.0                 !
 ! A10   A(3,2,18)             109.1145         -DE/DX =    0.0                 !
 ! A11   A(3,2,19)             109.17           -DE/DX =    0.0                 !
 ! A12   A(18,2,19)            106.8204         -DE/DX =    0.0                 !
 ! A13   A(2,3,4)              116.5136         -DE/DX =    0.0                 !
 ! A14   A(3,4,5)              122.5302         -DE/DX =    0.0                 !
 ! A15   A(3,4,6)              110.9711         -DE/DX =    0.0                 !
 ! A16   A(5,4,6)              126.4975         -DE/DX =    0.0                 !
 ! A17   A(4,6,7)              120.6854         -DE/DX =    0.0                 !
 ! A18   A(4,6,11)             122.4328         -DE/DX =    0.0                 !
 ! A19   A(7,6,11)             116.881          -DE/DX =    0.0                 !
 ! A20   A(6,7,8)              120.5274         -DE/DX =    0.0                 !
 ! A21   A(6,7,20)             118.5231         -DE/DX =    0.0                 !
 ! A22   A(8,7,20)             120.9494         -DE/DX =    0.0                 !
 ! A23   A(7,8,9)              117.4302         -DE/DX =    0.0                 !
 ! A24   A(7,8,21)             121.5436         -DE/DX =    0.0                 !
 ! A25   A(9,8,21)             121.0259         -DE/DX =    0.0                 !
 ! A26   A(8,9,10)             123.3867         -DE/DX =    0.0                 !
 ! A27   A(8,9,22)             120.5557         -DE/DX =    0.0                 !
 ! A28   A(10,9,22)            116.0575         -DE/DX =    0.0                 !
 ! A29   A(9,10,11)            119.3906         -DE/DX =    0.0                 !
 ! A30   A(6,11,10)            122.3819         -DE/DX =    0.0                 !
 ! A31   A(6,11,12)            118.6603         -DE/DX =    0.0                 !
 ! A32   A(10,11,12)           118.9527         -DE/DX =    0.0                 !
 ! A33   A(11,12,13)           119.8055         -DE/DX =    0.0                 !
 ! A34   A(12,13,14)           111.9782         -DE/DX =    0.0                 !
 ! A35   A(12,13,23)           104.1231         -DE/DX =    0.0                 !
 ! A36   A(12,13,24)           109.682          -DE/DX =    0.0                 !
 ! A37   A(14,13,23)           110.9109         -DE/DX =    0.0                 !
 ! A38   A(14,13,24)           110.9299         -DE/DX =    0.0                 !
 ! A39   A(23,13,24)           108.9786         -DE/DX =    0.0                 !
 ! A40   A(13,14,25)           110.5924         -DE/DX =    0.0                 !
 ! A41   A(13,14,26)           110.6828         -DE/DX =    0.0                 !
 ! A42   A(13,14,27)           109.8286         -DE/DX =    0.0                 !
 ! A43   A(25,14,26)           109.0024         -DE/DX =    0.0                 !
 ! A44   A(25,14,27)           108.4004         -DE/DX =    0.0                 !
 ! A45   A(26,14,27)           108.2696         -DE/DX =    0.0                 !
 ! D1    D(15,1,2,3)            60.0747         -DE/DX =    0.0                 !
 ! D2    D(15,1,2,18)          -59.9984         -DE/DX =    0.0                 !
 ! D3    D(15,1,2,19)         -179.768          -DE/DX =    0.0                 !
 ! D4    D(16,1,2,3)           179.8353         -DE/DX =    0.0                 !
 ! D5    D(16,1,2,18)           59.7622         -DE/DX =    0.0                 !
 ! D6    D(16,1,2,19)          -60.0075         -DE/DX =    0.0                 !
 ! D7    D(17,1,2,3)           -60.4126         -DE/DX =    0.0                 !
 ! D8    D(17,1,2,18)          179.5143         -DE/DX =    0.0                 !
 ! D9    D(17,1,2,19)           59.7447         -DE/DX =    0.0                 !
 ! D10   D(1,2,3,4)            179.7458         -DE/DX =    0.0                 !
 ! D11   D(18,2,3,4)           -58.4891         -DE/DX =    0.0                 !
 ! D12   D(19,2,3,4)            57.9163         -DE/DX =    0.0                 !
 ! D13   D(2,3,4,5)              0.4965         -DE/DX =    0.0                 !
 ! D14   D(2,3,4,6)           -179.1327         -DE/DX =    0.0                 !
 ! D15   D(3,4,6,7)              5.9878         -DE/DX =    0.0                 !
 ! D16   D(3,4,6,11)          -174.3485         -DE/DX =    0.0                 !
 ! D17   D(5,4,6,7)           -173.6233         -DE/DX =    0.0                 !
 ! D18   D(5,4,6,11)             6.0404         -DE/DX =    0.0                 !
 ! D19   D(4,6,7,8)            179.3032         -DE/DX =    0.0                 !
 ! D20   D(4,6,7,20)            -0.5799         -DE/DX =    0.0                 !
 ! D21   D(11,6,7,8)            -0.3786         -DE/DX =    0.0                 !
 ! D22   D(11,6,7,20)          179.7383         -DE/DX =    0.0                 !
 ! D23   D(4,6,11,10)         -179.111          -DE/DX =    0.0                 !
 ! D24   D(4,6,11,12)            1.7182         -DE/DX =    0.0                 !
 ! D25   D(7,6,11,10)            0.5648         -DE/DX =    0.0                 !
 ! D26   D(7,6,11,12)         -178.6061         -DE/DX =    0.0                 !
 ! D27   D(6,7,8,9)              0.0349         -DE/DX =    0.0                 !
 ! D28   D(6,7,8,21)          -179.7749         -DE/DX =    0.0                 !
 ! D29   D(20,7,8,9)           179.9151         -DE/DX =    0.0                 !
 ! D30   D(20,7,8,21)            0.1054         -DE/DX =    0.0                 !
 ! D31   D(7,8,9,10)             0.1761         -DE/DX =    0.0                 !
 ! D32   D(7,8,9,22)          -179.7203         -DE/DX =    0.0                 !
 ! D33   D(21,8,9,10)          179.9868         -DE/DX =    0.0                 !
 ! D34   D(21,8,9,22)            0.0904         -DE/DX =    0.0                 !
 ! D35   D(8,9,10,11)           -0.0059         -DE/DX =    0.0                 !
 ! D36   D(22,9,10,11)         179.8948         -DE/DX =    0.0                 !
 ! D37   D(9,10,11,6)           -0.3777         -DE/DX =    0.0                 !
 ! D38   D(9,10,11,12)         178.7908         -DE/DX =    0.0                 !
 ! D39   D(6,11,12,13)        -179.2518         -DE/DX =    0.0                 !
 ! D40   D(10,11,12,13)          1.5485         -DE/DX =    0.0                 !
 ! D41   D(11,12,13,14)         81.4069         -DE/DX =    0.0                 !
 ! D42   D(11,12,13,23)       -158.697          -DE/DX =    0.0                 !
 ! D43   D(11,12,13,24)        -42.1995         -DE/DX =    0.0                 !
 ! D44   D(12,13,14,25)         54.6911         -DE/DX =    0.0                 !
 ! D45   D(12,13,14,26)        -66.2154         -DE/DX =    0.0                 !
 ! D46   D(12,13,14,27)        174.2905         -DE/DX =    0.0                 !
 ! D47   D(23,13,14,25)        -61.1503         -DE/DX =    0.0                 !
 ! D48   D(23,13,14,26)        177.9432         -DE/DX =    0.0                 !
 ! D49   D(23,13,14,27)         58.4491         -DE/DX =    0.0                 !
 ! D50   D(24,13,14,25)        177.5932         -DE/DX =    0.0                 !
 ! D51   D(24,13,14,26)         56.6867         -DE/DX =    0.0                 !
 ! D52   D(24,13,14,27)        -62.8074         -DE/DX =    0.0                 !
 --------------------------------------------------------------------------------
 GradGradGradGradGradGradGradGradGradGradGradGradGradGradGradGradGradGrad

                          Input orientation:                          
 ---------------------------------------------------------------------
 Center     Atomic      Atomic             Coordinates (Angstroms)
 Number     Number       Type             X           Y           Z
 ---------------------------------------------------------------------
      1          6           0       -4.780450   -0.069980    0.092130
      2          6           0       -3.519000   -0.900980    0.048260
      3          8           0       -2.406910   -0.011630    0.012210
      4          6           0       -1.187210   -0.576790   -0.024480
      5          8           0       -1.026920   -1.767550   -0.036020
      6          6           0       -0.116360    0.463630   -0.038420
      7          6           0       -0.433500    1.813180    0.110550
      8          6           0        0.569470    2.779760    0.111520
      9          6           0        1.879080    2.343050   -0.041180
     10          7           0        2.211500    1.063520   -0.189300
     11          6           0        1.259380    0.139930   -0.194300
     12          8           0        1.597910   -1.129140   -0.366620
     13          6           0        2.970200   -1.482680   -0.509260
     14          6           0        3.673010   -1.581270    0.830610
     15          1           0       -4.856040    0.575110   -0.795130
     16          1           0       -5.661660   -0.726840    0.117800
     17          1           0       -4.799400    0.568110    0.987530
     18          1           0       -3.488550   -1.552720   -0.839180
     19          1           0       -3.429230   -1.556890    0.928680
     20          1           0       -1.480880    2.091940    0.227680
     21          1           0        0.340610    3.839010    0.230400
     22          1           0        2.708270    3.059040   -0.043270
     23          1           0        2.944580   -2.459240   -1.011290
     24          1           0        3.473420   -0.756970   -1.164290
     25          1           0        3.140810   -2.276100    1.496300
     26          1           0        3.728810   -0.595720    1.312980
     27          1           0        4.698310   -1.953880    0.687710
 ---------------------------------------------------------------------
                    Distance matrix (angstroms):
                    1          2          3          4          5
     1  C    0.000000
     2  C    1.511205   0.000000
     3  O    2.375602   1.424425   0.000000
     4  C    3.630679   2.355342   1.344775   0.000000
     5  O    4.121547   2.639793   2.233820   1.201555   0.000000
     6  C    4.696330   3.667101   2.339883   1.493113   2.409832
     7  C    4.737363   4.109849   2.689600   2.509635   3.632528
     8  C    6.061604   5.501585   4.081735   3.790890   4.821645
     9  C    7.084478   6.298492   4.890509   4.234133   5.034073
    10  N    7.088821   6.062535   4.746184   3.777435   4.304163
    11  C    6.050260   4.896452   3.675228   2.555059   2.981728
    12  O    6.481956   5.138769   4.175036   2.859903   2.721506
    13  C    7.901264   6.539031   5.599038   4.282488   4.035105
    14  C    8.619184   7.266352   6.332375   5.036060   4.782791
    15  H    1.099584   2.162828   2.644674   3.921873   4.552633
    16  H    1.099388   2.150849   3.334077   4.479226   4.752636
    17  H    1.099663   2.163303   2.647897   3.922101   4.553523
    18  H    2.175974   1.101473   2.066342   2.629133   2.598238
    19  H    2.176353   1.101552   2.067096   2.625979   2.597329
    20  H    3.947079   3.625423   2.308455   2.696655   3.895033
    21  H    6.443957   6.115331   4.735388   4.679582   5.777078
    22  H    8.117267   7.380314   5.966335   5.328637   6.103087
    23  H    8.161016   6.732658   5.973005   4.646407   4.147577
    24  H    8.377166   7.098236   6.043010   4.801365   4.748402
    25  H    8.341764   6.952758   6.173131   4.892053   4.469519
    26  H    8.612455   7.363657   6.299224   5.094743   5.080350
    27  H    9.682494   8.309132   7.396809   6.086291   5.773800
                    6          7          8          9         10
     6  C    0.000000
     7  C    1.394294   0.000000
     8  C    2.420187   1.392920   0.000000
     9  C    2.741169   2.377354   1.388924   0.000000
    10  N    2.408644   2.765488   2.394209   1.330278   0.000000
    11  C    1.421879   2.399696   2.745579   2.293733   1.326490
    12  O    2.362912   3.607155   4.070111   3.498724   2.283789
    13  C    3.679221   4.778287   4.931254   4.005727   2.676030
    14  C    4.392739   5.376263   5.400707   4.402101   3.189223
    15  H    4.801000   4.681018   5.926099   7.003991   7.110253
    16  H    5.673797   5.812522   7.150053   8.143234   8.079997
    17  H    4.795243   4.623892   5.872270   6.986469   7.126225
    18  H    4.009807   4.643770   6.011800   6.680216   6.305365
    19  H    3.999111   4.582696   5.955156   6.657951   6.319356
    20  H    2.141055   1.090152   2.165762   3.380040   3.855540
    21  H    3.416764   2.172003   1.090193   2.162994   3.373384
    22  H    3.835976   3.383275   2.162504   1.095537   2.061603
    23  H    4.342695   5.560892   5.860800   5.013820   3.690923
    24  H    3.955246   4.847155   4.750692   3.662434   2.420172
    25  H    4.524449   5.605195   5.838761   5.029150   3.854598
    26  H    4.211156   4.957163   4.776903   3.727146   2.704099
    27  H    5.436236   6.392130   6.307667   5.190659   4.007253
                   11         12         13         14         15
    11  C    0.000000
    12  O    1.324702   0.000000
    13  C    2.378859   1.424260   0.000000
    14  C    3.136651   2.437995   1.516217   0.000000
    15  H    6.160255   6.688913   8.097299   8.946379   0.000000
    16  H    6.982084   7.286828   8.687549   9.400756   1.782565
    17  H    6.187801   6.755735   8.173910   8.742207   1.783573
    18  H    5.081710   5.125896   6.467550   7.353704   2.529749
    19  H    5.111100   5.208926   6.559412   7.102959   3.090749
    20  H    3.390787   4.495275   5.756136   6.357561   3.839091
    21  H    3.835062   5.159433   5.981825   6.390976   6.221730
    22  H    3.262406   4.344917   4.573071   4.819426   7.997124
    23  H    3.203601   1.999571   1.098344   2.166573   8.372794
    24  H    2.578233   2.071793   1.099522   2.167702   8.443377
    25  H    3.497872   2.677037   2.163537   1.099622   8.793728
    26  H    2.985156   2.765199   2.163965   1.098683   8.917097
    27  H    4.121677   3.377024   2.154328   1.100227   9.994009
                   16         17         18         19         20
    16  H    0.000000
    17  H    1.782363   0.000000
    18  H    2.514020   3.090812   0.000000
    19  H    2.515999   2.529121   1.768860   0.000000
    20  H    5.043463   3.729880   4.295634   4.195406   0.000000
    21  H    7.542341   6.139360   6.699046   6.619292   2.523903
    22  H    9.187740   7.976991   7.765461   7.740827   4.307862
    23  H    8.851182   8.551570   6.498966   6.723331   6.467842
    24  H    9.224660   8.650186   7.014837   7.257201   5.882088
    25  H    9.043448   8.449575   7.065845   6.633617   6.484535
    26  H    9.467131   8.613407   7.591965   7.232501   5.961733
    27  H   10.447938   9.831420   8.337685   8.140797   7.400181
                   21         22         23         24         25
    21  H    0.000000
[...]
 Alpha virt. eigenvalues --    6.87508   6.94605   7.00014   7.03676   7.10631
 Alpha virt. eigenvalues --    7.19007   7.26465   7.31813   7.48586   7.55560
 Alpha virt. eigenvalues --    7.57221  22.39020  22.42426  22.52004  22.58540
 Alpha virt. eigenvalues --   22.61354  22.74305  22.92295  23.13102  23.35947
 Alpha virt. eigenvalues --   23.67370  32.68437  44.06813  44.36779  44.48673
          Condensed to atoms (all electrons):
               1          2          3          4          5          6
     1  C    4.893605   0.313420  -0.045014   0.001582   0.004791   0.005160
     2  C    0.313420   4.813892   0.221395  -0.038492   0.000405   0.007105
     3  O   -0.045014   0.221395   7.999616   0.389480  -0.083709  -0.169582
     4  C    0.001582  -0.038492   0.389480   4.451938   0.661302   0.286892
     5  O    0.004791   0.000405  -0.083709   0.661302   7.848401  -0.097309
     6  C    0.005160   0.007105  -0.169582   0.286892  -0.097309   5.486173
     7  C   -0.001331  -0.002602   0.035736  -0.054473   0.007330   0.431456
     8  C    0.000030  -0.000099   0.000005   0.007076  -0.000290  -0.037660
     9  C   -0.000007  -0.000018   0.000379  -0.002384   0.000246  -0.040747
    10  N   -0.000000   0.000029  -0.000194   0.004971  -0.000259  -0.070607
    11  C    0.000046   0.000295  -0.003915  -0.069721   0.001173   0.377454
    12  O    0.000002   0.000140  -0.000187   0.015588  -0.014450  -0.121845
    13  C   -0.000000  -0.000008   0.000026  -0.000072   0.001768  -0.000317
    14  C    0.000000   0.000000  -0.000003  -0.000226  -0.000527   0.002534
    15  H    0.405287  -0.032148   0.001771   0.000016  -0.000091  -0.000464
    16  H    0.410578  -0.037623   0.004209   0.000144   0.000119  -0.000031
    17  H    0.405195  -0.032206   0.001521  -0.000017  -0.000096  -0.000653
    18  H   -0.031019   0.416204  -0.036262  -0.006516   0.005827  -0.003130
    19  H   -0.031673   0.418235  -0.039203  -0.005161   0.005855  -0.001355
    20  H   -0.000548  -0.001096   0.014607  -0.013506   0.000385  -0.029495
    21  H    0.000001   0.000007  -0.000095  -0.000028   0.000002   0.009761
    22  H    0.000000   0.000000  -0.000001   0.000143  -0.000001  -0.000652
    23  H   -0.000000  -0.000002   0.000002  -0.000440   0.000156   0.003571
    24  H    0.000000   0.000001   0.000000   0.000192  -0.000036  -0.006804
    25  H   -0.000000   0.000000   0.000000   0.000079   0.000176  -0.002446
    26  H   -0.000000  -0.000000   0.000001  -0.000049   0.000019   0.003419
    27  H   -0.000000  -0.000000   0.000000   0.000008   0.000004  -0.000101
               7          8          9         10         11         12
     1  C   -0.001331   0.000030  -0.000007  -0.000000   0.000046   0.000002
     2  C   -0.002602  -0.000099  -0.000018   0.000029   0.000295   0.000140
     3  O    0.035736   0.000005   0.000379  -0.000194  -0.003915  -0.000187
     4  C   -0.054473   0.007076  -0.002384   0.004971  -0.069721   0.015588
     5  O    0.007330  -0.000290   0.000246  -0.000259   0.001173  -0.014450
     6  C    0.431456  -0.037660  -0.040747  -0.070607   0.377454  -0.121845
     7  C    4.985651   0.457219   0.010627  -0.036867  -0.054988  -0.000536
     8  C    0.457219   4.979357   0.502391  -0.061794  -0.029332   0.001886
     9  C    0.010627   0.502391   4.692966   0.543149  -0.078670   0.000054
    10  N   -0.036867  -0.061794   0.543149   6.640835   0.428888  -0.082301
    11  C   -0.054988  -0.029332  -0.078670   0.428888   4.703060   0.429344
    12  O   -0.000536   0.001886   0.000054  -0.082301   0.429344   7.884072
    13  C   -0.001289  -0.000079  -0.001399  -0.017427  -0.029350   0.226551
    14  C    0.000053   0.000064  -0.000552  -0.009033   0.002795  -0.041619
    15  H    0.000198   0.000003   0.000001  -0.000000  -0.000025  -0.000000
    16  H    0.000016   0.000001   0.000000   0.000000  -0.000001   0.000000
    17  H    0.000201   0.000014   0.000001  -0.000000  -0.000002  -0.000000
    18  H    0.000705   0.000027  -0.000000   0.000000   0.000080  -0.000014
    19  H    0.000300   0.000008   0.000001  -0.000001  -0.000464  -0.000007
    20  H    0.421779  -0.044160   0.004202  -0.000844   0.008053  -0.000104
    21  H   -0.055180   0.425899  -0.036235   0.006333  -0.001120   0.000038
    22  H    0.004140  -0.069764   0.430335  -0.032616   0.005820  -0.000082
    23  H    0.000066   0.000035   0.000060   0.001070   0.002722  -0.035511
    24  H    0.000188  -0.000232   0.001618   0.023786  -0.021968  -0.029325
    25  H    0.000030  -0.000023   0.000076   0.000810  -0.002247   0.003898
    26  H   -0.000060   0.000258   0.000452   0.007464   0.002486  -0.001845
    27  H   -0.000003   0.000003   0.000060   0.000510   0.000338   0.004466
              13         14         15         16         17         18
     1  C   -0.000000   0.000000   0.405287   0.410578   0.405195  -0.031019
     2  C   -0.000008   0.000000  -0.032148  -0.037623  -0.032206   0.416204
     3  O    0.000026  -0.000003   0.001771   0.004209   0.001521  -0.036262
     4  C   -0.000072  -0.000226   0.000016   0.000144  -0.000017  -0.006516
     5  O    0.001768  -0.000527  -0.000091   0.000119  -0.000096   0.005827
     6  C   -0.000317   0.002534  -0.000464  -0.000031  -0.000653  -0.003130
     7  C   -0.001289   0.000053   0.000198   0.000016   0.000201   0.000705
     8  C   -0.000079   0.000064   0.000003   0.000001   0.000014   0.000027
     9  C   -0.001399  -0.000552   0.000001   0.000000   0.000001  -0.000000
    10  N   -0.017427  -0.009033  -0.000000   0.000000  -0.000000   0.000000
    11  C   -0.029350   0.002795  -0.000025  -0.000001  -0.000002   0.000080
    12  O    0.226551  -0.041619  -0.000000   0.000000  -0.000000  -0.000014
    13  C    4.783697   0.323553  -0.000000  -0.000000  -0.000000  -0.000002
    14  C    0.323553   4.966259  -0.000000   0.000000   0.000000   0.000000
    15  H   -0.000000  -0.000000   0.556695  -0.020877  -0.028370  -0.008150
    16  H   -0.000000   0.000000  -0.020877   0.547675  -0.021369  -0.002005
    17  H   -0.000000   0.000000  -0.028370  -0.021369   0.559101   0.007408
    18  H   -0.000002   0.000000  -0.008150  -0.002005   0.007408   0.585883
    19  H   -0.000000  -0.000001   0.007425  -0.001748  -0.008240  -0.044005
    20  H    0.000025  -0.000003  -0.000059   0.000053   0.000174   0.000179
    21  H   -0.000002   0.000005  -0.000000  -0.000000  -0.000001  -0.000000
    22  H    0.000058   0.000141   0.000000   0.000000  -0.000000  -0.000000
    23  H    0.398080  -0.029052  -0.000000  -0.000000   0.000000   0.000000
    24  H    0.419663  -0.045610  -0.000000  -0.000000   0.000000  -0.000000
    25  H   -0.031265   0.399593   0.000000  -0.000000   0.000000  -0.000000
    26  H   -0.045692   0.418003   0.000000  -0.000000   0.000000  -0.000000
    27  H   -0.033008   0.393386  -0.000000  -0.000000   0.000000   0.000000
              19         20         21         22         23         24
     1  C   -0.031673  -0.000548   0.000001   0.000000  -0.000000   0.000000
     2  C    0.418235  -0.001096   0.000007   0.000000  -0.000002   0.000001
     3  O   -0.039203   0.014607  -0.000095  -0.000001   0.000002   0.000000
     4  C   -0.005161  -0.013506  -0.000028   0.000143  -0.000440   0.000192
     5  O    0.005855   0.000385   0.000002  -0.000001   0.000156  -0.000036
     6  C   -0.001355  -0.029495   0.009761  -0.000652   0.003571  -0.006804
     7  C    0.000300   0.421779  -0.055180   0.004140   0.000066   0.000188
     8  C    0.000008  -0.044160   0.425899  -0.069764   0.000035  -0.000232
     9  C    0.000001   0.004202  -0.036235   0.430335   0.000060   0.001618
    10  N   -0.000001  -0.000844   0.006333  -0.032616   0.001070   0.023786
    11  C   -0.000464   0.008053  -0.001120   0.005820   0.002722  -0.021968
    12  O   -0.000007  -0.000104   0.000038  -0.000082  -0.035511  -0.029325
    13  C   -0.000000   0.000025  -0.000002   0.000058   0.398080   0.419663
    14  C   -0.000001  -0.000003   0.000005   0.000141  -0.029052  -0.045610
    15  H    0.007425  -0.000059  -0.000000   0.000000  -0.000000  -0.000000
    16  H   -0.001748   0.000053  -0.000000   0.000000  -0.000000  -0.000000
    17  H   -0.008240   0.000174  -0.000001  -0.000000   0.000000   0.000000
    18  H   -0.044005   0.000179  -0.000000  -0.000000   0.000000  -0.000000
    19  H    0.585497  -0.000016  -0.000000   0.000000  -0.000000  -0.000000
    20  H   -0.000016   0.485748  -0.005171  -0.000182  -0.000001   0.000006
    21  H   -0.000000  -0.005171   0.527157  -0.001832  -0.000000  -0.000010
    22  H    0.000000  -0.000182  -0.001832   0.535907  -0.000014  -0.000108
    23  H   -0.000000  -0.000001  -0.000000  -0.000014   0.575945  -0.032740
    24  H   -0.000000   0.000006  -0.000010  -0.000108  -0.032740   0.583597
    25  H    0.000000   0.000001  -0.000000  -0.000000  -0.005227   0.007024
    26  H    0.000000  -0.000001  -0.000006  -0.000226   0.005078  -0.004946
    27  H   -0.000000   0.000000  -0.000000  -0.000002  -0.002531   0.001285
              25         26         27
     1  C   -0.000000  -0.000000  -0.000000
     2  C    0.000000  -0.000000  -0.000000
     3  O    0.000000   0.000001   0.000000
     4  C    0.000079  -0.000049   0.000008
     5  O    0.000176   0.000019   0.000004
     6  C   -0.002446   0.003419  -0.000101
     7  C    0.000030  -0.000060  -0.000003
     8  C   -0.000023   0.000258   0.000003
     9  C    0.000076   0.000452   0.000060
    10  N    0.000810   0.007464   0.000510
    11  C   -0.002247   0.002486   0.000338
    12  O    0.003898  -0.001845   0.004466
    13  C   -0.031265  -0.045692  -0.033008
    14  C    0.399593   0.418003   0.393386
    15  H    0.000000   0.000000  -0.000000
    16  H   -0.000000  -0.000000  -0.000000
    17  H    0.000000   0.000000   0.000000
    18  H   -0.000000  -0.000000   0.000000
    19  H    0.000000   0.000000  -0.000000
    20  H    0.000001  -0.000001   0.000000
    21  H   -0.000000  -0.000006  -0.000000
    22  H   -0.000000  -0.000226  -0.000002
    23  H   -0.005227   0.005078  -0.002531
    24  H    0.007024  -0.004946   0.001285
    25  H    0.549158  -0.023689  -0.018807
    26  H   -0.023689   0.524699  -0.021047
    27  H   -0.018807  -0.021047   0.561541
 Mulliken charges:
               1
     1  C   -0.330104
     2  C   -0.046836
     3  O   -0.290582
     4  C    0.371676
     5  O   -0.341192
     6  C   -0.030327
     7  C   -0.148365
     8  C   -0.130842
     9  C   -0.026605
    10  N   -0.345902
    11  C    0.329251
    12  O   -0.238213
    13  C    0.006490
    14  C   -0.379760
    15  H    0.118788
    16  H    0.120859
    17  H    0.117337
    18  H    0.114792
    19  H    0.114553
    20  H    0.159973
    21  H    0.130479
    22  H    0.128936
    23  H    0.118733
    24  H    0.104418
    25  H    0.122859
    26  H    0.135683
    27  H    0.113899
 Sum of Mulliken charges =  -0.00000
 Mulliken charges with hydrogens summed into heavy atoms:
               1
     1  C    0.026881
     2  C    0.182509
     3  O   -0.290582
     4  C    0.371676
     5  O   -0.341192
     6  C   -0.030327
     7  C    0.011607
     8  C   -0.000363
     9  C    0.102331
    10  N   -0.345902
    11  C    0.329251
    12  O   -0.238213
    13  C    0.229641
    14  C   -0.007318
 Electronic spatial extent (au):  <R**2>=           3466.4644
 Charge=             -0.0000 electrons
 Dipole moment (field-independent basis, Debye):
    X=             -0.7956    Y=              2.0271    Z=              0.1918  Tot=              2.1861
 Quadrupole moment (field-independent basis, Debye-Ang):
   XX=            -69.0091   YY=            -79.3997   ZZ=            -82.7870
   XY=             -1.6319   XZ=             -0.8218   YZ=              0.8113
 Traceless Quadrupole moment (field-independent basis, Debye-Ang):
   XX=              8.0562   YY=             -2.3345   ZZ=             -5.7217
   XY=             -1.6319   XZ=             -0.8218   YZ=              0.8113
 Octapole moment (field-independent basis, Debye-Ang**2):
  XXX=            -34.4692  YYY=             18.7379  ZZZ=             -2.7553  XYY=             12.3180
  XXY=            -24.6584  XXZ=             -2.0880  XZZ=             -5.0389  YZZ=            -10.0409
  YYZ=              0.9925  XYZ=              1.9418
 Hexadecapole moment (field-independent basis, Debye-Ang**3):
 XXXX=          -3077.7092 YYYY=          -1092.1616 ZZZZ=           -168.4909 XXXY=             15.4939
 XXXZ=            -16.1335 YYYX=              5.2047 YYYZ=             12.5983 ZZZX=             -6.6174
 ZZZY=              1.9559 XXYY=           -686.1887 XXZZ=           -575.9874 YYZZ=           -231.4433
 XXYZ=              8.9136 YYXZ=             -6.5357 ZZXY=             -3.2737
 N-N= 8.939261558924D+02 E-N=-3.350952302237D+03  KE= 6.660513063681D+02
 Breneman (CHELPG) radii used.
 Read replacement radii for each type of atom:
 Atom Element Radius
    1     6    1.50
    2     6    1.50
    3     8    1.70
    4     6    1.50
    5     8    1.70
    6     6    1.50
    7     6    1.50
    8     6    1.50
    9     6    1.50
   10     7    1.70
   11     6    1.50
   12     8    1.70
   13     6    1.50
   14     6    1.50
   15     1    1.45
   16     1    1.45
   17     1    1.45
   18     1    1.45
   19     1    1.45
   20     1    1.45
   21     1    1.45
   22     1    1.45
   23     1    1.45
   24     1    1.45
   25     1    1.45
   26     1    1.45
   27     1    1.45
 Generate Potential Derived Charges using the Breneman model, NDens= 1.
 Grid spacing= 0.300 Box extension= 2.800
 NStep X,Y,Z=   55     41     28   Total possible points=       63140
 Number of Points to Fit=   17432

 **********************************************************************

            Electrostatic Properties Using The SCF Density.

 **********************************************************************

       Atomic Center    1 is at  -4.780449 -0.069982  0.092130
       Atomic Center    2 is at  -3.518999 -0.900981  0.048260
       Atomic Center    3 is at  -2.406909 -0.011631  0.012210
       Atomic Center    4 is at  -1.187209 -0.576791 -0.024480
       Atomic Center    5 is at  -1.026919 -1.767551 -0.036020
       Atomic Center    6 is at  -0.116359  0.463630 -0.038420
       Atomic Center    7 is at  -0.433500  1.813180  0.110550
       Atomic Center    8 is at   0.569470  2.779760  0.111520
       Atomic Center    9 is at   1.879080  2.343050 -0.041180
       Atomic Center   10 is at   2.211501  1.063520 -0.189300
       Atomic Center   11 is at   1.259381  0.139930 -0.194300
       Atomic Center   12 is at   1.597911 -1.129140 -0.366620
       Atomic Center   13 is at   2.970201 -1.482679 -0.509260
       Atomic Center   14 is at   3.673011 -1.581269  0.830610
       Atomic Center   15 is at  -4.856039  0.575108 -0.795130
       Atomic Center   16 is at  -5.661659 -0.726842  0.117800
       Atomic Center   17 is at  -4.799399  0.568108  0.987530
       Atomic Center   18 is at  -3.488549 -1.552721 -0.839180
       Atomic Center   19 is at  -3.429229 -1.556891  0.928680
       Atomic Center   20 is at  -1.480880  2.091939  0.227680
       Atomic Center   21 is at   0.340610  3.839010  0.230400
       Atomic Center   22 is at   2.708270  3.059041 -0.043270
       Atomic Center   23 is at   2.944582 -2.459239 -1.011290
       Atomic Center   24 is at   3.473421 -0.756969 -1.164290
       Atomic Center   25 is at   3.140812 -2.276099  1.496300
       Atomic Center   26 is at   3.728811 -0.595719  1.312980
       Atomic Center   27 is at   4.698311 -1.953879  0.687710
   17432 points will be used for fitting atomic charges
 Fitting point charges to electrostatic potential
 Charges from ESP fit, RMS=   0.00270 RRMS=   0.21805:
 ESP charges:
               1
     1  C   -0.279038
     2  C    0.352375
     3  O   -0.430121
     4  C    0.757943
     5  O   -0.536365
     6  C   -0.443975
     7  C    0.153860
     8  C   -0.341362
     9  C    0.247109
    10  N   -0.516953
    11  C    0.735337
    12  O   -0.438429
    13  C    0.344220
    14  C   -0.246782
    15  H    0.080315
    16  H    0.062631
    17  H    0.083965
    18  H   -0.004662
    19  H   -0.006842
    20  H    0.072036
    21  H    0.134610
    22  H    0.059499
    23  H    0.019495
    24  H   -0.047125
    25  H    0.076276
    26  H    0.054666
    27  H    0.057316
 Sum of ESP charges =  -0.00000
 ESP charges with hydrogens summed into heavy atoms:
               1
     1  C   -0.052127
     2  C    0.340871
     3  O   -0.430121
     4  C    0.757943
     5  O   -0.536365
     6  C   -0.443975
     7  C    0.225896
     8  C   -0.206752
     9  C    0.306608
    10  N   -0.516953
    11  C    0.735337
    12  O   -0.438429
    13  C    0.316590
    14  C   -0.058523
 Charge=  -0.00000 Dipole=    -0.8062     2.0868     0.1796 Tot=     2.2443
 -----------------------------------------------------------------

              Electrostatic Properties (Atomic Units)

 -----------------------------------------------------------------
    Center     Electric         -------- Electric Field --------
               Potential          X             Y             Z
 -----------------------------------------------------------------
    1 Atom    -14.768276
    2 Atom    -14.711083
    3 Atom    -22.318898
    4 Atom    -14.644604
    5 Atom    -22.389194
    6 Atom    -14.745309
    7 Atom    -14.743474
    8 Atom    -14.762532
    9 Atom    -14.723424
   10 Atom    -18.396863
   11 Atom    -14.663619
   12 Atom    -22.325536
   13 Atom    -14.718258
   14 Atom    -14.780586
   15 Atom     -1.114040
   16 Atom     -1.107836
   17 Atom     -1.113902
   18 Atom     -1.115714
   19 Atom     -1.115505
   20 Atom     -1.089637
   21 Atom     -1.092257
   22 Atom     -1.097071
   23 Atom     -1.120878
   24 Atom     -1.121919
   25 Atom     -1.124774
   26 Atom     -1.126344
   27 Atom     -1.117596
 -----------------------------------------------------------------
 Unable to Open any file for archive entry.
 1\1\GINC-NOTCH224\SP\RwB97XD\def2TZVP\C10H13N1O3\U6053008\12-Jul-2024\
 0\\#N Guess=Read Geom=Check Integral(Ultrafine) Density Pop=(ChelpG,Re
 adRadii) NMR wB97XD def2TZVP\\12326832_10\\0,1\C,0,-4.78045,-0.06998,0
 .09213\C,0,-3.519,-0.90098,0.04826\O,0,-2.40691,-0.01163,0.01221\C,0,-
 1.18721,-0.57679,-0.02448\O,0,-1.02692,-1.76755,-0.03602\C,0,-0.11636,
 0.46363,-0.03842\C,0,-0.4335,1.81318,0.11055\C,0,0.56947,2.77976,0.111
 52\C,0,1.87908,2.34305,-0.04118\N,0,2.2115,1.06352,-0.1893\C,0,1.25938
 ,0.13993,-0.1943\O,0,1.59791,-1.12914,-0.36662\C,0,2.9702,-1.48268,-0.
 50926\C,0,3.67301,-1.58127,0.83061\H,0,-4.85604,0.57511,-0.79513\H,0,-
 5.66166,-0.72684,0.1178\H,0,-4.7994,0.56811,0.98753\H,0,-3.48855,-1.55
 272,-0.83918\H,0,-3.42923,-1.55689,0.92868\H,0,-1.48088,2.09194,0.2276
 8\H,0,0.34061,3.83901,0.2304\H,0,2.70827,3.05904,-0.04327\H,0,2.94458,
 -2.45924,-1.01129\H,0,3.47342,-0.75697,-1.16429\H,0,3.14081,-2.2761,1.
 4963\H,0,3.72881,-0.59572,1.31298\H,0,4.69831,-1.95388,0.68771\\Versio
 n=ES64L-G16RevC.01\State=1-A\HF=-669.3633614\RMSD=2.758e-09\Dipole=-0.
 3130261,0.7975204,0.0754584\Quadrupole=5.9895945,-1.7356217,-4.2539728
 ,-1.213291,-0.6110194,0.603196\PG=C01 [X(C10H13N1O3)]\\@
 The archive entry for this job was punched.


 WE HAVE LEARNED THAT NOTHING IS SIMPLE AND
 RATIONAL EXCEPT WHAT WE OURSELVES HAVE INVENTED;
 THAT GOD THINKS IN TERMS NEITHER OF EUCLID OR RIEMANN; THAT SCIENCE HAS "EXPLAINED" NOTHING;
 THAT THE MORE WE KNOW THE MORE FANTASTIC THE WORLD BECOMES
 AND THE PROFOUNDER THE SURROUNDING DARKNESS.
   --  ALDOUS HUXLEY
 Job cpu time:       0 days  1 hours 14 minutes 24.4 seconds.
 Elapsed time:       0 days  0 hours  4 minutes 53.1 seconds.
 File lengths (MBytes):  RWF=    165 Int=      0 D2E=      0 Chk=     25 Scr=      2
 Normal termination of Gaussian 16 at Fri Jul 12 13:29:41 2024.
