 Entering Gaussian System, Link 0=g16
 Input=12326824_18.com
 Output=12326824_18.log
 Initial command:
 /uufs/chpc.utah.edu/sys/installdir/gaussian16/C01/AVX/g16/l1.exe "/scratch/general/vast/u6053008/1287117-notchpeak.peaks/Gau-3236077.inp" -scrdir="/scratch/general/vast/u6053008/1287117-notchpeak.peaks/"
 Entering Link 1 = /uufs/chpc.utah.edu/sys/installdir/gaussian16/C01/AVX/g16/l1.exe PID=   3236078.
  
 Copyright (c) 1988-2019, Gaussian, Inc.  All Rights Reserved.
  
 This is part of the Gaussian(R) 16 program.  It is based on
 the Gaussian(R) 09 system (copyright 2009, Gaussian, Inc.),
 the Gaussian(R) 03 system (copyright 2003, Gaussian, Inc.),
 the Gaussian(R) 98 system (copyright 1998, Gaussian, Inc.),
 the Gaussian(R) 94 system (copyright 1995, Gaussian, Inc.),
 the Gaussian 92(TM) system (copyright 1992, Gaussian, Inc.),
 the Gaussian 90(TM) system (copyright 1990, Gaussian, Inc.),
 the Gaussian 88(TM) system (copyright 1988, Gaussian, Inc.),
 the Gaussian 86(TM) system (copyright 1986, Carnegie Mellon
 University), and the Gaussian 82(TM) system (copyright 1983,
 Carnegie Mellon University). Gaussian is a federally registered
 trademark of Gaussian, Inc.
  
 This software contains proprietary and confidential information,
 including trade secrets, belonging to Gaussian, Inc.
  
 This software is provided under written license and may be
 used, copied, transmitted, or stored only in accord with that
 written license.
  
 The following legend is applicable only to US Government
 contracts under FAR:
  
                    RESTRICTED RIGHTS LEGEND
  
 Use, reproduction and disclosure by the US Government is
 subject to restrictions as set forth in subparagraphs (a)
 and (c) of the Commercial Computer Software - Restricted
 Rights clause in FAR 52.227-19.
  
 Gaussian, Inc.
 340 Quinnipiac St., Bldg. 40, Wallingford CT 06492
  
  
 ---------------------------------------------------------------
 Warning -- This program may not be used in any manner that
 competes with the business of Gaussian, Inc. or will provide
 assistance to any competitor of Gaussian, Inc.  The licensee
 of this program is prohibited from giving any competitor of
 Gaussian, Inc. access to this program.  By using this program,
 the user acknowledges that Gaussian, Inc. is engaged in the
 business of creating and licensing software in the field of
 computational chemistry and represents and warrants to the
 licensee that it is not a competitor of Gaussian, Inc. and that
 it will not use this program in any manner prohibited above.
 ---------------------------------------------------------------
  

 Cite this work as:
 Gaussian 16, Revision C.01,
 M. J. Frisch, G. W. Trucks, H. B. Schlegel, G. E. Scuseria, 
 M. A. Robb, J. R. Cheeseman, G. Scalmani, V. Barone, 
 G. A. Petersson, H. Nakatsuji, X. Li, M. Caricato, A. V. Marenich, 
 J. Bloino, B. G. Janesko, R. Gomperts, B. Mennucci, H. P. Hratchian, 
 J. V. Ortiz, A. F. Izmaylov, J. L. Sonnenberg, D. Williams-Young, 
 F. Ding, F. Lipparini, F. Egidi, J. Goings, B. Peng, A. Petrone, 
 T. Henderson, D. Ranasinghe, V. G. Zakrzewski, J. Gao, N. Rega, 
 G. Zheng, W. Liang, M. Hada, M. Ehara, K. Toyota, R. Fukuda, 
 J. Hasegawa, M. Ishida, T. Nakajima, Y. Honda, O. Kitao, H. Nakai, 
 T. Vreven, K. Throssell, J. A. Montgomery, Jr., J. E. Peralta, 
 F. Ogliaro, M. J. Bearpark, J. J. Heyd, E. N. Brothers, K. N. Kudin, 
 V. N. Staroverov, T. A. Keith, R. Kobayashi, J. Normand, 
 K. Raghavachari, A. P. Rendell, J. C. Burant, S. S. Iyengar, 
 J. Tomasi, M. Cossi, J. M. Millam, M. Klene, C. Adamo, R. Cammi, 
 J. W. Ochterski, R. L. Martin, K. Morokuma, O. Farkas, 
 J. B. Foresman, and D. J. Fox, Gaussian, Inc., Wallingford CT, 2019.
 
 ******************************************
 Gaussian 16:  ES64L-G16RevC.01  3-Jul-2019
                12-Jul-2024 
 ******************************************
 %NProcShared=16
 Will use up to   16 processors via shared memory.
 %Mem=32GB
 %chk=12326824_18.chk
 ------------------------------------------------------
 #N OPT FREQ=NORAMAN Integral(Ultrafine) wB97XD def2SVP
 ------------------------------------------------------
 1/18=20,19=15,26=4,38=1/1,3;
 2/9=110,12=2,17=6,18=5,40=1/2;
 3/5=43,7=101,11=2,25=1,30=1,71=1,74=-58,75=-5/1,2,3;
 4//1;
 5/5=2,38=5/2;
 6/7=2,8=2,9=2,10=2,28=1/1;
 7//1,2,3,16;
 1/18=20,19=15,26=4/3(2);
 2/9=110/2;
 99//99;
 2/9=110/2;
 3/5=43,7=101,11=2,25=1,30=1,71=1,74=-58,75=-5/1,2,3;
 4/5=5,16=3,69=1/1;
 5/5=2,38=5/2;
 7//1,2,3,16;
 1/18=20,19=15,26=4/3(-5);
 2/9=110/2;
 6/7=2,8=2,9=2,10=2,19=2,28=1/1;
 99/9=1/99;
 -----------
 12326824_18
 -----------
 Symbolic Z-matrix:
 Charge =  0 Multiplicity = 1
 C                     4.67479  -0.42153   0.26821 
 C                     3.35566  -1.10096  -0.01752 
 O                     2.32554  -0.12137   0.0815 
 C                     1.07308  -0.53981  -0.15793 
 O                     0.80895  -1.68374  -0.41777 
 C                     0.10146   0.59092  -0.07282 
 C                     0.55331   1.91547  -0.08457 
 N                    -0.2307    2.98833  -0.04336 
 C                    -1.54082   2.76764   0.02042 
 C                    -2.12414   1.50547   0.04692 
 C                    -1.2951    0.37475   0.00149 
 O                    -1.74652  -0.87295   0.03898 
 C                    -3.13563  -1.13337   0.1053 
 C                    -3.321    -2.63359   0.11614 
 H                     4.86929   0.37987  -0.45909 
 H                     5.49399  -1.15203   0.20493 
 H                     4.67906   0.0174    1.27624 
 H                     3.33355  -1.54836  -1.02392 
 H                     3.14956  -1.91303   0.69748 
 H                     1.63004   2.09552  -0.13729 
 H                    -2.18443   3.65394   0.05578 
 H                    -3.20779   1.41663   0.10555 
 H                    -3.64174  -0.6799   -0.76564 
 H                    -3.55912  -0.67589   1.01754 
 H                    -2.89019  -3.07914  -0.79102 
 H                    -4.39097  -2.8817    0.15995 
 H                    -2.81974  -3.07711   0.98754 
 

 GradGradGradGradGradGradGradGradGradGradGradGradGradGradGradGradGradGrad
 Berny optimization.
 Initialization pass.
                           ----------------------------
                           !    Initial Parameters    !
                           ! (Angstroms and Degrees)  !
 --------------------------                            --------------------------
 ! Name  Definition              Value          Derivative Info.                !
 --------------------------------------------------------------------------------
 ! R1    R(1,2)                  1.5111         estimate D2E/DX2                !
 ! R2    R(1,15)                 1.0996         estimate D2E/DX2                !
 ! R3    R(1,16)                 1.0994         estimate D2E/DX2                !
 ! R4    R(1,17)                 1.0995         estimate D2E/DX2                !
 ! R5    R(2,3)                  1.425          estimate D2E/DX2                !
 ! R6    R(2,18)                 1.1016         estimate D2E/DX2                !
 ! R7    R(2,19)                 1.1014         estimate D2E/DX2                !
 ! R8    R(3,4)                  1.342          estimate D2E/DX2                !
 ! R9    R(4,5)                  1.2024         estimate D2E/DX2                !
 ! R10   R(4,6)                  1.4933         estimate D2E/DX2                !
 ! R11   R(6,7)                  1.3995         estimate D2E/DX2                !
 ! R12   R(6,11)                 1.4151         estimate D2E/DX2                !
 ! R13   R(7,8)                  1.3294         estimate D2E/DX2                !
 ! R14   R(7,20)                 1.093          estimate D2E/DX2                !
 ! R15   R(8,9)                  1.3301         estimate D2E/DX2                !
 ! R16   R(9,10)                 1.3907         estimate D2E/DX2                !
 ! R17   R(9,21)                 1.0959         estimate D2E/DX2                !
 ! R18   R(10,11)                1.4028         estimate D2E/DX2                !
 ! R19   R(10,22)                1.0889         estimate D2E/DX2                !
 ! R20   R(11,12)                1.3274         estimate D2E/DX2                !
 ! R21   R(12,13)                1.4149         estimate D2E/DX2                !
 ! R22   R(13,14)                1.5117         estimate D2E/DX2                !
 ! R23   R(13,23)                1.1047         estimate D2E/DX2                !
 ! R24   R(13,24)                1.1049         estimate D2E/DX2                !
 ! R25   R(14,25)                1.0987         estimate D2E/DX2                !
 ! R26   R(14,26)                1.0992         estimate D2E/DX2                !
 ! R27   R(14,27)                1.0988         estimate D2E/DX2                !
 ! A1    A(2,1,15)             110.9193         estimate D2E/DX2                !
 ! A2    A(2,1,16)             109.9275         estimate D2E/DX2                !
 ! A3    A(2,1,17)             110.8707         estimate D2E/DX2                !
 ! A4    A(15,1,16)            108.3242         estimate D2E/DX2                !
 ! A5    A(15,1,17)            108.3479         estimate D2E/DX2                !
 ! A6    A(16,1,17)            108.3692         estimate D2E/DX2                !
 ! A7    A(1,2,3)              107.9892         estimate D2E/DX2                !
 ! A8    A(1,2,18)             111.8937         estimate D2E/DX2                !
 ! A9    A(1,2,19)             111.8456         estimate D2E/DX2                !
 ! A10   A(3,2,18)             109.158          estimate D2E/DX2                !
 ! A11   A(3,2,19)             109.0542         estimate D2E/DX2                !
 ! A12   A(18,2,19)            106.8498         estimate D2E/DX2                !
 ! A13   A(2,3,4)              116.6098         estimate D2E/DX2                !
 ! A14   A(3,4,5)              122.6955         estimate D2E/DX2                !
 ! A15   A(3,4,6)              111.1599         estimate D2E/DX2                !
 ! A16   A(5,4,6)              126.1403         estimate D2E/DX2                !
 ! A17   A(4,6,7)              120.4039         estimate D2E/DX2                !
 ! A18   A(4,6,11)             121.9681         estimate D2E/DX2                !
 ! A19   A(7,6,11)             117.6212         estimate D2E/DX2                !
 ! A20   A(6,7,8)              124.9667         estimate D2E/DX2                !
 ! A21   A(6,7,20)             118.3187         estimate D2E/DX2                !
 ! A22   A(8,7,20)             116.7135         estimate D2E/DX2                !
 ! A23   A(7,8,9)              116.6448         estimate D2E/DX2                !
 ! A24   A(8,9,10)             124.3773         estimate D2E/DX2                !
 ! A25   A(8,9,21)             116.476          estimate D2E/DX2                !
 ! A26   A(10,9,21)            119.1466         estimate D2E/DX2                !
 ! A27   A(9,10,11)            118.8842         estimate D2E/DX2                !
 ! A28   A(9,10,22)            119.5057         estimate D2E/DX2                !
 ! A29   A(11,10,22)           121.6098         estimate D2E/DX2                !
 ! A30   A(6,11,10)            117.5031         estimate D2E/DX2                !
 ! A31   A(6,11,12)            118.7302         estimate D2E/DX2                !
 ! A32   A(10,11,12)           123.7625         estimate D2E/DX2                !
 ! A33   A(11,12,13)           120.5458         estimate D2E/DX2                !
 ! A34   A(12,13,14)           107.6617         estimate D2E/DX2                !
 ! A35   A(12,13,23)           109.7124         estimate D2E/DX2                !
 ! A36   A(12,13,24)           109.8036         estimate D2E/DX2                !
 ! A37   A(14,13,23)           110.9076         estimate D2E/DX2                !
 ! A38   A(14,13,24)           110.9767         estimate D2E/DX2                !
 ! A39   A(23,13,24)           107.7802         estimate D2E/DX2                !
 ! A40   A(13,14,25)           110.3933         estimate D2E/DX2                !
 ! A41   A(13,14,26)           110.0994         estimate D2E/DX2                !
 ! A42   A(13,14,27)           110.5079         estimate D2E/DX2                !
 ! A43   A(25,14,26)           108.8479         estimate D2E/DX2                !
 ! A44   A(25,14,27)           108.1948         estimate D2E/DX2                !
 ! A45   A(26,14,27)           108.7438         estimate D2E/DX2                !
 ! D1    D(15,1,2,3)           -60.5008         estimate D2E/DX2                !
 ! D2    D(15,1,2,18)           59.655          estimate D2E/DX2                !
 ! D3    D(15,1,2,19)          179.501          estimate D2E/DX2                !
 ! D4    D(16,1,2,3)           179.7241         estimate D2E/DX2                !
 ! D5    D(16,1,2,18)          -60.12           estimate D2E/DX2                !
 ! D6    D(16,1,2,19)           59.7259         estimate D2E/DX2                !
 ! D7    D(17,1,2,3)            59.924          estimate D2E/DX2                !
 ! D8    D(17,1,2,18)         -179.9202         estimate D2E/DX2                !
 ! D9    D(17,1,2,19)          -60.0742         estimate D2E/DX2                !
 ! D10   D(1,2,3,4)            179.234          estimate D2E/DX2                !
 ! D11   D(18,2,3,4)            57.374          estimate D2E/DX2                !
 ! D12   D(19,2,3,4)           -59.0262         estimate D2E/DX2                !
 ! D13   D(2,3,4,5)              1.4644         estimate D2E/DX2                !
 ! D14   D(2,3,4,6)           -177.8246         estimate D2E/DX2                !
 ! D15   D(3,4,6,7)             14.8189         estimate D2E/DX2                !
 ! D16   D(3,4,6,11)          -166.1488         estimate D2E/DX2                !
 ! D17   D(5,4,6,7)           -164.4402         estimate D2E/DX2                !
 ! D18   D(5,4,6,11)            14.5921         estimate D2E/DX2                !
 ! D19   D(4,6,7,8)            178.4324         estimate D2E/DX2                !
 ! D20   D(4,6,7,20)            -1.1906         estimate D2E/DX2                !
 ! D21   D(11,6,7,8)            -0.641          estimate D2E/DX2                !
 ! D22   D(11,6,7,20)          179.736          estimate D2E/DX2                !
 ! D23   D(4,6,11,10)         -178.5514         estimate D2E/DX2                !
 ! D24   D(4,6,11,12)            2.1713         estimate D2E/DX2                !
 ! D25   D(7,6,11,10)            0.5066         estimate D2E/DX2                !
 ! D26   D(7,6,11,12)         -178.7707         estimate D2E/DX2                !
 ! D27   D(6,7,8,9)              0.354          estimate D2E/DX2                !
 ! D28   D(20,7,8,9)           179.9825         estimate D2E/DX2                !
 ! D29   D(7,8,9,10)             0.0519         estimate D2E/DX2                !
 ! D30   D(7,8,9,21)           179.9116         estimate D2E/DX2                !
 ! D31   D(8,9,10,11)           -0.1397         estimate D2E/DX2                !
 ! D32   D(8,9,10,22)          179.6544         estimate D2E/DX2                !
 ! D33   D(21,9,10,11)        -179.9959         estimate D2E/DX2                !
 ! D34   D(21,9,10,22)          -0.2017         estimate D2E/DX2                !
 ! D35   D(9,10,11,6)           -0.1556         estimate D2E/DX2                !
 ! D36   D(9,10,11,12)         179.0821         estimate D2E/DX2                !
 ! D37   D(22,10,11,6)        -179.9453         estimate D2E/DX2                !
 ! D38   D(22,10,11,12)         -0.7076         estimate D2E/DX2                !
 ! D39   D(6,11,12,13)        -179.6191         estimate D2E/DX2                !
 ! D40   D(10,11,12,13)          1.152          estimate D2E/DX2                !
 ! D41   D(11,12,13,14)        179.2811         estimate D2E/DX2                !
 ! D42   D(11,12,13,23)         58.4899         estimate D2E/DX2                !
 ! D43   D(11,12,13,24)        -59.7904         estimate D2E/DX2                !
 ! D44   D(12,13,14,25)        -59.3909         estimate D2E/DX2                !
 ! D45   D(12,13,14,26)       -179.5932         estimate D2E/DX2                !
 ! D46   D(12,13,14,27)         60.2608         estimate D2E/DX2                !
 ! D47   D(23,13,14,25)         60.6468         estimate D2E/DX2                !
 ! D48   D(23,13,14,26)        -59.5555         estimate D2E/DX2                !
 ! D49   D(23,13,14,27)       -179.7016         estimate D2E/DX2                !
 ! D50   D(24,13,14,25)       -179.5808         estimate D2E/DX2                !
 ! D51   D(24,13,14,26)         60.2169         estimate D2E/DX2                !
 ! D52   D(24,13,14,27)        -59.9291         estimate D2E/DX2                !
 --------------------------------------------------------------------------------
 Trust Radius=3.00D-01 FncErr=1.00D-07 GrdErr=1.00D-06 EigMax=2.50D+02 EigMin=1.00D-04
 Number of steps in this run=    134 maximum allowed number of steps=    162.
 GradGradGradGradGradGradGradGradGradGradGradGradGradGradGradGradGradGrad

                          Input orientation:                          
 ---------------------------------------------------------------------
 Center     Atomic      Atomic             Coordinates (Angstroms)
 Number     Number       Type             X           Y           Z
 ---------------------------------------------------------------------
      1          6           0        4.674790   -0.421530    0.268210
      2          6           0        3.355660   -1.100960   -0.017520
      3          8           0        2.325540   -0.121370    0.081500
      4          6           0        1.073080   -0.539810   -0.157930
      5          8           0        0.808950   -1.683740   -0.417770
      6          6           0        0.101460    0.590920   -0.072820
      7          6           0        0.553310    1.915470   -0.084570
      8          7           0       -0.230700    2.988330   -0.043360
      9          6           0       -1.540820    2.767640    0.020420
     10          6           0       -2.124140    1.505470    0.046920
     11          6           0       -1.295100    0.374750    0.001490
     12          8           0       -1.746520   -0.872950    0.038980
     13          6           0       -3.135630   -1.133370    0.105300
     14          6           0       -3.321000   -2.633590    0.116140
     15          1           0        4.869290    0.379870   -0.459090
     16          1           0        5.493990   -1.152030    0.204930
     17          1           0        4.679060    0.017400    1.276240
     18          1           0        3.333550   -1.548360   -1.023920
     19          1           0        3.149560   -1.913030    0.697480
     20          1           0        1.630040    2.095520   -0.137290
     21          1           0       -2.184430    3.653940    0.055780
     22          1           0       -3.207790    1.416630    0.105550
     23          1           0       -3.641740   -0.679900   -0.765640
     24          1           0       -3.559120   -0.675890    1.017540
     25          1           0       -2.890190   -3.079140   -0.791020
     26          1           0       -4.390970   -2.881700    0.159950
     27          1           0       -2.819740   -3.077110    0.987540
 ---------------------------------------------------------------------
                    Distance matrix (angstroms):
                    1          2          3          4          5
     1  C    0.000000
     2  C    1.511083   0.000000
     3  O    2.375696   1.424973   0.000000
     4  C    3.628760   2.354735   1.342041   0.000000
     5  O    4.124132   2.643022   2.233901   1.202438   0.000000
     6  C    4.696457   3.668151   2.340449   1.493265   2.406992
     7  C    4.751065   4.117828   2.705013   2.510765   3.623629
     8  N    5.982312   5.439204   4.027429   3.763076   4.800968
     9  C    6.990423   6.240434   4.826888   4.219420   5.052545
    10  C    7.070201   6.068430   4.737875   3.800967   4.357753
    11  C    6.028664   4.879308   3.655348   2.543641   2.973245
    12  O    6.441238   5.107585   4.141057   2.846032   2.719637
    13  C    7.844483   6.492533   5.554196   4.258502   4.016992
    14  C    8.297529   6.851614   6.180280   4.875138   4.271272
    15  H    1.099562   2.163081   2.648423   3.917616   4.554839
    16  H    1.099420   2.150476   3.334152   4.477826   4.756056
    17  H    1.099455   2.162390   2.643051   3.920513   4.554262
    18  H    2.176757   1.101588   2.067447   2.622372   2.599875
    19  H    2.176045   1.101435   2.066031   2.632343   2.602847
    20  H    3.971206   3.634500   2.333707   2.693621   3.877585
    21  H    7.981446   7.301167   5.881620   5.314563   6.138029
    22  H    8.095700   7.030809   5.743149   4.714120   5.101015
    23  H    8.384526   7.049864   6.052936   4.755887   4.575735
    24  H    8.271848   7.004728   5.984387   4.780954   4.707007
    25  H    8.087879   6.597131   6.059169   4.749369   3.971158
    26  H    9.394262   7.950648   7.262030   5.953263   5.367312
    27  H    7.983578   6.561317   6.002601   4.785817   4.133251
                    6          7          8          9         10
     6  C    0.000000
     7  C    1.399550   0.000000
     8  N    2.420490   1.329435   0.000000
     9  C    2.728349   2.263316   1.330108   0.000000
    10  C    2.409156   2.711850   2.406686   1.390697   0.000000
    11  C    1.415144   2.407871   2.822368   2.405548   1.402818
    12  O    2.360179   3.616596   4.148973   3.646444   2.408224
    13  C    3.672010   4.789546   5.044713   4.215270   2.826658
    14  C    4.705997   5.978671   6.417272   5.687837   4.309186
    15  H    4.788105   4.596305   5.743413   6.857178   7.101485
    16  H    5.674011   5.822687   7.069392   8.055210   8.069893
    17  H    4.806590   4.740916   5.888422   6.915765   7.071712
    18  H    3.990929   4.539849   5.852088   6.593784   6.344995
    19  H    4.019209   4.691431   5.999861   6.660837   6.318329
    20  H    2.145818   1.092952   2.065983   3.245146   3.804729
    21  H    3.824124   3.246105   2.066380   1.095907   2.149334
    22  H    3.415369   3.798797   3.369789   2.147385   1.088865
    23  H    4.013294   4.979784   5.060908   4.113063   2.781943
    24  H    4.024120   4.984162   5.062647   4.114083   2.785606
    25  H    4.789063   6.107609   6.666789   6.055086   4.723095
    26  H    5.682886   6.893369   7.197669   6.329128   4.939489
    27  H    4.807517   6.119864   6.674987   6.060698   4.729552
                   11         12         13         14         15
    11  C    0.000000
    12  O    1.327381   0.000000
    13  C    2.381754   1.414865   0.000000
    14  C    3.628708   2.363217   1.511668   0.000000
    15  H    6.181575   6.751783   8.166222   8.746009   0.000000
    16  H    6.961623   7.247787   8.630215   8.939069   1.782664
    17  H    6.119091   6.603909   7.985283   8.507323   1.782959
    18  H    5.116075   5.233837   6.580095   6.838165   2.528953
    19  H    5.047112   5.048464   6.360987   6.536460   3.090714
    20  H    3.396580   4.499338   5.761614   6.851387   3.679640
    21  H    3.398079   4.548052   4.881144   6.389716   7.793561
    22  H    2.180533   2.716969   2.551021   4.051816   8.162898
    23  H    2.684678   2.067980   1.104680   2.167329   8.582233
    24  H    2.694808   2.069283   1.104904   2.168366   8.621668
    25  H    3.886096   2.619953   2.156305   1.098659   8.502027
    26  H    4.495997   3.323075   2.153026   1.099233   9.837350
    27  H    3.900277   2.628667   2.157837   1.098776   8.553633
                   16         17         18         19         20
    16  H    0.000000
    17  H    1.783082   0.000000
    18  H    2.516873   3.090750   0.000000
    19  H    2.513579   2.529999   1.769196   0.000000
    20  H    5.059032   3.951351   4.118971   4.367408   0.000000
    21  H    9.059676   7.862661   7.660142   7.736561   4.125061
    22  H    9.073526   8.095107   7.270213   7.200897   4.891264
    23  H    9.199265   8.596000   7.033890   7.055713   5.990780
    24  H    9.101969   8.271347   7.241385   6.829300   5.995142
    25  H    8.660262   8.435382   6.413460   6.328825   6.901952
    26  H   10.035249   9.587300   7.927645   7.621473   7.817521
    27  H    8.569511   8.117348   6.651769   6.088658   6.915337
                   21         22         23         24         25
    21  H    0.000000
    22  H    2.460752   0.000000
    23  H    4.645498   2.311433   0.000000
    24  H    4.643510   2.309502   1.785097   0.000000
    25  H    6.822722   4.595286   2.514324   3.081228   0.000000
    26  H    6.898859   4.458533   2.503195   2.508592   1.787643
    27  H    6.824868   4.595888   3.081548   2.512656   1.779956
                   26         27
    26  H    0.000000
    27  H    1.786576   0.000000
 Stoichiometry    C10H13NO3
 Framework group  C1[X(C10H13NO3)]
 Deg. of freedom    75
 Full point group                 C1      NOp   1
 Largest Abelian subgroup         C1      NOp   1
 Largest concise Abelian subgroup C1      NOp   1
                         Standard orientation:                         
 ---------------------------------------------------------------------
 Center     Atomic      Atomic             Coordinates (Angstroms)
 Number     Number       Type             X           Y           Z
 ---------------------------------------------------------------------
      1          6           0        4.674790   -0.421530    0.268210
      2          6           0        3.355660   -1.100960   -0.017520
      3          8           0        2.325540   -0.121370    0.081500
      4          6           0        1.073080   -0.539810   -0.157930
      5          8           0        0.808950   -1.683740   -0.417770
      6          6           0        0.101460    0.590920   -0.072820
      7          6           0        0.553310    1.915470   -0.084570
      8          7           0       -0.230700    2.988330   -0.043360
      9          6           0       -1.540820    2.767640    0.020420
     10          6           0       -2.124140    1.505470    0.046920
     11          6           0       -1.295100    0.374750    0.001490
     12          8           0       -1.746520   -0.872950    0.038980
     13          6           0       -3.135630   -1.133370    0.105300
     14          6           0       -3.321000   -2.633590    0.116140
     15          1           0        4.869290    0.379870   -0.459090
     16          1           0        5.493990   -1.152030    0.204930
     17          1           0        4.679060    0.017400    1.276240
     18          1           0        3.333550   -1.548360   -1.023920
     19          1           0        3.149560   -1.913030    0.697480
     20          1           0        1.630040    2.095520   -0.137290
     21          1           0       -2.184430    3.653940    0.055780
     22          1           0       -3.207790    1.416630    0.105550
     23          1           0       -3.641740   -0.679900   -0.765640
     24          1           0       -3.559120   -0.675890    1.017540
     25          1           0       -2.890190   -3.079140   -0.791020
     26          1           0       -4.390970   -2.881700    0.159950
     27          1           0       -2.819740   -3.077110    0.987540
 ---------------------------------------------------------------------
 Rotational constants (GHZ):           0.9404104           0.4579656           0.3122943
 Standard basis: def2SVP (5D, 7F)
 There are   275 symmetry adapted cartesian basis functions of A   symmetry.
 There are   261 symmetry adapted basis functions of A   symmetry.
   261 basis functions,   441 primitive gaussians,   275 cartesian basis functions
    52 alpha electrons       52 beta electrons
       nuclear repulsion energy       888.0213005357 Hartrees.
 NAtoms=   27 NActive=   27 NUniq=   27 SFac= 1.00D+00 NAtFMM=   60 NAOKFM=F Big=F
 Integral buffers will be    131072 words long.
 Raffenetti 2 integral format.
 Two-electron integral symmetry is turned on.
 Nuclear repulsion after empirical dispersion term =      888.0070190806 Hartrees.
 One-electron integrals computed using PRISM.
   1 Symmetry operations used in ECPInt.
 ECPInt:  NShTT=    7626 NPrTT=   27482 LenC2=    7061 LenP2D=   18307.
 LDataN:  DoStor=T MaxTD1= 4 Len=   56
 NBasis=   261 RedAO= T EigKep=  5.34D-04  NBF=   261
 NBsUse=   261 1.00D-06 EigRej= -1.00D+00 NBFU=   261
 ExpMin= 1.22D-01 ExpMax= 2.27D+03 ExpMxC= 3.41D+02 IAcc=3 IRadAn=         5 AccDes= 0.00D+00
 Harris functional with IExCor= 4639 and IRadAn=       5 diagonalized for initial guess.
 HarFok:  IExCor= 4639 AccDes= 0.00D+00 IRadAn=         5 IDoV= 1 UseB2=F ITyADJ=14
 ICtDFT=  3500011 ScaDFX=  1.000000  1.000000  1.000000  1.000000
 FoFCou: FMM=F IPFlag=           0 FMFlag=      100000 FMFlg1=           0
         NFxFlg=           0 DoJE=T BraDBF=F KetDBF=T FulRan=T
         wScrn=  0.000000 ICntrl=       500 IOpCl=  0 I1Cent=   200000004 NGrid=           0
         NMat0=    1 NMatS0=      1 NMatT0=    0 NMatD0=    1 NMtDS0=    0 NMtDT0=    0
 Petite list used in FoFCou.
 Requested convergence on RMS density matrix=1.00D-08 within 128 cycles.
 Requested convergence on MAX density matrix=1.00D-06.
 Requested convergence on             energy=1.00D-06.
 No special actions if energy rises.
 Integral accuracy reduced to 1.0D-05 until final iterations.
 Initial convergence to 1.0D-05 achieved.  Increase integral accuracy.
 SCF Done:  E(RwB97XD) =  -668.619007854     A.U. after   16 cycles
            NFock= 16  Conv=0.48D-08     -V/T= 2.0098

 **********************************************************************

            Population analysis using the SCF Density.

 **********************************************************************

 Orbital symmetries:
       Occupied  (A) (A) (A) (A) (A) (A) (A) (A) (A) (A) (A) (A)
                 (A) (A) (A) (A) (A) (A) (A) (A) (A) (A) (A) (A)
                 (A) (A) (A) (A) (A) (A) (A) (A) (A) (A) (A) (A)
                 (A) (A) (A) (A) (A) (A) (A) (A) (A) (A) (A) (A)
                 (A) (A) (A) (A)
       Virtual   (A) (A) (A) (A) (A) (A) (A) (A) (A) (A) (A) (A)
                 (A) (A) (A) (A) (A) (A) (A) (A) (A) (A) (A) (A)
                 (A) (A) (A) (A) (A) (A) (A) (A) (A) (A) (A) (A)
                 (A) (A) (A) (A) (A) (A) (A) (A) (A) (A) (A) (A)
                 (A) (A) (A) (A) (A) (A) (A) (A) (A) (A) (A) (A)
                 (A) (A) (A) (A) (A) (A) (A) (A) (A) (A) (A) (A)
                 (A) (A) (A) (A) (A) (A) (A) (A) (A) (A) (A) (A)
                 (A) (A) (A) (A) (A) (A) (A) (A) (A) (A) (A) (A)
                 (A) (A) (A) (A) (A) (A) (A) (A) (A) (A) (A) (A)
                 (A) (A) (A) (A) (A) (A) (A) (A) (A) (A) (A) (A)
                 (A) (A) (A) (A) (A) (A) (A) (A) (A) (A) (A) (A)
                 (A) (A) (A) (A) (A) (A) (A) (A) (A) (A) (A) (A)
                 (A) (A) (A) (A) (A) (A) (A) (A) (A) (A) (A) (A)
                 (A) (A) (A) (A) (A) (A) (A) (A) (A) (A) (A) (A)
                 (A) (A) (A) (A) (A) (A) (A) (A) (A) (A) (A) (A)
                 (A) (A) (A) (A) (A) (A) (A) (A) (A) (A) (A) (A)
                 (A) (A) (A) (A) (A) (A) (A) (A) (A) (A) (A) (A)
                 (A) (A) (A) (A) (A)
 The electronic state is 1-A.
 Alpha  occ. eigenvalues --  -19.30418 -19.29677 -19.23651 -14.43543 -10.42653
 Alpha  occ. eigenvalues --  -10.39251 -10.36845 -10.35394 -10.34455 -10.34160
 Alpha  occ. eigenvalues --  -10.31753 -10.31284 -10.30193 -10.29808  -1.20074
 Alpha  occ. eigenvalues --   -1.18786  -1.10377  -1.04281  -0.91879  -0.88477
 Alpha  occ. eigenvalues --   -0.86317  -0.85296  -0.76431  -0.75788  -0.71846
 Alpha  occ. eigenvalues --   -0.69430  -0.66371  -0.64864  -0.61114  -0.60089
 Alpha  occ. eigenvalues --   -0.59310  -0.58435  -0.55137  -0.54781  -0.53738
 Alpha  occ. eigenvalues --   -0.52353  -0.50702  -0.49964  -0.48877  -0.48164
 Alpha  occ. eigenvalues --   -0.48076  -0.47222  -0.46588  -0.44439  -0.43472
 Alpha  occ. eigenvalues --   -0.42850  -0.42698  -0.38271  -0.35967  -0.34940
 Alpha  occ. eigenvalues --   -0.33608  -0.33200
 Alpha virt. eigenvalues --    0.01869   0.05463   0.12627   0.13558   0.14485
 Alpha virt. eigenvalues --    0.15355   0.18013   0.18734   0.18821   0.19517
 Alpha virt. eigenvalues --    0.20145   0.20984   0.21188   0.21506   0.23242
 Alpha virt. eigenvalues --    0.23628   0.24309   0.24757   0.25371   0.27911
 Alpha virt. eigenvalues --    0.29733   0.30799   0.31218   0.32809   0.36235
 Alpha virt. eigenvalues --    0.37154   0.39970   0.41156   0.42615   0.46023
 Alpha virt. eigenvalues --    0.48055   0.48587   0.49715   0.49880   0.50219
 Alpha virt. eigenvalues --    0.51928   0.52824   0.53223   0.55818   0.56746
 Alpha virt. eigenvalues --    0.56900   0.57540   0.58599   0.59673   0.60031
 Alpha virt. eigenvalues --    0.63345   0.66474   0.67329   0.68185   0.68330
 Alpha virt. eigenvalues --    0.69245   0.69645   0.71283   0.71444   0.72294
 Alpha virt. eigenvalues --    0.73138   0.73898   0.74413   0.74541   0.75751
 Alpha virt. eigenvalues --    0.76119   0.76282   0.76920   0.77223   0.77799
 Alpha virt. eigenvalues --    0.77828   0.78247   0.78277   0.79902   0.80743
 Alpha virt. eigenvalues --    0.81411   0.82460   0.84336   0.87083   0.88418
 Alpha virt. eigenvalues --    0.92436   0.95535   0.96471   0.99003   1.01992
 Alpha virt. eigenvalues --    1.02186   1.06494   1.10493   1.10912   1.12374
 Alpha virt. eigenvalues --    1.14510   1.16789   1.18418   1.20021   1.21764
 Alpha virt. eigenvalues --    1.23323   1.24968   1.26674   1.30280   1.31704
 Alpha virt. eigenvalues --    1.32622   1.34856   1.36535   1.38154   1.41802
 Alpha virt. eigenvalues --    1.42786   1.42834   1.42902   1.43852   1.45990
 Alpha virt. eigenvalues --    1.50559   1.53225   1.56474   1.59627   1.61163
 Alpha virt. eigenvalues --    1.61329   1.63025   1.67131   1.68886   1.71494
 Alpha virt. eigenvalues --    1.76528   1.77134   1.78603   1.80737   1.80804
 Alpha virt. eigenvalues --    1.81685   1.83219   1.83603   1.84429   1.85185
 Alpha virt. eigenvalues --    1.85304   1.86073   1.86097   1.86665   1.87803
 Alpha virt. eigenvalues --    1.89049   1.89554   1.89850   1.90639   1.91062
 Alpha virt. eigenvalues --    1.94604   1.94990   1.95982   1.97526   1.98241
 Alpha virt. eigenvalues --    1.99651   2.01952   2.03054   2.05782   2.07413
 Alpha virt. eigenvalues --    2.09075   2.11468   2.12363   2.14770   2.19254
 Alpha virt. eigenvalues --    2.22123   2.23807   2.23879   2.25215   2.27707
 Alpha virt. eigenvalues --    2.28967   2.32039   2.36502   2.38588   2.42451
 Alpha virt. eigenvalues --    2.43320   2.44190   2.44938   2.45866   2.48113
 Alpha virt. eigenvalues --    2.49948   2.53114   2.55535   2.55633   2.59876
 Alpha virt. eigenvalues --    2.62192   2.62951   2.64386   2.69579   2.69706
 Alpha virt. eigenvalues --    2.73010   2.74372   2.76399   2.76710   2.80774
 Alpha virt. eigenvalues --    2.82398   2.87651   2.88545   2.92281   2.93108
 Alpha virt. eigenvalues --    2.93775   2.95027   2.98197   2.99903   3.01047
 Alpha virt. eigenvalues --    3.02546   3.02671   3.05208   3.06121   3.07031
 Alpha virt. eigenvalues --    3.11611   3.13107   3.17038   3.18553   3.20052
 Alpha virt. eigenvalues --    3.29069   3.31997   3.40156   3.51012   3.55765
 Alpha virt. eigenvalues --    3.59375   3.68946   3.78492   3.83656
          Condensed to atoms (all electrons):
               1          2          3          4          5          6
     1  C    4.597783   0.409497  -0.045647   0.006318   0.001524   0.000986
     2  C    0.409497   4.481936   0.257178  -0.033576  -0.002601   0.009341
     3  O   -0.045647   0.257178   7.986454   0.410244  -0.082889  -0.159714
     4  C    0.006318  -0.033576   0.410244   4.547662   0.741277   0.119907
     5  O    0.001524  -0.002601  -0.082889   0.741277   7.653559  -0.102349
     6  C    0.000986   0.009341  -0.159714   0.119907  -0.102349   5.830551
     7  C   -0.000451  -0.000352   0.014911  -0.032098   0.002427   0.434525
     8  N   -0.000001  -0.000006   0.000296   0.006805  -0.000007  -0.037549
     9  C    0.000000   0.000002  -0.000032   0.000621  -0.000030  -0.055558
    10  C   -0.000000   0.000006  -0.000000   0.014337   0.000278  -0.061207
    11  C    0.000022   0.000009  -0.000288  -0.055947   0.002097   0.359911
    12  O    0.000000   0.000012  -0.000013   0.008149  -0.006348  -0.102720
    13  C    0.000000  -0.000000   0.000001  -0.000698  -0.000118   0.008574
    14  C   -0.000000  -0.000000   0.000000  -0.000212   0.000117   0.000422
    15  H    0.389861  -0.017744   0.001465  -0.000198  -0.000039  -0.000205
    16  H    0.381721  -0.014026   0.003236   0.000004   0.000023   0.000010
    17  H    0.389485  -0.018041   0.001844  -0.000107  -0.000035  -0.000113
    18  H   -0.027507   0.397801  -0.029846  -0.003461   0.008627   0.001590
    19  H   -0.026776   0.397567  -0.028164  -0.004148   0.008574  -0.000070
    20  H   -0.000210  -0.000681   0.013665  -0.013414   0.000206  -0.061487
    21  H    0.000000   0.000000  -0.000000   0.000067  -0.000000   0.001238
    22  H    0.000000  -0.000000   0.000001  -0.000127   0.000003   0.012544
    23  H    0.000000   0.000000  -0.000000   0.000113  -0.000036  -0.000472
    24  H    0.000000   0.000000  -0.000000   0.000029  -0.000035  -0.000491
    25  H   -0.000000   0.000000   0.000000   0.000083   0.000262  -0.000200
    26  H    0.000000   0.000000   0.000000   0.000008   0.000001  -0.000003
    27  H   -0.000000  -0.000000   0.000000   0.000081   0.000095  -0.000202
               7          8          9         10         11         12
     1  C   -0.000451  -0.000001   0.000000  -0.000000   0.000022   0.000000
     2  C   -0.000352  -0.000006   0.000002   0.000006   0.000009   0.000012
     3  O    0.014911   0.000296  -0.000032  -0.000000  -0.000288  -0.000013
     4  C   -0.032098   0.006805   0.000621   0.014337  -0.055947   0.008149
     5  O    0.002427  -0.000007  -0.000030   0.000278   0.002097  -0.006348
     6  C    0.434525  -0.037549  -0.055558  -0.061207   0.359911  -0.102720
     7  C    4.702110   0.529411  -0.069194  -0.050435  -0.040588   0.001322
     8  N    0.529411   6.290649   0.527449  -0.041804  -0.057137  -0.000073
     9  C   -0.069194   0.527449   4.715990   0.424655   0.006461   0.003191
    10  C   -0.050435  -0.041804   0.424655   5.166236   0.408689  -0.077262
    11  C   -0.040588  -0.057137   0.006461   0.408689   4.772275   0.462089
    12  O    0.001322  -0.000073   0.003191  -0.077262   0.462089   7.828679
    13  C   -0.000095   0.000006   0.000715  -0.003140  -0.050597   0.278524
    14  C    0.000012   0.000000  -0.000011   0.000648   0.004617  -0.050865
    15  H    0.000020   0.000001  -0.000000  -0.000000   0.000002  -0.000000
    16  H    0.000005   0.000000  -0.000000   0.000000  -0.000000   0.000000
    17  H    0.000020  -0.000000  -0.000000   0.000000  -0.000004   0.000000
    18  H   -0.000074   0.000000  -0.000000  -0.000001  -0.000073   0.000001
    19  H    0.000158   0.000002  -0.000000  -0.000001   0.000076  -0.000004
    20  H    0.429958  -0.034042   0.004548   0.000777   0.006590  -0.000052
    21  H    0.004503  -0.038171   0.422015  -0.065762   0.005661  -0.000077
    22  H    0.000308   0.005718  -0.038645   0.424913  -0.065481  -0.007779
    23  H   -0.000054  -0.000013   0.000384   0.007697  -0.008228  -0.028366
    24  H   -0.000030  -0.000015   0.000389   0.007870  -0.008869  -0.028100
    25  H   -0.000002  -0.000000   0.000002   0.000055  -0.000031   0.002304
    26  H   -0.000000   0.000000  -0.000002   0.000021  -0.000020   0.003426
    27  H   -0.000001  -0.000000   0.000002   0.000055  -0.000002   0.002384
              13         14         15         16         17         18
     1  C    0.000000  -0.000000   0.389861   0.381721   0.389485  -0.027507
     2  C   -0.000000  -0.000000  -0.017744  -0.014026  -0.018041   0.397801
     3  O    0.000001   0.000000   0.001465   0.003236   0.001844  -0.029846
     4  C   -0.000698  -0.000212  -0.000198   0.000004  -0.000107  -0.003461
     5  O   -0.000118   0.000117  -0.000039   0.000023  -0.000035   0.008627
     6  C    0.008574   0.000422  -0.000205   0.000010  -0.000113   0.001590
     7  C   -0.000095   0.000012   0.000020   0.000005   0.000020  -0.000074
     8  N    0.000006   0.000000   0.000001   0.000000  -0.000000   0.000000
     9  C    0.000715  -0.000011  -0.000000  -0.000000  -0.000000  -0.000000
    10  C   -0.003140   0.000648  -0.000000   0.000000   0.000000  -0.000001
    11  C   -0.050597   0.004617   0.000002  -0.000000  -0.000004  -0.000073
    12  O    0.278524  -0.050865  -0.000000   0.000000   0.000000   0.000001
    13  C    4.515957   0.421536   0.000000  -0.000000  -0.000000  -0.000000
    14  C    0.421536   4.560655   0.000000  -0.000000  -0.000000  -0.000000
    15  H    0.000000   0.000000   0.620886  -0.017815  -0.024512  -0.010360
    16  H   -0.000000  -0.000000  -0.017815   0.624677  -0.017503  -0.002303
    17  H   -0.000000  -0.000000  -0.024512  -0.017503   0.619669   0.007464
    18  H   -0.000000  -0.000000  -0.010360  -0.002303   0.007464   0.651866
    19  H    0.000000   0.000000   0.007367  -0.002375  -0.010282  -0.037882
    20  H    0.000006  -0.000000   0.000418   0.000009   0.000051   0.000040
    21  H   -0.000059  -0.000001  -0.000000   0.000000  -0.000000   0.000000
    22  H    0.005326   0.000475   0.000000  -0.000000   0.000000   0.000000
    23  H    0.392508  -0.026294  -0.000000   0.000000   0.000000   0.000000
    24  H    0.392033  -0.027009   0.000000   0.000000  -0.000000  -0.000000
    25  H   -0.017823   0.394737   0.000000  -0.000000  -0.000000  -0.000000
    26  H   -0.013378   0.378216  -0.000000  -0.000000  -0.000000  -0.000000
    27  H   -0.018076   0.393792  -0.000000  -0.000000   0.000000   0.000000
              19         20         21         22         23         24
     1  C   -0.026776  -0.000210   0.000000   0.000000   0.000000   0.000000
     2  C    0.397567  -0.000681   0.000000  -0.000000   0.000000   0.000000
     3  O   -0.028164   0.013665  -0.000000   0.000001  -0.000000  -0.000000
     4  C   -0.004148  -0.013414   0.000067  -0.000127   0.000113   0.000029
     5  O    0.008574   0.000206  -0.000000   0.000003  -0.000036  -0.000035
     6  C   -0.000070  -0.061487   0.001238   0.012544  -0.000472  -0.000491
     7  C    0.000158   0.429958   0.004503   0.000308  -0.000054  -0.000030
     8  N    0.000002  -0.034042  -0.038171   0.005718  -0.000013  -0.000015
     9  C   -0.000000   0.004548   0.422015  -0.038645   0.000384   0.000389
    10  C   -0.000001   0.000777  -0.065762   0.424913   0.007697   0.007870
    11  C    0.000076   0.006590   0.005661  -0.065481  -0.008228  -0.008869
    12  O   -0.000004  -0.000052  -0.000077  -0.007779  -0.028366  -0.028100
    13  C    0.000000   0.000006  -0.000059   0.005326   0.392508   0.392033
    14  C    0.000000  -0.000000  -0.000001   0.000475  -0.026294  -0.027009
    15  H    0.007367   0.000418  -0.000000   0.000000  -0.000000   0.000000
    16  H   -0.002375   0.000009   0.000000  -0.000000   0.000000   0.000000
    17  H   -0.010282   0.000051  -0.000000   0.000000   0.000000  -0.000000
    18  H   -0.037882   0.000040   0.000000   0.000000   0.000000  -0.000000
    19  H    0.651449   0.000160   0.000000  -0.000000  -0.000000   0.000000
    20  H    0.000160   0.609981  -0.000301   0.000044  -0.000000   0.000000
    21  H    0.000000  -0.000301   0.638620  -0.006778   0.000015   0.000018
    22  H   -0.000000   0.000044  -0.006778   0.646454   0.000385   0.000194
    23  H   -0.000000  -0.000000   0.000015   0.000385   0.672790  -0.047413
    24  H    0.000000   0.000000   0.000018   0.000194  -0.047413   0.675773
    25  H   -0.000000  -0.000000   0.000000  -0.000002  -0.010803   0.007635
    26  H   -0.000000   0.000000   0.000000   0.000029  -0.002612  -0.002338
    27  H   -0.000000  -0.000000   0.000000  -0.000001   0.007733  -0.011042
              25         26         27
     1  C   -0.000000   0.000000  -0.000000
     2  C    0.000000   0.000000  -0.000000
     3  O    0.000000   0.000000   0.000000
     4  C    0.000083   0.000008   0.000081
     5  O    0.000262   0.000001   0.000095
     6  C   -0.000200  -0.000003  -0.000202
     7  C   -0.000002  -0.000000  -0.000001
     8  N   -0.000000   0.000000  -0.000000
     9  C    0.000002  -0.000002   0.000002
    10  C    0.000055   0.000021   0.000055
    11  C   -0.000031  -0.000020  -0.000002
    12  O    0.002304   0.003426   0.002384
    13  C   -0.017823  -0.013378  -0.018076
    14  C    0.394737   0.378216   0.393792
    15  H    0.000000  -0.000000  -0.000000
    16  H   -0.000000  -0.000000  -0.000000
    17  H   -0.000000  -0.000000   0.000000
    18  H   -0.000000  -0.000000   0.000000
    19  H   -0.000000  -0.000000  -0.000000
    20  H   -0.000000   0.000000  -0.000000
    21  H    0.000000   0.000000   0.000000
    22  H   -0.000002   0.000029  -0.000001
    23  H   -0.010803  -0.002612   0.007733
    24  H    0.007635  -0.002338  -0.011042
    25  H    0.599302  -0.017054  -0.021798
    26  H   -0.017054   0.629654  -0.017559
    27  H   -0.021798  -0.017559   0.606156
 Mulliken charges:
               1
     1  C   -0.076607
     2  C    0.133678
     3  O   -0.342701
     4  C    0.288284
     5  O   -0.224582
     6  C   -0.197259
     7  C    0.073685
     8  N   -0.151520
     9  C    0.057049
    10  C   -0.156624
    11  C    0.258768
    12  O   -0.288420
    13  C    0.088799
    14  C   -0.050836
    15  H    0.050854
    16  H    0.044339
    17  H    0.052064
    18  H    0.044118
    19  H    0.044351
    20  H    0.043735
    21  H    0.039011
    22  H    0.022420
    23  H    0.042667
    24  H    0.041403
    25  H    0.063332
    26  H    0.041611
    27  H    0.058384
 Sum of Mulliken charges =  -0.00000
 Mulliken charges with hydrogens summed into heavy atoms:
               1
     1  C    0.070649
     2  C    0.222147
     3  O   -0.342701
     4  C    0.288284
     5  O   -0.224582
     6  C   -0.197259
     7  C    0.117420
     8  N   -0.151520
     9  C    0.096059
    10  C   -0.134204
    11  C    0.258768
    12  O   -0.288420
    13  C    0.172869
    14  C    0.112490
 Electronic spatial extent (au):  <R**2>=           3505.3680
 Charge=             -0.0000 electrons
 Dipole moment (field-independent basis, Debye):
    X=             -1.6726    Y=             -1.0569    Z=              0.4845  Tot=              2.0370
 Quadrupole moment (field-independent basis, Debye-Ang):
   XX=            -59.4478   YY=            -90.9456   ZZ=            -82.4018
   XY=             -1.9239   XZ=             -0.6265   YZ=             -1.3555
 Traceless Quadrupole moment (field-independent basis, Debye-Ang):
   XX=             18.1506   YY=            -13.3472   ZZ=             -4.8034
   XY=             -1.9239   XZ=             -0.6265   YZ=             -1.3555
 Octapole moment (field-independent basis, Debye-Ang**2):
  XXX=              0.4780  YYY=            -39.2052  ZZZ=             -0.7763  XYY=            -13.0573
  XXY=            -19.4479  XXZ=              0.0601  XZZ=              4.9006  YZZ=             -8.5244
  YYZ=              3.5261  XYZ=             -1.6063
 Hexadecapole moment (field-independent basis, Debye-Ang**3):
 XXXX=          -2771.5744 YYYY=          -1583.9274 ZZZZ=           -117.3883 XXXY=            -25.7300
 XXXZ=             -9.3529 YYYX=            -26.5541 YYYZ=              0.3138 ZZZX=             -0.2815
 ZZZY=              2.7150 XXYY=           -679.8473 XXZZ=           -529.8749 YYZZ=           -267.4406
 XXYZ=             -1.2042 YYXZ=             -0.5064 ZZXY=              6.2557
 N-N= 8.880070190806D+02 E-N=-3.333518504911D+03  KE= 6.621540923203D+02
   1 Symmetry operations used in ECPInt.
 ECPInt:  NShTT=    7626 NPrTT=   27482 LenC2=    7061 LenP2D=   18307.
 LDataN:  DoStor=T MaxTD1= 5 Len=  102
 Calling FoFJK, ICntrl=      2127 FMM=F ISym2X=0 I1Cent= 0 IOpClX= 0 NMat=1 NMatS=1 NMatT=0.
 ***** Axes restored to original set *****
 -------------------------------------------------------------------
 Center     Atomic                   Forces (Hartrees/Bohr)
 Number     Number              X              Y              Z
 -------------------------------------------------------------------
      1        6           0.000003104    0.000001641   -0.000005294
      2        6           0.000002321    0.000010209    0.000002387
      3        8          -0.000005013   -0.000000960    0.000001240
      4        6           0.000003697    0.000000944   -0.000002824
      5        8          -0.000003370    0.000001953   -0.000000026
      6        6           0.000011422    0.000003591    0.000000753
      7        6           0.000009095   -0.000010950   -0.000004103
      8        7          -0.000015479    0.000002630    0.000002227
      9        6           0.000011214    0.000016202    0.000001734
     10        6          -0.000008993   -0.000012755   -0.000000750
     11        6          -0.000013675   -0.000015756   -0.000001963
     12        8          -0.000004005    0.000008844    0.000007323
     13        6           0.000009162   -0.000000097   -0.000001198
     14        6           0.000003416    0.000002780   -0.000006647
     15        1          -0.000000980   -0.000001345    0.000004101
     16        1          -0.000002608    0.000004981    0.000000177
     17        1           0.000000742    0.000002115    0.000000918
     18        1          -0.000000392   -0.000000465   -0.000002143
     19        1           0.000001175    0.000000404    0.000000754
     20        1          -0.000003366    0.000002233    0.000002211
     21        1          -0.000000737   -0.000004743    0.000000040
     22        1           0.000003607    0.000000377    0.000001316
     23        1           0.000002772   -0.000001879    0.000001125
     24        1          -0.000003923   -0.000002675   -0.000000953
     25        1          -0.000003066   -0.000005477   -0.000001405
     26        1           0.000000244   -0.000002708    0.000002589
     27        1           0.000003636    0.000000908   -0.000001588
 -------------------------------------------------------------------
 Cartesian Forces:  Max     0.000016202 RMS     0.000005487

 GradGradGradGradGradGradGradGradGradGradGradGradGradGradGradGradGradGrad
 Berny optimization.
 FormGI is forming the generalized inverse of G from B-inverse, IUseBI=4.
 Internal  Forces:  Max     0.000011138 RMS     0.000003149
 Search for a local minimum.
 Step number   1 out of a maximum of  134
 All quantities printed in internal units (Hartrees-Bohrs-Radians)
 Mixed Optimization -- En-DIIS/RFO-DIIS
 Second derivative matrix not updated -- first step.
 ITU=  0
     Eigenvalues ---    0.00612   0.00619   0.00855   0.01361   0.01361
     Eigenvalues ---    0.01495   0.01636   0.01975   0.02111   0.02135
     Eigenvalues ---    0.02184   0.02262   0.02343   0.02458   0.02508
     Eigenvalues ---    0.02652   0.05348   0.05458   0.05716   0.05752
     Eigenvalues ---    0.05802   0.05814   0.05824   0.05898   0.11251
     Eigenvalues ---    0.11363   0.13645   0.13677   0.16000   0.16000
     Eigenvalues ---    0.16000   0.16000   0.16000   0.16000   0.16000
     Eigenvalues ---    0.16000   0.16000   0.21907   0.21953   0.22335
     Eigenvalues ---    0.23246   0.24568   0.24996   0.24998   0.24999
     Eigenvalues ---    0.25000   0.25000   0.25000   0.31183   0.31242
     Eigenvalues ---    0.33094   0.33146   0.33170   0.33507   0.33524
     Eigenvalues ---    0.33731   0.33742   0.33746   0.33767   0.33818
     Eigenvalues ---    0.33831   0.34139   0.34474   0.34944   0.41440
     Eigenvalues ---    0.41720   0.42490   0.43243   0.44980   0.46631
     Eigenvalues ---    0.56750   0.57182   0.58589   0.60128   1.03607
 RFO step:  Lambda=-1.12029053D-08 EMin= 6.11604667D-03
 Linear search not attempted -- first point.
 Iteration  1 RMS(Cart)=  0.00015593 RMS(Int)=  0.00000002
 Iteration  2 RMS(Cart)=  0.00000002 RMS(Int)=  0.00000000
 Variable       Old X    -DE/DX   Delta X   Delta X   Delta X     New X
                                 (Linear)    (Quad)   (Total)
    R1        2.85553  -0.00000   0.00000  -0.00000  -0.00000   2.85553
    R2        2.07787  -0.00001   0.00000  -0.00002  -0.00002   2.07786
    R3        2.07760  -0.00000   0.00000  -0.00001  -0.00001   2.07759
    R4        2.07767   0.00000   0.00000   0.00000   0.00000   2.07767
    R5        2.69281  -0.00000   0.00000  -0.00001  -0.00001   2.69280
    R6        2.08170   0.00000   0.00000   0.00001   0.00001   2.08171
    R7        2.08141   0.00000   0.00000   0.00000   0.00000   2.08141
    R8        2.53609  -0.00000   0.00000  -0.00000  -0.00000   2.53609
    R9        2.27228  -0.00000   0.00000  -0.00000  -0.00000   2.27228
   R10        2.82186  -0.00001   0.00000  -0.00002  -0.00002   2.82184
   R11        2.64477  -0.00000   0.00000  -0.00001  -0.00001   2.64476
   R12        2.67423   0.00001   0.00000   0.00003   0.00003   2.67426
   R13        2.51227   0.00001   0.00000   0.00001   0.00001   2.51228
   R14        2.06538  -0.00000   0.00000  -0.00001  -0.00001   2.06537
   R15        2.51354  -0.00001   0.00000  -0.00002  -0.00002   2.51352
   R16        2.62804   0.00001   0.00000   0.00002   0.00002   2.62806
   R17        2.07096  -0.00000   0.00000  -0.00001  -0.00001   2.07095
   R18        2.65094  -0.00000   0.00000  -0.00000  -0.00000   2.65094
   R19        2.05766  -0.00000   0.00000  -0.00001  -0.00001   2.05764
   R20        2.50839  -0.00001   0.00000  -0.00002  -0.00002   2.50837
   R21        2.67371  -0.00001   0.00000  -0.00002  -0.00002   2.67369
   R22        2.85664  -0.00000   0.00000  -0.00000  -0.00000   2.85663
   R23        2.08754  -0.00000   0.00000  -0.00001  -0.00001   2.08754
   R24        2.08797   0.00000   0.00000   0.00000   0.00000   2.08797
   R25        2.07616   0.00000   0.00000   0.00000   0.00000   2.07617
   R26        2.07725   0.00000   0.00000   0.00000   0.00000   2.07725
   R27        2.07639  -0.00000   0.00000  -0.00000  -0.00000   2.07638
    A1        1.93591   0.00000   0.00000   0.00000   0.00000   1.93591
    A2        1.91860  -0.00000   0.00000  -0.00000  -0.00000   1.91859
    A3        1.93506   0.00000   0.00000   0.00001   0.00001   1.93507
    A4        1.89061  -0.00000   0.00000  -0.00000  -0.00000   1.89061
    A5        1.89103  -0.00000   0.00000  -0.00000  -0.00000   1.89103
    A6        1.89140  -0.00000   0.00000  -0.00000  -0.00000   1.89140
    A7        1.88477   0.00000   0.00000   0.00002   0.00002   1.88478
    A8        1.95291  -0.00000   0.00000  -0.00000  -0.00000   1.95291
    A9        1.95207  -0.00000   0.00000  -0.00000  -0.00000   1.95207
   A10        1.90517  -0.00000   0.00000  -0.00001  -0.00001   1.90516
   A11        1.90336  -0.00000   0.00000   0.00000   0.00000   1.90336
   A12        1.86488  -0.00000   0.00000  -0.00001  -0.00001   1.86487
   A13        2.03523   0.00001   0.00000   0.00003   0.00003   2.03526
   A14        2.14144   0.00001   0.00000   0.00004   0.00004   2.14148
   A15        1.94011  -0.00001   0.00000  -0.00003  -0.00003   1.94007
   A16        2.20156  -0.00000   0.00000  -0.00000  -0.00000   2.20156
   A17        2.10144  -0.00000   0.00000  -0.00002  -0.00002   2.10142
   A18        2.12875   0.00000   0.00000   0.00001   0.00001   2.12876
   A19        2.05288   0.00000   0.00000   0.00001   0.00001   2.05289
   A20        2.18108  -0.00000   0.00000  -0.00001  -0.00001   2.18108
   A21        2.06505   0.00000   0.00000   0.00002   0.00002   2.06507
   A22        2.03704  -0.00000   0.00000  -0.00001  -0.00001   2.03703
   A23        2.03584   0.00000   0.00000   0.00001   0.00001   2.03584
   A24        2.17079   0.00000   0.00000  -0.00000  -0.00000   2.17079
   A25        2.03289   0.00000   0.00000   0.00001   0.00001   2.03290
   A26        2.07950  -0.00000   0.00000  -0.00001  -0.00001   2.07949
   A27        2.07492   0.00000   0.00000   0.00000   0.00000   2.07492
   A28        2.08577  -0.00000   0.00000  -0.00001  -0.00001   2.08576
   A29        2.12249   0.00000   0.00000   0.00001   0.00001   2.12250
   A30        2.05082  -0.00000   0.00000  -0.00001  -0.00001   2.05080
   A31        2.07223   0.00000   0.00000   0.00002   0.00002   2.07225
   A32        2.16006  -0.00000   0.00000  -0.00001  -0.00001   2.16006
   A33        2.10392  -0.00000   0.00000  -0.00001  -0.00001   2.10392
   A34        1.87905   0.00000   0.00000   0.00001   0.00001   1.87906
   A35        1.91484  -0.00000   0.00000   0.00001   0.00001   1.91485
   A36        1.91643   0.00000   0.00000   0.00001   0.00001   1.91644
   A37        1.93570  -0.00000   0.00000  -0.00000  -0.00000   1.93570
   A38        1.93691  -0.00000   0.00000  -0.00001  -0.00001   1.93689
   A39        1.88112  -0.00000   0.00000  -0.00001  -0.00001   1.88111
   A40        1.92673   0.00001   0.00000   0.00006   0.00006   1.92679
   A41        1.92160  -0.00000   0.00000  -0.00000  -0.00000   1.92159
   A42        1.92873  -0.00001   0.00000  -0.00004  -0.00004   1.92869
   A43        1.89975  -0.00000   0.00000  -0.00001  -0.00001   1.89974
   A44        1.88836  -0.00000   0.00000   0.00000   0.00000   1.88836
   A45        1.89794   0.00000   0.00000  -0.00001  -0.00001   1.89793
    D1       -1.05594   0.00000   0.00000   0.00002   0.00002  -1.05591
    D2        1.04118   0.00000   0.00000   0.00003   0.00003   1.04120
    D3        3.13288  -0.00000   0.00000   0.00001   0.00001   3.13290
    D4        3.13678   0.00000   0.00000   0.00002   0.00002   3.13680
    D5       -1.04929   0.00000   0.00000   0.00003   0.00003  -1.04927
    D6        1.04241  -0.00000   0.00000   0.00001   0.00001   1.04243
    D7        1.04587   0.00000   0.00000   0.00003   0.00003   1.04590
    D8       -3.14020   0.00000   0.00000   0.00003   0.00003  -3.14017
    D9       -1.04849  -0.00000   0.00000   0.00002   0.00002  -1.04848
   D10        3.12822  -0.00000   0.00000  -0.00012  -0.00012   3.12811
   D11        1.00136  -0.00000   0.00000  -0.00012  -0.00012   1.00124
   D12       -1.03020  -0.00000   0.00000  -0.00011  -0.00011  -1.03031
   D13        0.02556   0.00000   0.00000   0.00001   0.00001   0.02557
   D14       -3.10363  -0.00000   0.00000  -0.00003  -0.00003  -3.10365
   D15        0.25864   0.00000   0.00000  -0.00000  -0.00000   0.25864
   D16       -2.89984   0.00000   0.00000   0.00001   0.00001  -2.89984
   D17       -2.87002  -0.00000   0.00000  -0.00004  -0.00004  -2.87006
   D18        0.25468  -0.00000   0.00000  -0.00003  -0.00003   0.25465
   D19        3.11423   0.00000   0.00000   0.00004   0.00004   3.11428
   D20       -0.02078  -0.00000   0.00000  -0.00003  -0.00003  -0.02081
   D21       -0.01119   0.00000   0.00000   0.00004   0.00004  -0.01115
   D22        3.13698  -0.00000   0.00000  -0.00004  -0.00004   3.13694
   D23       -3.11631  -0.00000   0.00000  -0.00003  -0.00003  -3.11634
   D24        0.03790  -0.00000   0.00000  -0.00002  -0.00002   0.03788
   D25        0.00884  -0.00000   0.00000  -0.00002  -0.00002   0.00882
   D26       -3.12014  -0.00000   0.00000  -0.00001  -0.00001  -3.12015
   D27        0.00618  -0.00000   0.00000  -0.00003  -0.00003   0.00615
   D28        3.14129   0.00000   0.00000   0.00005   0.00005   3.14134
   D29        0.00091  -0.00000   0.00000  -0.00000  -0.00000   0.00090
   D30        3.14005   0.00000   0.00000   0.00001   0.00001   3.14006
   D31       -0.00244   0.00000   0.00000   0.00002   0.00002  -0.00242
   D32        3.13556  -0.00000   0.00000  -0.00002  -0.00002   3.13554
   D33       -3.14152   0.00000   0.00000   0.00000   0.00000  -3.14152
   D34       -0.00352  -0.00000   0.00000  -0.00004  -0.00004  -0.00356
   D35       -0.00272  -0.00000   0.00000  -0.00001  -0.00001  -0.00272
   D36        3.12557  -0.00000   0.00000  -0.00002  -0.00002   3.12555
   D37       -3.14064   0.00000   0.00000   0.00003   0.00003  -3.14061
   D38       -0.01235   0.00000   0.00000   0.00002   0.00002  -0.01233
   D39       -3.13494   0.00000   0.00000   0.00005   0.00005  -3.13489
   D40        0.02011   0.00000   0.00000   0.00006   0.00006   0.02017
   D41        3.12905  -0.00000   0.00000  -0.00009  -0.00009   3.12895
   D42        1.02084  -0.00000   0.00000  -0.00010  -0.00010   1.02074
   D43       -1.04354  -0.00000   0.00000  -0.00010  -0.00010  -1.04364
   D44       -1.03657  -0.00000   0.00000  -0.00032  -0.00032  -1.03689
   D45       -3.13449  -0.00000   0.00000  -0.00035  -0.00035  -3.13484
   D46        1.05175  -0.00000   0.00000  -0.00031  -0.00031   1.05144
   D47        1.05849  -0.00000   0.00000  -0.00031  -0.00031   1.05818
   D48       -1.03944  -0.00000   0.00000  -0.00033  -0.00033  -1.03977
   D49       -3.13638  -0.00000   0.00000  -0.00029  -0.00029  -3.13668
   D50       -3.13428  -0.00000   0.00000  -0.00033  -0.00033  -3.13461
   D51        1.05098  -0.00000   0.00000  -0.00035  -0.00035   1.05063
   D52       -1.04596  -0.00000   0.00000  -0.00032  -0.00032  -1.04628
         Item               Value     Threshold  Converged?
 Maximum Force            0.000011     0.000450     YES
 RMS     Force            0.000003     0.000300     YES
 Maximum Displacement     0.000795     0.001800     YES
 RMS     Displacement     0.000156     0.001200     YES
 Predicted change in Energy=-5.601450D-09
 Optimization completed.
    -- Stationary point found.
                           ----------------------------
                           !   Optimized Parameters   !
                           ! (Angstroms and Degrees)  !
 --------------------------                            --------------------------
 ! Name  Definition              Value          Derivative Info.                !
 --------------------------------------------------------------------------------
 ! R1    R(1,2)                  1.5111         -DE/DX =    0.0                 !
 ! R2    R(1,15)                 1.0996         -DE/DX =    0.0                 !
 ! R3    R(1,16)                 1.0994         -DE/DX =    0.0                 !
 ! R4    R(1,17)                 1.0995         -DE/DX =    0.0                 !
 ! R5    R(2,3)                  1.425          -DE/DX =    0.0                 !
 ! R6    R(2,18)                 1.1016         -DE/DX =    0.0                 !
 ! R7    R(2,19)                 1.1014         -DE/DX =    0.0                 !
 ! R8    R(3,4)                  1.342          -DE/DX =    0.0                 !
 ! R9    R(4,5)                  1.2024         -DE/DX =    0.0                 !
 ! R10   R(4,6)                  1.4933         -DE/DX =    0.0                 !
 ! R11   R(6,7)                  1.3995         -DE/DX =    0.0                 !
 ! R12   R(6,11)                 1.4151         -DE/DX =    0.0                 !
 ! R13   R(7,8)                  1.3294         -DE/DX =    0.0                 !
 ! R14   R(7,20)                 1.093          -DE/DX =    0.0                 !
 ! R15   R(8,9)                  1.3301         -DE/DX =    0.0                 !
 ! R16   R(9,10)                 1.3907         -DE/DX =    0.0                 !
 ! R17   R(9,21)                 1.0959         -DE/DX =    0.0                 !
 ! R18   R(10,11)                1.4028         -DE/DX =    0.0                 !
 ! R19   R(10,22)                1.0889         -DE/DX =    0.0                 !
 ! R20   R(11,12)                1.3274         -DE/DX =    0.0                 !
 ! R21   R(12,13)                1.4149         -DE/DX =    0.0                 !
 ! R22   R(13,14)                1.5117         -DE/DX =    0.0                 !
 ! R23   R(13,23)                1.1047         -DE/DX =    0.0                 !
 ! R24   R(13,24)                1.1049         -DE/DX =    0.0                 !
 ! R25   R(14,25)                1.0987         -DE/DX =    0.0                 !
 ! R26   R(14,26)                1.0992         -DE/DX =    0.0                 !
 ! R27   R(14,27)                1.0988         -DE/DX =    0.0                 !
 ! A1    A(2,1,15)             110.9193         -DE/DX =    0.0                 !
 ! A2    A(2,1,16)             109.9275         -DE/DX =    0.0                 !
 ! A3    A(2,1,17)             110.8707         -DE/DX =    0.0                 !
 ! A4    A(15,1,16)            108.3242         -DE/DX =    0.0                 !
 ! A5    A(15,1,17)            108.3479         -DE/DX =    0.0                 !
 ! A6    A(16,1,17)            108.3692         -DE/DX =    0.0                 !
 ! A7    A(1,2,3)              107.9892         -DE/DX =    0.0                 !
 ! A8    A(1,2,18)             111.8937         -DE/DX =    0.0                 !
 ! A9    A(1,2,19)             111.8456         -DE/DX =    0.0                 !
 ! A10   A(3,2,18)             109.158          -DE/DX =    0.0                 !
 ! A11   A(3,2,19)             109.0542         -DE/DX =    0.0                 !
 ! A12   A(18,2,19)            106.8498         -DE/DX =    0.0                 !
 ! A13   A(2,3,4)              116.6098         -DE/DX =    0.0                 !
 ! A14   A(3,4,5)              122.6955         -DE/DX =    0.0                 !
 ! A15   A(3,4,6)              111.1599         -DE/DX =    0.0                 !
 ! A16   A(5,4,6)              126.1403         -DE/DX =    0.0                 !
 ! A17   A(4,6,7)              120.4039         -DE/DX =    0.0                 !
 ! A18   A(4,6,11)             121.9681         -DE/DX =    0.0                 !
 ! A19   A(7,6,11)             117.6212         -DE/DX =    0.0                 !
 ! A20   A(6,7,8)              124.9667         -DE/DX =    0.0                 !
 ! A21   A(6,7,20)             118.3187         -DE/DX =    0.0                 !
 ! A22   A(8,7,20)             116.7135         -DE/DX =    0.0                 !
 ! A23   A(7,8,9)              116.6448         -DE/DX =    0.0                 !
 ! A24   A(8,9,10)             124.3773         -DE/DX =    0.0                 !
 ! A25   A(8,9,21)             116.476          -DE/DX =    0.0                 !
 ! A26   A(10,9,21)            119.1466         -DE/DX =    0.0                 !
 ! A27   A(9,10,11)            118.8842         -DE/DX =    0.0                 !
 ! A28   A(9,10,22)            119.5057         -DE/DX =    0.0                 !
 ! A29   A(11,10,22)           121.6098         -DE/DX =    0.0                 !
 ! A30   A(6,11,10)            117.5031         -DE/DX =    0.0                 !
 ! A31   A(6,11,12)            118.7302         -DE/DX =    0.0                 !
 ! A32   A(10,11,12)           123.7625         -DE/DX =    0.0                 !
 ! A33   A(11,12,13)           120.5458         -DE/DX =    0.0                 !
 ! A34   A(12,13,14)           107.6617         -DE/DX =    0.0                 !
 ! A35   A(12,13,23)           109.7124         -DE/DX =    0.0                 !
 ! A36   A(12,13,24)           109.8036         -DE/DX =    0.0                 !
 ! A37   A(14,13,23)           110.9076         -DE/DX =    0.0                 !
 ! A38   A(14,13,24)           110.9767         -DE/DX =    0.0                 !
 ! A39   A(23,13,24)           107.7802         -DE/DX =    0.0                 !
 ! A40   A(13,14,25)           110.3933         -DE/DX =    0.0                 !
 ! A41   A(13,14,26)           110.0994         -DE/DX =    0.0                 !
 ! A42   A(13,14,27)           110.5079         -DE/DX =    0.0                 !
 ! A43   A(25,14,26)           108.8479         -DE/DX =    0.0                 !
 ! A44   A(25,14,27)           108.1948         -DE/DX =    0.0                 !
 ! A45   A(26,14,27)           108.7438         -DE/DX =    0.0                 !
 ! D1    D(15,1,2,3)           -60.5008         -DE/DX =    0.0                 !
 ! D2    D(15,1,2,18)           59.655          -DE/DX =    0.0                 !
 ! D3    D(15,1,2,19)          179.501          -DE/DX =    0.0                 !
 ! D4    D(16,1,2,3)           179.7241         -DE/DX =    0.0                 !
 ! D5    D(16,1,2,18)          -60.12           -DE/DX =    0.0                 !
 ! D6    D(16,1,2,19)           59.7259         -DE/DX =    0.0                 !
 ! D7    D(17,1,2,3)            59.924          -DE/DX =    0.0                 !
 ! D8    D(17,1,2,18)         -179.9202         -DE/DX =    0.0                 !
 ! D9    D(17,1,2,19)          -60.0742         -DE/DX =    0.0                 !
 ! D10   D(1,2,3,4)            179.234          -DE/DX =    0.0                 !
 ! D11   D(18,2,3,4)            57.374          -DE/DX =    0.0                 !
 ! D12   D(19,2,3,4)           -59.0262         -DE/DX =    0.0                 !
 ! D13   D(2,3,4,5)              1.4644         -DE/DX =    0.0                 !
 ! D14   D(2,3,4,6)           -177.8246         -DE/DX =    0.0                 !
 ! D15   D(3,4,6,7)             14.8189         -DE/DX =    0.0                 !
 ! D16   D(3,4,6,11)          -166.1488         -DE/DX =    0.0                 !
 ! D17   D(5,4,6,7)           -164.4402         -DE/DX =    0.0                 !
 ! D18   D(5,4,6,11)            14.5921         -DE/DX =    0.0                 !
 ! D19   D(4,6,7,8)            178.4324         -DE/DX =    0.0                 !
 ! D20   D(4,6,7,20)            -1.1906         -DE/DX =    0.0                 !
 ! D21   D(11,6,7,8)            -0.641          -DE/DX =    0.0                 !
 ! D22   D(11,6,7,20)          179.736          -DE/DX =    0.0                 !
 ! D23   D(4,6,11,10)         -178.5514         -DE/DX =    0.0                 !
 ! D24   D(4,6,11,12)            2.1713         -DE/DX =    0.0                 !
 ! D25   D(7,6,11,10)            0.5066         -DE/DX =    0.0                 !
 ! D26   D(7,6,11,12)         -178.7707         -DE/DX =    0.0                 !
 ! D27   D(6,7,8,9)              0.354          -DE/DX =    0.0                 !
 ! D28   D(20,7,8,9)           179.9825         -DE/DX =    0.0                 !
 ! D29   D(7,8,9,10)             0.0519         -DE/DX =    0.0                 !
 ! D30   D(7,8,9,21)           179.9116         -DE/DX =    0.0                 !
 ! D31   D(8,9,10,11)           -0.1397         -DE/DX =    0.0                 !
 ! D32   D(8,9,10,22)          179.6544         -DE/DX =    0.0                 !
 ! D33   D(21,9,10,11)        -179.9959         -DE/DX =    0.0                 !
 ! D34   D(21,9,10,22)          -0.2017         -DE/DX =    0.0                 !
 ! D35   D(9,10,11,6)           -0.1556         -DE/DX =    0.0                 !
 ! D36   D(9,10,11,12)         179.0821         -DE/DX =    0.0                 !
 ! D37   D(22,10,11,6)        -179.9453         -DE/DX =    0.0                 !
 ! D38   D(22,10,11,12)         -0.7076         -DE/DX =    0.0                 !
 ! D39   D(6,11,12,13)        -179.6191         -DE/DX =    0.0                 !
 ! D40   D(10,11,12,13)          1.152          -DE/DX =    0.0                 !
 ! D41   D(11,12,13,14)        179.2811         -DE/DX =    0.0                 !
 ! D42   D(11,12,13,23)         58.4899         -DE/DX =    0.0                 !
 ! D43   D(11,12,13,24)        -59.7904         -DE/DX =    0.0                 !
 ! D44   D(12,13,14,25)        -59.3909         -DE/DX =    0.0                 !
 ! D45   D(12,13,14,26)       -179.5932         -DE/DX =    0.0                 !
 ! D46   D(12,13,14,27)         60.2608         -DE/DX =    0.0                 !
 ! D47   D(23,13,14,25)         60.6468         -DE/DX =    0.0                 !
 ! D48   D(23,13,14,26)        -59.5555         -DE/DX =    0.0                 !
 ! D49   D(23,13,14,27)       -179.7016         -DE/DX =    0.0                 !
 ! D50   D(24,13,14,25)       -179.5808         -DE/DX =    0.0                 !
 ! D51   D(24,13,14,26)         60.2169         -DE/DX =    0.0                 !
 ! D52   D(24,13,14,27)        -59.9291         -DE/DX =    0.0                 !
 --------------------------------------------------------------------------------
 GradGradGradGradGradGradGradGradGradGradGradGradGradGradGradGradGradGrad

                          Input orientation:                          
 ---------------------------------------------------------------------
 Center     Atomic      Atomic             Coordinates (Angstroms)
 Number     Number       Type             X           Y           Z
 ---------------------------------------------------------------------
      1          6           0        4.674790   -0.421530    0.268210
      2          6           0        3.355660   -1.100960   -0.017520
      3          8           0        2.325540   -0.121370    0.081500
      4          6           0        1.073080   -0.539810   -0.157930
      5          8           0        0.808950   -1.683740   -0.417770
      6          6           0        0.101460    0.590920   -0.072820
      7          6           0        0.553310    1.915470   -0.084570
      8          7           0       -0.230700    2.988330   -0.043360
      9          6           0       -1.540820    2.767640    0.020420
     10          6           0       -2.124140    1.505470    0.046920
     11          6           0       -1.295100    0.374750    0.001490
     12          8           0       -1.746520   -0.872950    0.038980
     13          6           0       -3.135630   -1.133370    0.105300
     14          6           0       -3.321000   -2.633590    0.116140
     15          1           0        4.869290    0.379870   -0.459090
     16          1           0        5.493990   -1.152030    0.204930
     17          1           0        4.679060    0.017400    1.276240
     18          1           0        3.333550   -1.548360   -1.023920
     19          1           0        3.149560   -1.913030    0.697480
     20          1           0        1.630040    2.095520   -0.137290
     21          1           0       -2.184430    3.653940    0.055780
     22          1           0       -3.207790    1.416630    0.105550
     23          1           0       -3.641740   -0.679900   -0.765640
     24          1           0       -3.559120   -0.675890    1.017540
     25          1           0       -2.890190   -3.079140   -0.791020
     26          1           0       -4.390970   -2.881700    0.159950
     27          1           0       -2.819740   -3.077110    0.987540
 ---------------------------------------------------------------------
                    Distance matrix (angstroms):
                    1          2          3          4          5
     1  C    0.000000
     2  C    1.511083   0.000000
     3  O    2.375696   1.424973   0.000000
     4  C    3.628760   2.354735   1.342041   0.000000
     5  O    4.124132   2.643022   2.233901   1.202438   0.000000
     6  C    4.696457   3.668151   2.340449   1.493265   2.406992
     7  C    4.751065   4.117828   2.705013   2.510765   3.623629
     8  N    5.982312   5.439204   4.027429   3.763076   4.800968
     9  C    6.990423   6.240434   4.826888   4.219420   5.052545
    10  C    7.070201   6.068430   4.737875   3.800967   4.357753
    11  C    6.028664   4.879308   3.655348   2.543641   2.973245
    12  O    6.441238   5.107585   4.141057   2.846032   2.719637
    13  C    7.844483   6.492533   5.554196   4.258502   4.016992
    14  C    8.297529   6.851614   6.180280   4.875138   4.271272
    15  H    1.099562   2.163081   2.648423   3.917616   4.554839
    16  H    1.099420   2.150476   3.334152   4.477826   4.756056
    17  H    1.099455   2.162390   2.643051   3.920513   4.554262
    18  H    2.176757   1.101588   2.067447   2.622372   2.599875
    19  H    2.176045   1.101435   2.066031   2.632343   2.602847
    20  H    3.971206   3.634500   2.333707   2.693621   3.877585
    21  H    7.981446   7.301167   5.881620   5.314563   6.138029
    22  H    8.095700   7.030809   5.743149   4.714120   5.101015
    23  H    8.384526   7.049864   6.052936   4.755887   4.575735
    24  H    8.271848   7.004728   5.984387   4.780954   4.707007
    25  H    8.087879   6.597131   6.059169   4.749369   3.971158
    26  H    9.394262   7.950648   7.262030   5.953263   5.367312
    27  H    7.983578   6.561317   6.002601   4.785817   4.133251
                    6          7          8          9         10
     6  C    0.000000
     7  C    1.399550   0.000000
     8  N    2.420490   1.329435   0.000000
     9  C    2.728349   2.263316   1.330108   0.000000
    10  C    2.409156   2.711850   2.406686   1.390697   0.000000
    11  C    1.415144   2.407871   2.822368   2.405548   1.402818
    12  O    2.360179   3.616596   4.148973   3.646444   2.408224
    13  C    3.672010   4.789546   5.044713   4.215270   2.826658
    14  C    4.705997   5.978671   6.417272   5.687837   4.309186
    15  H    4.788105   4.596305   5.743413   6.857178   7.101485
    16  H    5.674011   5.822687   7.069392   8.055210   8.069893
    17  H    4.806590   4.740916   5.888422   6.915765   7.071712
    18  H    3.990929   4.539849   5.852088   6.593784   6.344995
    19  H    4.019209   4.691431   5.999861   6.660837   6.318329
    20  H    2.145818   1.092952   2.065983   3.245146   3.804729
    21  H    3.824124   3.246105   2.066380   1.095907   2.149334
    22  H    3.415369   3.798797   3.369789   2.147385   1.088865
    23  H    4.013294   4.979784   5.060908   4.113063   2.781943
    24  H    4.024120   4.984162   5.062647   4.114083   2.785606
    25  H    4.789063   6.107609   6.666789   6.055086   4.723095
    26  H    5.682886   6.893369   7.197669   6.329128   4.939489
    27  H    4.807517   6.119864   6.674987   6.060698   4.729552
                   11         12         13         14         15
    11  C    0.000000
    12  O    1.327381   0.000000
    13  C    2.381754   1.414865   0.000000
    14  C    3.628708   2.363217   1.511668   0.000000
    15  H    6.181575   6.751783   8.166222   8.746009   0.000000
    16  H    6.961623   7.247787   8.630215   8.939069   1.782664
    17  H    6.119091   6.603909   7.985283   8.507323   1.782959
    18  H    5.116075   5.233837   6.580095   6.838165   2.528953
    19  H    5.047112   5.048464   6.360987   6.536460   3.090714
    20  H    3.396580   4.499338   5.761614   6.851387   3.679640
    21  H    3.398079   4.548052   4.881144   6.389716   7.793561
    22  H    2.180533   2.716969   2.551021   4.051816   8.162898
    23  H    2.684678   2.067980   1.104680   2.167329   8.582233
    24  H    2.694808   2.069283   1.104904   2.168366   8.621668
    25  H    3.886096   2.619953   2.156305   1.098659   8.502027
    26  H    4.495997   3.323075   2.153026   1.099233   9.837350
    27  H    3.900277   2.628667   2.157837   1.098776   8.553633
                   16         17         18         19         20
    16  H    0.000000
    17  H    1.783082   0.000000
    18  H    2.516873   3.090750   0.000000
    19  H    2.513579   2.529999   1.769196   0.000000
    20  H    5.059032   3.951351   4.118971   4.367408   0.000000
    21  H    9.059676   7.862661   7.660142   7.736561   4.125061
    22  H    9.073526   8.095107   7.270213   7.200897   4.891264
    23  H    9.199265   8.596000   7.033890   7.055713   5.990780
    24  H    9.101969   8.271347   7.241385   6.829300   5.995142
    25  H    8.660262   8.435382   6.413460   6.328825   6.901952
    26  H   10.035249   9.587300   7.927645   7.621473   7.817521
    27  H    8.569511   8.117348   6.651769   6.088658   6.915337
                   21         22         23         24         25
    21  H    0.000000
[...]
 Alpha virt. eigenvalues --    6.05074   6.08221   6.10209   6.16900   6.25307
 Alpha virt. eigenvalues --    6.32179   6.40258   6.45864   6.49122   6.54381
 Alpha virt. eigenvalues --    6.67902   6.71900   6.73673   6.76432   6.84470
 Alpha virt. eigenvalues --    6.88047   6.93859   6.98405   7.00561   7.07563
 Alpha virt. eigenvalues --    7.18227   7.25976   7.35864   7.47490   7.53691
 Alpha virt. eigenvalues --    7.56314  22.38743  22.39062  22.54472  22.58003
 Alpha virt. eigenvalues --   22.60650  22.82293  22.94708  23.01037  23.36063
 Alpha virt. eigenvalues --   23.65889  32.54562  44.06754  44.36816  44.54044
          Condensed to atoms (all electrons):
               1          2          3          4          5          6
     1  C    4.891320   0.312148  -0.043668   0.002295   0.004688   0.003752
     2  C    0.312148   4.816292   0.219922  -0.037449  -0.001231   0.006024
     3  O   -0.043668   0.219922   7.990174   0.378499  -0.082020  -0.142952
     4  C    0.002295  -0.037449   0.378499   4.491007   0.645189   0.266343
     5  O    0.004688  -0.001231  -0.082020   0.645189   7.863782  -0.092347
     6  C    0.003752   0.006024  -0.142952   0.266343  -0.092347   5.539563
     7  C   -0.000671  -0.002275   0.022934  -0.049811   0.003829   0.440417
     8  N    0.000011  -0.000026   0.000042   0.007238  -0.000236  -0.038916
     9  C   -0.000005  -0.000010   0.000229  -0.003039   0.000227  -0.030665
    10  C    0.000003   0.000054  -0.000681   0.012748  -0.001526  -0.062037
    11  C    0.000010   0.000001  -0.002260  -0.084229   0.008848   0.296800
    12  O    0.000002   0.000119  -0.000221   0.021157  -0.013603  -0.129092
    13  C    0.000000  -0.000012   0.000008  -0.002257  -0.000092   0.005560
    14  C   -0.000000  -0.000002   0.000006   0.000049   0.001233  -0.001287
    15  H    0.405730  -0.031602   0.001167  -0.000164  -0.000095  -0.000609
    16  H    0.409794  -0.037641   0.004189   0.000169   0.000115  -0.000009
    17  H    0.405359  -0.031729   0.001835  -0.000092  -0.000086  -0.000240
    18  H   -0.032059   0.418550  -0.040690  -0.004321   0.006011   0.000344
    19  H   -0.030485   0.415263  -0.034856  -0.008030   0.006046  -0.003468
    20  H   -0.000304  -0.001287   0.011722  -0.010479   0.000191  -0.062294
    21  H    0.000000  -0.000000  -0.000001   0.000162  -0.000001   0.002639
    22  H    0.000000  -0.000001   0.000002   0.000088  -0.000039   0.014631
    23  H    0.000000  -0.000001  -0.000002   0.000282  -0.000081  -0.003205
    24  H    0.000000   0.000001  -0.000001  -0.000140  -0.000079  -0.002944
    25  H   -0.000000   0.000001   0.000001   0.000027   0.000210  -0.000326
    26  H    0.000000   0.000000   0.000000   0.000046   0.000021  -0.000024
    27  H    0.000000  -0.000001  -0.000001   0.000074   0.000010  -0.000550
               7          8          9         10         11         12
     1  C   -0.000671   0.000011  -0.000005   0.000003   0.000010   0.000002
     2  C   -0.002275  -0.000026  -0.000010   0.000054   0.000001   0.000119
     3  O    0.022934   0.000042   0.000229  -0.000681  -0.002260  -0.000221
     4  C   -0.049811   0.007238  -0.003039   0.012748  -0.084229   0.021157
     5  O    0.003829  -0.000236   0.000227  -0.001526   0.008848  -0.013603
     6  C    0.440417  -0.038916  -0.030665  -0.062037   0.296800  -0.129092
     7  C    4.816340   0.513325  -0.099096  -0.027099  -0.003310  -0.000269
     8  N    0.513325   6.439249   0.531002  -0.058279  -0.074775  -0.000224
     9  C   -0.099096   0.531002   4.719412   0.467157   0.003577   0.001094
    10  C   -0.027099  -0.058279   0.467157   5.185474   0.438180  -0.073101
    11  C   -0.003310  -0.074775   0.003577   0.438180   4.876842   0.452533
    12  O   -0.000269  -0.000224   0.001094  -0.073101   0.452533   7.856760
    13  C    0.000129  -0.000217  -0.001232  -0.003645  -0.063515   0.231629
    14  C    0.000045  -0.000010  -0.000016  -0.000240   0.003687  -0.048000
    15  H    0.000147   0.000003   0.000001  -0.000001   0.000010  -0.000000
    16  H    0.000013   0.000000  -0.000000   0.000000  -0.000003   0.000000
    17  H    0.000102  -0.000002   0.000001  -0.000000  -0.000027  -0.000000
    18  H   -0.000010  -0.000000  -0.000003   0.000011  -0.000590  -0.000003
    19  H    0.000661   0.000006   0.000002  -0.000016   0.000370  -0.000012
    20  H    0.435539  -0.024257   0.004575   0.000129   0.003693  -0.000085
    21  H    0.002699  -0.028348   0.438164  -0.072922  -0.001798  -0.000118
    22  H   -0.002903   0.007432  -0.014746   0.417757  -0.075585  -0.003182
    23  H   -0.000062  -0.000038   0.000181   0.010668  -0.013301  -0.038390
    24  H    0.000120  -0.000043   0.000062   0.009106  -0.013648  -0.035895
    25  H    0.000004  -0.000000   0.000001  -0.000006  -0.000846   0.002272
    26  H   -0.000006   0.000000  -0.000008   0.000109   0.000670   0.004460
    27  H    0.000005  -0.000000   0.000003   0.000092  -0.000749   0.002337
              13         14         15         16         17         18
     1  C    0.000000  -0.000000   0.405730   0.409794   0.405359  -0.032059
     2  C   -0.000012  -0.000002  -0.031602  -0.037641  -0.031729   0.418550
     3  O    0.000008   0.000006   0.001167   0.004189   0.001835  -0.040690
     4  C   -0.002257   0.000049  -0.000164   0.000169  -0.000092  -0.004321
     5  O   -0.000092   0.001233  -0.000095   0.000115  -0.000086   0.006011
     6  C    0.005560  -0.001287  -0.000609  -0.000009  -0.000240   0.000344
     7  C    0.000129   0.000045   0.000147   0.000013   0.000102  -0.000010
     8  N   -0.000217  -0.000010   0.000003   0.000000  -0.000002  -0.000000
     9  C   -0.001232  -0.000016   0.000001  -0.000000   0.000001  -0.000003
    10  C   -0.003645  -0.000240  -0.000001   0.000000  -0.000000   0.000011
    11  C   -0.063515   0.003687   0.000010  -0.000003  -0.000027  -0.000590
    12  O    0.231629  -0.048000  -0.000000   0.000000  -0.000000  -0.000003
    13  C    4.879538   0.323536   0.000000  -0.000000  -0.000000  -0.000002
    14  C    0.323536   4.857939   0.000000  -0.000000  -0.000000  -0.000001
    15  H    0.000000   0.000000   0.555612  -0.021880  -0.027068  -0.008063
    16  H   -0.000000  -0.000000  -0.021880   0.550804  -0.021054  -0.001654
    17  H   -0.000000  -0.000000  -0.027068  -0.021054   0.553356   0.007357
    18  H   -0.000002  -0.000001  -0.008063  -0.001654   0.007357   0.585922
    19  H    0.000001   0.000001   0.007276  -0.002139  -0.008051  -0.044657
    20  H    0.000022  -0.000001   0.000304   0.000044  -0.000146  -0.000152
    21  H   -0.000219  -0.000004  -0.000000  -0.000000   0.000000   0.000000
    22  H    0.001623   0.000550  -0.000000   0.000000   0.000000   0.000000
    23  H    0.405525  -0.019656  -0.000000   0.000000   0.000000   0.000000
    24  H    0.404223  -0.020739   0.000000   0.000000  -0.000000  -0.000000
    25  H   -0.033407   0.413377   0.000000  -0.000000   0.000000  -0.000000
    26  H   -0.039169   0.408647   0.000000  -0.000000  -0.000000  -0.000000
    27  H   -0.033775   0.412283   0.000000   0.000000   0.000000   0.000000
              19         20         21         22         23         24
     1  C   -0.030485  -0.000304   0.000000   0.000000   0.000000   0.000000
     2  C    0.415263  -0.001287  -0.000000  -0.000001  -0.000001   0.000001
     3  O   -0.034856   0.011722  -0.000001   0.000002  -0.000002  -0.000001
     4  C   -0.008030  -0.010479   0.000162   0.000088   0.000282  -0.000140
     5  O    0.006046   0.000191  -0.000001  -0.000039  -0.000081  -0.000079
     6  C   -0.003468  -0.062294   0.002639   0.014631  -0.003205  -0.002944
     7  C    0.000661   0.435539   0.002699  -0.002903  -0.000062   0.000120
     8  N    0.000006  -0.024257  -0.028348   0.007432  -0.000038  -0.000043
     9  C    0.000002   0.004575   0.438164  -0.014746   0.000181   0.000062
    10  C   -0.000016   0.000129  -0.072922   0.417757   0.010668   0.009106
    11  C    0.000370   0.003693  -0.001798  -0.075585  -0.013301  -0.013648
    12  O   -0.000012  -0.000085  -0.000118  -0.003182  -0.038390  -0.035895
    13  C    0.000001   0.000022  -0.000219   0.001623   0.405525   0.404223
    14  C    0.000001  -0.000001  -0.000004   0.000550  -0.019656  -0.020739
    15  H    0.007276   0.000304  -0.000000  -0.000000  -0.000000   0.000000
    16  H   -0.002139   0.000044  -0.000000   0.000000   0.000000   0.000000
    17  H   -0.008051  -0.000146   0.000000   0.000000   0.000000  -0.000000
    18  H   -0.044657  -0.000152   0.000000   0.000000   0.000000  -0.000000
    19  H    0.588346   0.000237   0.000000  -0.000000  -0.000000   0.000000
    20  H    0.000237   0.491300  -0.000211   0.000052  -0.000000   0.000002
    21  H    0.000000  -0.000211   0.529979  -0.000517   0.000001   0.000003
    22  H   -0.000000   0.000052  -0.000517   0.516307  -0.002470  -0.002651
    23  H   -0.000000  -0.000000   0.000001  -0.002470   0.616952  -0.062631
    24  H    0.000000   0.000002   0.000003  -0.002651  -0.062631   0.620531
    25  H   -0.000000   0.000000  -0.000000  -0.000042  -0.009026   0.007432
    26  H   -0.000000  -0.000000   0.000000   0.000075  -0.002433  -0.002330
    27  H    0.000000   0.000000  -0.000000  -0.000045   0.007533  -0.009292
              25         26         27
     1  C   -0.000000   0.000000   0.000000
     2  C    0.000001   0.000000  -0.000001
     3  O    0.000001   0.000000  -0.000001
     4  C    0.000027   0.000046   0.000074
     5  O    0.000210   0.000021   0.000010
     6  C   -0.000326  -0.000024  -0.000550
     7  C    0.000004  -0.000006   0.000005
     8  N   -0.000000   0.000000  -0.000000
     9  C    0.000001  -0.000008   0.000003
    10  C   -0.000006   0.000109   0.000092
    11  C   -0.000846   0.000670  -0.000749
    12  O    0.002272   0.004460   0.002337
    13  C   -0.033407  -0.039169  -0.033775
    14  C    0.413377   0.408647   0.412283
    15  H    0.000000   0.000000   0.000000
    16  H   -0.000000  -0.000000   0.000000
    17  H    0.000000  -0.000000   0.000000
    18  H   -0.000000  -0.000000   0.000000
    19  H   -0.000000  -0.000000   0.000000
    20  H    0.000000  -0.000000   0.000000
    21  H   -0.000000   0.000000  -0.000000
    22  H   -0.000042   0.000075  -0.000045
    23  H   -0.009026  -0.002433   0.007533
    24  H    0.007432  -0.002330  -0.009292
    25  H    0.533167  -0.022917  -0.021639
    26  H   -0.022917   0.559584  -0.023271
    27  H   -0.021639  -0.023271   0.541565
 Mulliken charges:
               1
     1  C   -0.327920
     2  C   -0.045110
     3  O   -0.283379
     4  C    0.374636
     5  O   -0.348963
     6  C   -0.005108
     7  C   -0.050797
     8  N   -0.272937
     9  C   -0.016869
    10  C   -0.241937
    11  C    0.249414
    12  O   -0.230170
    13  C   -0.074252
    14  C   -0.331396
    15  H    0.119232
    16  H    0.119251
    17  H    0.120485
    18  H    0.114010
    19  H    0.113505
    20  H    0.151405
    21  H    0.130490
    22  H    0.143662
    23  H    0.110153
    24  H    0.108912
    25  H    0.131718
    26  H    0.116546
    27  H    0.125418
 Sum of Mulliken charges =  -0.00000
 Mulliken charges with hydrogens summed into heavy atoms:
               1
     1  C    0.031048
     2  C    0.182405
     3  O   -0.283379
     4  C    0.374636
     5  O   -0.348963
     6  C   -0.005108
     7  C    0.100609
     8  N   -0.272937
     9  C    0.113621
    10  C   -0.098275
    11  C    0.249414
    12  O   -0.230170
    13  C    0.144813
    14  C    0.042287
 Electronic spatial extent (au):  <R**2>=           3506.4539
 Charge=              0.0000 electrons
 Dipole moment (field-independent basis, Debye):
    X=             -1.6355    Y=             -0.9980    Z=              0.5128  Tot=              1.9834
 Quadrupole moment (field-independent basis, Debye-Ang):
   XX=            -59.7995   YY=            -91.5337   ZZ=            -82.9226
   XY=             -1.9057   XZ=             -0.5815   YZ=             -1.3915
 Traceless Quadrupole moment (field-independent basis, Debye-Ang):
   XX=             18.2858   YY=            -13.4485   ZZ=             -4.8373
   XY=             -1.9057   XZ=             -0.5815   YZ=             -1.3915
 Octapole moment (field-independent basis, Debye-Ang**2):
  XXX=              0.9908  YYY=            -38.8494  ZZZ=             -0.6285  XYY=            -14.5094
  XXY=            -18.0661  XXZ=              0.0542  XZZ=              4.8534  YZZ=             -8.8333
  YYZ=              3.6819  XYZ=             -1.7686
 Hexadecapole moment (field-independent basis, Debye-Ang**3):
 XXXX=          -2798.7185 YYYY=          -1606.1275 ZZZZ=           -122.4996 XXXY=            -28.8440
 XXXZ=             -9.4431 YYYX=            -31.0241 YYYZ=              0.0641 ZZZX=             -0.1696
 ZZZY=              2.5256 XXYY=           -684.0486 XXZZ=           -535.5637 YYZZ=           -273.1134
 XXYZ=             -1.3304 YYXZ=             -0.6347 ZZXY=              6.3564
 N-N= 8.880070190806D+02 E-N=-3.338759731224D+03  KE= 6.660415307390D+02
 Breneman (CHELPG) radii used.
 Read replacement radii for each type of atom:
 Atom Element Radius
    1     6    1.50
    2     6    1.50
    3     8    1.70
    4     6    1.50
    5     8    1.70
    6     6    1.50
    7     6    1.50
    8     7    1.70
    9     6    1.50
   10     6    1.50
   11     6    1.50
   12     8    1.70
   13     6    1.50
   14     6    1.50
   15     1    1.45
   16     1    1.45
   17     1    1.45
   18     1    1.45
   19     1    1.45
   20     1    1.45
   21     1    1.45
   22     1    1.45
   23     1    1.45
   24     1    1.45
   25     1    1.45
   26     1    1.45
   27     1    1.45
 Generate Potential Derived Charges using the Breneman model, NDens= 1.
 Grid spacing= 0.300 Box extension= 2.800
 NStep X,Y,Z=   52     43     28   Total possible points=       62608
 Number of Points to Fit=   17212

 **********************************************************************

            Electrostatic Properties Using The SCF Density.

 **********************************************************************

       Atomic Center    1 is at   4.674790 -0.421530  0.268210
       Atomic Center    2 is at   3.355660 -1.100960 -0.017520
       Atomic Center    3 is at   2.325540 -0.121370  0.081500
       Atomic Center    4 is at   1.073080 -0.539810 -0.157930
       Atomic Center    5 is at   0.808950 -1.683740 -0.417770
       Atomic Center    6 is at   0.101460  0.590920 -0.072820
       Atomic Center    7 is at   0.553310  1.915470 -0.084570
       Atomic Center    8 is at  -0.230700  2.988330 -0.043360
       Atomic Center    9 is at  -1.540820  2.767640  0.020420
       Atomic Center   10 is at  -2.124140  1.505470  0.046920
       Atomic Center   11 is at  -1.295100  0.374750  0.001490
       Atomic Center   12 is at  -1.746520 -0.872950  0.038980
       Atomic Center   13 is at  -3.135630 -1.133370  0.105300
       Atomic Center   14 is at  -3.321000 -2.633590  0.116140
       Atomic Center   15 is at   4.869290  0.379870 -0.459090
       Atomic Center   16 is at   5.493990 -1.152030  0.204930
       Atomic Center   17 is at   4.679060  0.017400  1.276240
       Atomic Center   18 is at   3.333550 -1.548360 -1.023920
       Atomic Center   19 is at   3.149560 -1.913030  0.697480
       Atomic Center   20 is at   1.630040  2.095520 -0.137290
       Atomic Center   21 is at  -2.184430  3.653940  0.055780
       Atomic Center   22 is at  -3.207790  1.416630  0.105550
       Atomic Center   23 is at  -3.641740 -0.679900 -0.765640
       Atomic Center   24 is at  -3.559120 -0.675890  1.017540
       Atomic Center   25 is at  -2.890190 -3.079140 -0.791020
       Atomic Center   26 is at  -4.390970 -2.881700  0.159950
       Atomic Center   27 is at  -2.819740 -3.077110  0.987540
   17212 points will be used for fitting atomic charges
 Fitting point charges to electrostatic potential
 Charges from ESP fit, RMS=   0.00281 RRMS=   0.19537:
 ESP charges:
               1
     1  C   -0.293894
     2  C    0.419442
     3  O   -0.485316
     4  C    0.817711
     5  O   -0.553610
     6  C   -0.535303
     7  C    0.463076
     8  N   -0.672025
     9  C    0.460572
    10  C   -0.555908
    11  C    0.644658
    12  O   -0.411113
    13  C    0.393844
    14  C   -0.323129
    15  H    0.092975
    16  H    0.057884
    17  H    0.084480
    18  H   -0.026501
    19  H   -0.018674
    20  H    0.027040
    21  H    0.027022
    22  H    0.149718
    23  H   -0.019540
    24  H   -0.021704
    25  H    0.108167
    26  H    0.065242
    27  H    0.104888
 Sum of ESP charges =  -0.00000
 ESP charges with hydrogens summed into heavy atoms:
               1
     1  C   -0.058555
     2  C    0.374268
     3  O   -0.485316
     4  C    0.817711
     5  O   -0.553610
     6  C   -0.535303
     7  C    0.490116
     8  N   -0.672025
     9  C    0.487593
    10  C   -0.406191
    11  C    0.644658
    12  O   -0.411113
    13  C    0.352600
    14  C   -0.044833
 Charge=  -0.00000 Dipole=    -1.6272    -0.8860     0.4976 Tot=     1.9184
 -----------------------------------------------------------------

              Electrostatic Properties (Atomic Units)

 -----------------------------------------------------------------
    Center     Electric         -------- Electric Field --------
               Potential          X             Y             Z
 -----------------------------------------------------------------
    1 Atom    -14.769739
    2 Atom    -14.711321
    3 Atom    -22.318589
    4 Atom    -14.643187
    5 Atom    -22.387866
    6 Atom    -14.747860
    7 Atom    -14.729870
    8 Atom    -18.403692
    9 Atom    -14.727242
   10 Atom    -14.757587
   11 Atom    -14.676225
   12 Atom    -22.310696
   13 Atom    -14.697629
   14 Atom    -14.766562
   15 Atom     -1.115526
   16 Atom     -1.109123
   17 Atom     -1.115680
   18 Atom     -1.115437
   19 Atom     -1.115823
   20 Atom     -1.105458
   21 Atom     -1.099953
   22 Atom     -1.081555
   23 Atom     -1.100617
   24 Atom     -1.100688
   25 Atom     -1.113333
   26 Atom     -1.104873
   27 Atom     -1.112840
 -----------------------------------------------------------------
 Unable to Open any file for archive entry.
 1\1\GINC-NOTCH385\SP\RwB97XD\def2TZVP\C10H13N1O3\U6053008\12-Jul-2024\
 0\\#N Guess=Read Geom=Check Integral(Ultrafine) Density Pop=(ChelpG,Re
 adRadii) NMR wB97XD def2TZVP\\12326824_18\\0,1\C,0,4.67479,-0.42153,0.
 26821\C,0,3.35566,-1.10096,-0.01752\O,0,2.32554,-0.12137,0.0815\C,0,1.
 07308,-0.53981,-0.15793\O,0,0.80895,-1.68374,-0.41777\C,0,0.10146,0.59
 092,-0.07282\C,0,0.55331,1.91547,-0.08457\N,0,-0.2307,2.98833,-0.04336
 \C,0,-1.54082,2.76764,0.02042\C,0,-2.12414,1.50547,0.04692\C,0,-1.2951
 ,0.37475,0.00149\O,0,-1.74652,-0.87295,0.03898\C,0,-3.13563,-1.13337,0
 .1053\C,0,-3.321,-2.63359,0.11614\H,0,4.86929,0.37987,-0.45909\H,0,5.4
 9399,-1.15203,0.20493\H,0,4.67906,0.0174,1.27624\H,0,3.33355,-1.54836,
 -1.02392\H,0,3.14956,-1.91303,0.69748\H,0,1.63004,2.09552,-0.13729\H,0
 ,-2.18443,3.65394,0.05578\H,0,-3.20779,1.41663,0.10555\H,0,-3.64174,-0
 .6799,-0.76564\H,0,-3.55912,-0.67589,1.01754\H,0,-2.89019,-3.07914,-0.
 79102\H,0,-4.39097,-2.8817,0.15995\H,0,-2.81974,-3.07711,0.98754\\Vers
 ion=ES64L-G16RevC.01\State=1-A\HF=-669.3547921\RMSD=1.517e-09\Dipole=-
 0.6434497,-0.3926382,0.2017356\Quadrupole=13.5950318,-9.9986047,-3.596
 4271,-1.4168288,-0.4323475,-1.0345379\PG=C01 [X(C10H13N1O3)]\\@
 The archive entry for this job was punched.


 TOM, TOM, THE BURGLAR'S SON
 STOLE A MACHINE AND AWAY HE RUN
 THE JOB WAS NEAT, BUT TOM GOT BEAT
 BY THE TIME HE GOT HOME IT WAS OBSOLETE.
 Job cpu time:       0 days  0 hours 44 minutes 46.7 seconds.
 Elapsed time:       0 days  0 hours  2 minutes 59.4 seconds.
 File lengths (MBytes):  RWF=    165 Int=      0 D2E=      0 Chk=     25 Scr=      2
 Normal termination of Gaussian 16 at Fri Jul 12 13:25:16 2024.
