 Entering Gaussian System, Link 0=g16
 Input=12326824_4.com
 Output=12326824_4.log
 Initial command:
 /uufs/chpc.utah.edu/sys/installdir/gaussian16/C01/AVX/g16/l1.exe "/scratch/general/vast/u6053008/1287126-notchpeak.peaks/Gau-3380416.inp" -scrdir="/scratch/general/vast/u6053008/1287126-notchpeak.peaks/"
 Entering Link 1 = /uufs/chpc.utah.edu/sys/installdir/gaussian16/C01/AVX/g16/l1.exe PID=   3380417.
  
 Copyright (c) 1988-2019, Gaussian, Inc.  All Rights Reserved.
  
 This is part of the Gaussian(R) 16 program.  It is based on
 the Gaussian(R) 09 system (copyright 2009, Gaussian, Inc.),
 the Gaussian(R) 03 system (copyright 2003, Gaussian, Inc.),
 the Gaussian(R) 98 system (copyright 1998, Gaussian, Inc.),
 the Gaussian(R) 94 system (copyright 1995, Gaussian, Inc.),
 the Gaussian 92(TM) system (copyright 1992, Gaussian, Inc.),
 the Gaussian 90(TM) system (copyright 1990, Gaussian, Inc.),
 the Gaussian 88(TM) system (copyright 1988, Gaussian, Inc.),
 the Gaussian 86(TM) system (copyright 1986, Carnegie Mellon
 University), and the Gaussian 82(TM) system (copyright 1983,
 Carnegie Mellon University). Gaussian is a federally registered
 trademark of Gaussian, Inc.
  
 This software contains proprietary and confidential information,
 including trade secrets, belonging to Gaussian, Inc.
  
 This software is provided under written license and may be
 used, copied, transmitted, or stored only in accord with that
 written license.
  
 The following legend is applicable only to US Government
 contracts under FAR:
  
                    RESTRICTED RIGHTS LEGEND
  
 Use, reproduction and disclosure by the US Government is
 subject to restrictions as set forth in subparagraphs (a)
 and (c) of the Commercial Computer Software - Restricted
 Rights clause in FAR 52.227-19.
  
 Gaussian, Inc.
 340 Quinnipiac St., Bldg. 40, Wallingford CT 06492
  
  
 ---------------------------------------------------------------
 Warning -- This program may not be used in any manner that
 competes with the business of Gaussian, Inc. or will provide
 assistance to any competitor of Gaussian, Inc.  The licensee
 of this program is prohibited from giving any competitor of
 Gaussian, Inc. access to this program.  By using this program,
 the user acknowledges that Gaussian, Inc. is engaged in the
 business of creating and licensing software in the field of
 computational chemistry and represents and warrants to the
 licensee that it is not a competitor of Gaussian, Inc. and that
 it will not use this program in any manner prohibited above.
 ---------------------------------------------------------------
  

 Cite this work as:
 Gaussian 16, Revision C.01,
 M. J. Frisch, G. W. Trucks, H. B. Schlegel, G. E. Scuseria, 
 M. A. Robb, J. R. Cheeseman, G. Scalmani, V. Barone, 
 G. A. Petersson, H. Nakatsuji, X. Li, M. Caricato, A. V. Marenich, 
 J. Bloino, B. G. Janesko, R. Gomperts, B. Mennucci, H. P. Hratchian, 
 J. V. Ortiz, A. F. Izmaylov, J. L. Sonnenberg, D. Williams-Young, 
 F. Ding, F. Lipparini, F. Egidi, J. Goings, B. Peng, A. Petrone, 
 T. Henderson, D. Ranasinghe, V. G. Zakrzewski, J. Gao, N. Rega, 
 G. Zheng, W. Liang, M. Hada, M. Ehara, K. Toyota, R. Fukuda, 
 J. Hasegawa, M. Ishida, T. Nakajima, Y. Honda, O. Kitao, H. Nakai, 
 T. Vreven, K. Throssell, J. A. Montgomery, Jr., J. E. Peralta, 
 F. Ogliaro, M. J. Bearpark, J. J. Heyd, E. N. Brothers, K. N. Kudin, 
 V. N. Staroverov, T. A. Keith, R. Kobayashi, J. Normand, 
 K. Raghavachari, A. P. Rendell, J. C. Burant, S. S. Iyengar, 
 J. Tomasi, M. Cossi, J. M. Millam, M. Klene, C. Adamo, R. Cammi, 
 J. W. Ochterski, R. L. Martin, K. Morokuma, O. Farkas, 
 J. B. Foresman, and D. J. Fox, Gaussian, Inc., Wallingford CT, 2019.
 
 ******************************************
 Gaussian 16:  ES64L-G16RevC.01  3-Jul-2019
                12-Jul-2024 
 ******************************************
 %NProcShared=16
 Will use up to   16 processors via shared memory.
 %Mem=32GB
 %chk=12326824_4.chk
 ------------------------------------------------------
 #N OPT FREQ=NORAMAN Integral(Ultrafine) wB97XD def2SVP
 ------------------------------------------------------
 1/18=20,19=15,26=4,38=1/1,3;
 2/9=110,12=2,17=6,18=5,40=1/2;
 3/5=43,7=101,11=2,25=1,30=1,71=1,74=-58,75=-5/1,2,3;
 4//1;
 5/5=2,38=5/2;
 6/7=2,8=2,9=2,10=2,28=1/1;
 7//1,2,3,16;
 1/18=20,19=15,26=4/3(2);
 2/9=110/2;
 99//99;
 2/9=110/2;
 3/5=43,7=101,11=2,25=1,30=1,71=1,74=-58,75=-5/1,2,3;
 4/5=5,16=3,69=1/1;
 5/5=2,38=5/2;
 7//1,2,3,16;
 1/18=20,19=15,26=4/3(-5);
 2/9=110/2;
 6/7=2,8=2,9=2,10=2,19=2,28=1/1;
 99/9=1/99;
 ----------
 12326824_4
 ----------
 Symbolic Z-matrix:
 Charge =  0 Multiplicity = 1
 C                    -3.87671   0.60497   0.97423 
 C                    -3.11488   0.85245  -0.3131 
 O                    -1.72596   0.5549   -0.17041 
 C                    -1.35611  -0.71598  -0.31438 
 O                    -2.13215  -1.61375  -0.53559 
 C                     0.10942  -0.94402  -0.12954 
 C                     0.49436  -2.25899   0.15619 
 N                     1.74193  -2.66024   0.37197 
 C                     2.68556  -1.72553   0.29529 
 C                     2.44417  -0.38756   0.00379 
 C                     1.12532   0.03439  -0.22635 
 O                     0.78878   1.27886  -0.56161 
 C                     1.75036   2.31805  -0.60411 
 C                     2.08948   2.84926   0.77691 
 H                    -3.8689   -0.46385   1.22844 
 H                    -4.92317   0.92293   0.8565 
 H                    -3.43361   1.17313   1.8051 
 H                    -3.53103   0.25252  -1.13536 
 H                    -3.14377   1.91364  -0.59505 
 H                    -0.29364  -3.01641   0.21093 
 H                     3.71566  -2.05435   0.47342 
 H                     3.28349   0.30439  -0.04611 
 H                     1.27713   3.10366  -1.20842 
 H                     2.6508    1.98884  -1.15007 
 H                     1.17594   3.18574   1.28712 
 H                     2.7765    3.70392   0.6922 
 H                     2.56994   2.08513   1.40476 
 

 GradGradGradGradGradGradGradGradGradGradGradGradGradGradGradGradGradGrad
 Berny optimization.
 Initialization pass.
                           ----------------------------
                           !    Initial Parameters    !
                           ! (Angstroms and Degrees)  !
 --------------------------                            --------------------------
 ! Name  Definition              Value          Derivative Info.                !
 --------------------------------------------------------------------------------
 ! R1    R(1,2)                  1.5162         estimate D2E/DX2                !
 ! R2    R(1,15)                 1.0987         estimate D2E/DX2                !
 ! R3    R(1,16)                 1.1            estimate D2E/DX2                !
 ! R4    R(1,17)                 1.0998         estimate D2E/DX2                !
 ! R5    R(2,3)                  1.4276         estimate D2E/DX2                !
 ! R6    R(2,18)                 1.0996         estimate D2E/DX2                !
 ! R7    R(2,19)                 1.0984         estimate D2E/DX2                !
 ! R8    R(3,4)                  1.3314         estimate D2E/DX2                !
 ! R9    R(4,5)                  1.2071         estimate D2E/DX2                !
 ! R10   R(4,6)                  1.4946         estimate D2E/DX2                !
 ! R11   R(6,7)                  1.3996         estimate D2E/DX2                !
 ! R12   R(6,11)                 1.4138         estimate D2E/DX2                !
 ! R13   R(7,8)                  1.3282         estimate D2E/DX2                !
 ! R14   R(7,20)                 1.0944         estimate D2E/DX2                !
 ! R15   R(8,9)                  1.3304         estimate D2E/DX2                !
 ! R16   R(9,10)                 1.3905         estimate D2E/DX2                !
 ! R17   R(9,21)                 1.0959         estimate D2E/DX2                !
 ! R18   R(10,11)                1.4037         estimate D2E/DX2                !
 ! R19   R(10,22)                1.0889         estimate D2E/DX2                !
 ! R20   R(11,12)                1.3321         estimate D2E/DX2                !
 ! R21   R(12,13)                1.4165         estimate D2E/DX2                !
 ! R22   R(13,14)                1.518          estimate D2E/DX2                !
 ! R23   R(13,23)                1.0983         estimate D2E/DX2                !
 ! R24   R(13,24)                1.1033         estimate D2E/DX2                !
 ! R25   R(14,25)                1.0991         estimate D2E/DX2                !
 ! R26   R(14,26)                1.0998         estimate D2E/DX2                !
 ! R27   R(14,27)                1.0995         estimate D2E/DX2                !
 ! A1    A(2,1,15)             110.5897         estimate D2E/DX2                !
 ! A2    A(2,1,16)             109.8737         estimate D2E/DX2                !
 ! A3    A(2,1,17)             110.7743         estimate D2E/DX2                !
 ! A4    A(15,1,16)            108.2235         estimate D2E/DX2                !
 ! A5    A(15,1,17)            108.9604         estimate D2E/DX2                !
 ! A6    A(16,1,17)            108.3497         estimate D2E/DX2                !
 ! A7    A(1,2,3)              111.7136         estimate D2E/DX2                !
 ! A8    A(1,2,18)             110.8351         estimate D2E/DX2                !
 ! A9    A(1,2,19)             111.2494         estimate D2E/DX2                !
 ! A10   A(3,2,18)             109.2214         estimate D2E/DX2                !
 ! A11   A(3,2,19)             104.6325         estimate D2E/DX2                !
 ! A12   A(18,2,19)            108.9774         estimate D2E/DX2                !
 ! A13   A(2,3,4)              117.2846         estimate D2E/DX2                !
 ! A14   A(3,4,5)              123.4454         estimate D2E/DX2                !
 ! A15   A(3,4,6)              113.8686         estimate D2E/DX2                !
 ! A16   A(5,4,6)              122.6531         estimate D2E/DX2                !
 ! A17   A(4,6,7)              115.9931         estimate D2E/DX2                !
 ! A18   A(4,6,11)             126.1945         estimate D2E/DX2                !
 ! A19   A(7,6,11)             117.8106         estimate D2E/DX2                !
 ! A20   A(6,7,8)              125.1239         estimate D2E/DX2                !
 ! A21   A(6,7,20)             117.5435         estimate D2E/DX2                !
 ! A22   A(8,7,20)             117.332          estimate D2E/DX2                !
 ! A23   A(7,8,9)              116.3992         estimate D2E/DX2                !
 ! A24   A(8,9,10)             124.4019         estimate D2E/DX2                !
 ! A25   A(8,9,21)             116.5209         estimate D2E/DX2                !
 ! A26   A(10,9,21)            119.0767         estimate D2E/DX2                !
 ! A27   A(9,10,11)            119.1259         estimate D2E/DX2                !
 ! A28   A(9,10,22)            119.1601         estimate D2E/DX2                !
 ! A29   A(11,10,22)           121.713          estimate D2E/DX2                !
 ! A30   A(6,11,10)            117.1219         estimate D2E/DX2                !
 ! A31   A(6,11,12)            118.8323         estimate D2E/DX2                !
 ! A32   A(10,11,12)           124.0195         estimate D2E/DX2                !
 ! A33   A(11,12,13)           121.4298         estimate D2E/DX2                !
 ! A34   A(12,13,14)           112.4011         estimate D2E/DX2                !
 ! A35   A(12,13,23)           104.4052         estimate D2E/DX2                !
 ! A36   A(12,13,24)           110.4861         estimate D2E/DX2                !
 ! A37   A(14,13,23)           110.2736         estimate D2E/DX2                !
 ! A38   A(14,13,24)           111.8564         estimate D2E/DX2                !
 ! A39   A(23,13,24)           107.0262         estimate D2E/DX2                !
 ! A40   A(13,14,25)           110.1056         estimate D2E/DX2                !
 ! A41   A(13,14,26)           109.9626         estimate D2E/DX2                !
 ! A42   A(13,14,27)           111.9571         estimate D2E/DX2                !
 ! A43   A(25,14,26)           108.4845         estimate D2E/DX2                !
 ! A44   A(25,14,27)           108.1121         estimate D2E/DX2                !
 ! A45   A(26,14,27)           108.1238         estimate D2E/DX2                !
 ! D1    D(15,1,2,3)           -65.3363         estimate D2E/DX2                !
 ! D2    D(15,1,2,18)           56.717          estimate D2E/DX2                !
 ! D3    D(15,1,2,19)          178.1378         estimate D2E/DX2                !
 ! D4    D(16,1,2,3)           175.2564         estimate D2E/DX2                !
 ! D5    D(16,1,2,18)          -62.6903         estimate D2E/DX2                !
 ! D6    D(16,1,2,19)           58.7305         estimate D2E/DX2                !
 ! D7    D(17,1,2,3)            55.5764         estimate D2E/DX2                !
 ! D8    D(17,1,2,18)          177.6297         estimate D2E/DX2                !
 ! D9    D(17,1,2,19)          -60.9495         estimate D2E/DX2                !
 ! D10   D(1,2,3,4)             83.4621         estimate D2E/DX2                !
 ! D11   D(18,2,3,4)           -39.514          estimate D2E/DX2                !
 ! D12   D(19,2,3,4)          -156.0633         estimate D2E/DX2                !
 ! D13   D(2,3,4,5)             -1.1702         estimate D2E/DX2                !
 ! D14   D(2,3,4,6)           -179.1309         estimate D2E/DX2                !
 ! D15   D(3,4,6,7)            160.2836         estimate D2E/DX2                !
 ! D16   D(3,4,6,11)           -20.216          estimate D2E/DX2                !
 ! D17   D(5,4,6,7)            -17.6954         estimate D2E/DX2                !
 ! D18   D(5,4,6,11)           161.805          estimate D2E/DX2                !
 ! D19   D(4,6,7,8)           -179.0048         estimate D2E/DX2                !
 ! D20   D(4,6,7,20)             0.7035         estimate D2E/DX2                !
 ! D21   D(11,6,7,8)             1.4511         estimate D2E/DX2                !
 ! D22   D(11,6,7,20)         -178.8406         estimate D2E/DX2                !
 ! D23   D(4,6,11,10)          179.0637         estimate D2E/DX2                !
 ! D24   D(4,6,11,12)           -2.7281         estimate D2E/DX2                !
 ! D25   D(7,6,11,10)           -1.4441         estimate D2E/DX2                !
 ! D26   D(7,6,11,12)          176.7642         estimate D2E/DX2                !
 ! D27   D(6,7,8,9)             -0.5679         estimate D2E/DX2                !
 ! D28   D(20,7,8,9)           179.7232         estimate D2E/DX2                !
 ! D29   D(7,8,9,10)            -0.2716         estimate D2E/DX2                !
 ! D30   D(7,8,9,21)           179.9746         estimate D2E/DX2                !
 ! D31   D(8,9,10,11)            0.166          estimate D2E/DX2                !
 ! D32   D(8,9,10,22)         -179.4593         estimate D2E/DX2                !
 ! D33   D(21,9,10,11)         179.9139         estimate D2E/DX2                !
 ! D34   D(21,9,10,22)           0.2886         estimate D2E/DX2                !
 ! D35   D(9,10,11,6)            0.7222         estimate D2E/DX2                !
 ! D36   D(9,10,11,12)        -177.384          estimate D2E/DX2                !
 ! D37   D(22,10,11,6)        -179.6625         estimate D2E/DX2                !
 ! D38   D(22,10,11,12)          2.2313         estimate D2E/DX2                !
 ! D39   D(6,11,12,13)         176.5353         estimate D2E/DX2                !
 ! D40   D(10,11,12,13)         -5.3887         estimate D2E/DX2                !
 ! D41   D(11,12,13,14)        -78.5055         estimate D2E/DX2                !
 ! D42   D(11,12,13,23)        161.9681         estimate D2E/DX2                !
 ! D43   D(11,12,13,24)         47.2164         estimate D2E/DX2                !
 ! D44   D(12,13,14,25)        -56.0735         estimate D2E/DX2                !
 ! D45   D(12,13,14,26)       -175.5567         estimate D2E/DX2                !
 ! D46   D(12,13,14,27)         64.2261         estimate D2E/DX2                !
 ! D47   D(23,13,14,25)         59.9739         estimate D2E/DX2                !
 ! D48   D(23,13,14,26)        -59.5093         estimate D2E/DX2                !
 ! D49   D(23,13,14,27)       -179.7265         estimate D2E/DX2                !
 ! D50   D(24,13,14,25)        178.9528         estimate D2E/DX2                !
 ! D51   D(24,13,14,26)         59.4696         estimate D2E/DX2                !
 ! D52   D(24,13,14,27)        -60.7476         estimate D2E/DX2                !
 --------------------------------------------------------------------------------
 Trust Radius=3.00D-01 FncErr=1.00D-07 GrdErr=1.00D-06 EigMax=2.50D+02 EigMin=1.00D-04
 Number of steps in this run=    134 maximum allowed number of steps=    162.
 GradGradGradGradGradGradGradGradGradGradGradGradGradGradGradGradGradGrad

                          Input orientation:                          
 ---------------------------------------------------------------------
 Center     Atomic      Atomic             Coordinates (Angstroms)
 Number     Number       Type             X           Y           Z
 ---------------------------------------------------------------------
      1          6           0       -3.876710    0.604970    0.974230
      2          6           0       -3.114880    0.852450   -0.313100
      3          8           0       -1.725960    0.554900   -0.170410
      4          6           0       -1.356110   -0.715980   -0.314380
      5          8           0       -2.132150   -1.613750   -0.535590
      6          6           0        0.109420   -0.944020   -0.129540
      7          6           0        0.494360   -2.258990    0.156190
      8          7           0        1.741930   -2.660240    0.371970
      9          6           0        2.685560   -1.725530    0.295290
     10          6           0        2.444170   -0.387560    0.003790
     11          6           0        1.125320    0.034390   -0.226350
     12          8           0        0.788780    1.278860   -0.561610
     13          6           0        1.750360    2.318050   -0.604110
     14          6           0        2.089480    2.849260    0.776910
     15          1           0       -3.868900   -0.463850    1.228440
     16          1           0       -4.923170    0.922930    0.856500
     17          1           0       -3.433610    1.173130    1.805100
     18          1           0       -3.531030    0.252520   -1.135360
     19          1           0       -3.143770    1.913640   -0.595050
     20          1           0       -0.293640   -3.016410    0.210930
     21          1           0        3.715660   -2.054350    0.473420
     22          1           0        3.283490    0.304390   -0.046110
     23          1           0        1.277130    3.103660   -1.208420
     24          1           0        2.650800    1.988840   -1.150070
     25          1           0        1.175940    3.185740    1.287120
     26          1           0        2.776500    3.703920    0.692200
     27          1           0        2.569940    2.085130    1.404760
 ---------------------------------------------------------------------
                    Distance matrix (angstroms):
                    1          2          3          4          5
     1  C    0.000000
     2  C    1.516196   0.000000
     3  O    2.436890   1.427584   0.000000
     4  C    3.123916   2.356533   1.331410   0.000000
     5  O    3.200901   2.664095   2.236379   1.207130   0.000000
     6  C    4.416663   3.695553   2.370032   1.494639   2.374458
     7  C    5.289396   4.788309   3.599231   2.454904   2.791675
     8  N    6.526364   6.032986   4.759996   3.721435   4.114280
     9  C    6.996826   6.376615   4.987860   4.210224   4.890111
    10  C    6.471506   5.704479   4.278850   3.827691   4.768352
    11  C    5.175641   4.319264   2.898941   2.593897   3.663756
    12  O    4.957795   3.934736   2.645954   2.939568   4.110925
    13  C    6.090133   5.089522   3.921938   4.351946   5.526086
    14  C    6.377397   5.679853   4.551822   5.076804   6.281980
    15  H    1.098663   2.162762   2.754419   2.959388   2.729537
    16  H    1.100017   2.154726   3.378186   4.096450   4.020255
    17  H    1.099767   2.165917   2.683452   3.518087   3.865143
    18  H    2.166584   1.099640   2.069019   2.518388   2.408226
    19  H    2.170820   1.098387   2.009149   3.192085   3.670067
    20  H    5.151253   4.816854   3.866680   2.587812   2.429993
    21  H    8.060203   7.464876   6.069096   5.304217   5.950556
    22  H    7.238778   6.427347   5.017250   4.758047   5.766109
    23  H    6.129395   5.015904   4.073351   4.724713   5.859168
    24  H    7.002580   5.935905   4.708710   4.906094   6.019373
    25  H    5.682213   5.139658   4.179322   4.919299   6.107441
    26  H    7.344946   6.621923   5.561706   6.134100   7.340295
    27  H    6.628388   6.065288   4.824678   5.120110   6.289382
                    6          7          8          9         10
     6  C    0.000000
     7  C    1.399631   0.000000
     8  N    2.421159   1.328154   0.000000
     9  C    2.725387   2.259488   1.330414   0.000000
    10  C    2.403847   2.706887   2.407026   1.390469   0.000000
    11  C    1.413758   2.409157   2.828290   2.409103   1.403699
    12  O    2.364193   3.621920   4.158915   3.654916   2.415978
    13  C    3.682255   4.806754   5.073083   4.246653   2.858538
    14  C    4.373930   5.387385   5.535283   4.638531   3.346718
    15  H    4.231040   4.838418   6.085974   6.739700   6.431208
    16  H    5.457540   6.321762   7.582706   8.076018   7.531414
    17  H    4.558313   5.470585   6.598091   6.937290   6.342615
    18  H    3.961850   4.917270   6.209696   6.678730   6.116403
    19  H    4.355016   5.586698   6.762069   6.929455   6.072825
    20  H    2.138499   1.094361   2.072761   3.247941   3.801232
    21  H    3.821173   3.243345   2.067125   1.095883   2.148355
    22  H    3.411775   3.793559   3.367526   2.143513   1.088918
    23  H    4.348706   5.588641   5.994682   5.250323   3.875571
    24  H    4.012700   4.939697   4.975600   3.985827   2.649786
    25  H    4.494364   5.602556   5.944184   5.232901   4.002976
    26  H    5.421431   6.407165   6.455650   5.444698   4.162278
    27  H    4.193326   4.973765   4.926540   3.970569   2.844773
                   11         12         13         14         15
    11  C    0.000000
    12  O    1.332053   0.000000
    13  C    2.397599   1.416460   0.000000
    14  C    3.140004   2.439183   1.518026   0.000000
    15  H    5.225600   5.285386   6.532480   6.832486   0.000000
    16  H    6.208567   5.896108   6.972499   7.272850   1.781287
    17  H    5.119313   4.841598   5.829981   5.862688   1.789334
    18  H    4.749260   4.476977   5.695763   6.479967   2.492969
    19  H    4.678958   3.983593   4.910818   5.490407   3.082757
    20  H    3.392940   4.496420   5.770502   6.356546   4.509254
    21  H    3.400349   4.555019   4.913385   5.175129   7.786225
    22  H    2.182449   2.727437   2.591655   2.929059   7.305570
    23  H    3.226132   1.996683   1.098326   2.160131   6.719155
    24  H    2.645793   2.077854   1.103288   2.183725   7.360672
    25  H    3.496307   2.684006   2.158610   1.099131   6.226826
    26  H    4.127418   3.376979   2.157317   1.099825   7.862519
    27  H    2.992153   2.772943   2.182091   1.099514   6.927268
                   16         17         18         19         20
    16  H    0.000000
    17  H    1.783601   0.000000
    18  H    2.520914   3.082745   0.000000
    19  H    2.500953   2.528455   1.789197   0.000000
    20  H    6.112913   5.472937   4.793651   5.751368   0.000000
    21  H    9.145509   7.956259   7.773309   7.996146   4.131458
    22  H    8.279285   7.021476   6.901220   6.648360   4.887703
    23  H    6.889354   5.916022   5.590415   4.619170   6.475888
    24  H    7.907434   6.813109   6.421063   5.821576   5.964443
    25  H    6.519577   5.056368   6.052087   4.880645   6.464094
    26  H    8.188151   6.797714   7.418697   6.317572   7.404068
    27  H    7.602499   6.085608   6.858025   6.056000   5.970848
                   21         22         23         24         25
    21  H    0.000000
    22  H    2.453637   0.000000
    23  H    5.948116   3.634881   0.000000
    24  H    4.485201   2.111018   1.770084   0.000000
    25  H    5.879696   3.810702   2.498939   3.089932   0.000000
    26  H    5.838455   3.515529   2.494149   2.520170   1.784442
    27  H    4.394925   2.405247   3.088280   2.557922   1.780005
                   26         27
    26  H    0.000000
    27  H    1.780699   0.000000
 Stoichiometry    C10H13NO3
 Framework group  C1[X(C10H13NO3)]
 Deg. of freedom    75
 Full point group                 C1      NOp   1
 Largest Abelian subgroup         C1      NOp   1
 Largest concise Abelian subgroup C1      NOp   1
                         Standard orientation:                         
 ---------------------------------------------------------------------
 Center     Atomic      Atomic             Coordinates (Angstroms)
 Number     Number       Type             X           Y           Z
 ---------------------------------------------------------------------
      1          6           0       -3.876711    0.604969    0.974230
      2          6           0       -3.114881    0.852449   -0.313100
      3          8           0       -1.725961    0.554900   -0.170410
      4          6           0       -1.356110   -0.715980   -0.314380
      5          8           0       -2.132150   -1.613750   -0.535590
      6          6           0        0.109420   -0.944019   -0.129540
      7          6           0        0.494361   -2.258989    0.156190
      8          7           0        1.741931   -2.660239    0.371970
      9          6           0        2.685560   -1.725528    0.295290
     10          6           0        2.444170   -0.387558    0.003790
     11          6           0        1.125320    0.034391   -0.226350
     12          8           0        0.788779    1.278861   -0.561610
     13          6           0        1.750359    2.318051   -0.604110
     14          6           0        2.089479    2.849261    0.776910
     15          1           0       -3.868900   -0.463851    1.228440
     16          1           0       -4.923171    0.922929    0.856500
     17          1           0       -3.433611    1.173129    1.805100
     18          1           0       -3.531030    0.252519   -1.135360
     19          1           0       -3.143771    1.913639   -0.595050
     20          1           0       -0.293639   -3.016409    0.210930
     21          1           0        3.715661   -2.054348    0.473420
     22          1           0        3.283490    0.304392   -0.046110
     23          1           0        1.277129    3.103661   -1.208420
     24          1           0        2.650799    1.988842   -1.150070
     25          1           0        1.175938    3.185741    1.287120
     26          1           0        2.776498    3.703922    0.692200
     27          1           0        2.569939    2.085132    1.404760
 ---------------------------------------------------------------------
 Rotational constants (GHZ):           0.8756896           0.5406579           0.3599169
 Standard basis: def2SVP (5D, 7F)
 There are   275 symmetry adapted cartesian basis functions of A   symmetry.
 There are   261 symmetry adapted basis functions of A   symmetry.
   261 basis functions,   441 primitive gaussians,   275 cartesian basis functions
    52 alpha electrons       52 beta electrons
       nuclear repulsion energy       903.9684961310 Hartrees.
 NAtoms=   27 NActive=   27 NUniq=   27 SFac= 1.00D+00 NAtFMM=   60 NAOKFM=F Big=F
 Integral buffers will be    131072 words long.
 Raffenetti 2 integral format.
 Two-electron integral symmetry is turned on.
 Nuclear repulsion after empirical dispersion term =      903.9531274308 Hartrees.
 One-electron integrals computed using PRISM.
   1 Symmetry operations used in ECPInt.
 ECPInt:  NShTT=    7626 NPrTT=   27482 LenC2=    7251 LenP2D=   18859.
 LDataN:  DoStor=T MaxTD1= 4 Len=   56
 NBasis=   261 RedAO= T EigKep=  5.26D-04  NBF=   261
 NBsUse=   261 1.00D-06 EigRej= -1.00D+00 NBFU=   261
 ExpMin= 1.22D-01 ExpMax= 2.27D+03 ExpMxC= 3.41D+02 IAcc=3 IRadAn=         5 AccDes= 0.00D+00
 Harris functional with IExCor= 4639 and IRadAn=       5 diagonalized for initial guess.
 HarFok:  IExCor= 4639 AccDes= 0.00D+00 IRadAn=         5 IDoV= 1 UseB2=F ITyADJ=14
 ICtDFT=  3500011 ScaDFX=  1.000000  1.000000  1.000000  1.000000
 FoFCou: FMM=F IPFlag=           0 FMFlag=      100000 FMFlg1=           0
         NFxFlg=           0 DoJE=T BraDBF=F KetDBF=T FulRan=T
         wScrn=  0.000000 ICntrl=       500 IOpCl=  0 I1Cent=   200000004 NGrid=           0
         NMat0=    1 NMatS0=      1 NMatT0=    0 NMatD0=    1 NMtDS0=    0 NMtDT0=    0
 Petite list used in FoFCou.
 Requested convergence on RMS density matrix=1.00D-08 within 128 cycles.
 Requested convergence on MAX density matrix=1.00D-06.
 Requested convergence on             energy=1.00D-06.
 No special actions if energy rises.
 Integral accuracy reduced to 1.0D-05 until final iterations.
 Initial convergence to 1.0D-05 achieved.  Increase integral accuracy.
 SCF Done:  E(RwB97XD) =  -668.617741169     A.U. after   16 cycles
            NFock= 16  Conv=0.43D-08     -V/T= 2.0098

 **********************************************************************

            Population analysis using the SCF Density.

 **********************************************************************

 Orbital symmetries:
       Occupied  (A) (A) (A) (A) (A) (A) (A) (A) (A) (A) (A) (A)
                 (A) (A) (A) (A) (A) (A) (A) (A) (A) (A) (A) (A)
                 (A) (A) (A) (A) (A) (A) (A) (A) (A) (A) (A) (A)
                 (A) (A) (A) (A) (A) (A) (A) (A) (A) (A) (A) (A)
                 (A) (A) (A) (A)
       Virtual   (A) (A) (A) (A) (A) (A) (A) (A) (A) (A) (A) (A)
                 (A) (A) (A) (A) (A) (A) (A) (A) (A) (A) (A) (A)
                 (A) (A) (A) (A) (A) (A) (A) (A) (A) (A) (A) (A)
                 (A) (A) (A) (A) (A) (A) (A) (A) (A) (A) (A) (A)
                 (A) (A) (A) (A) (A) (A) (A) (A) (A) (A) (A) (A)
                 (A) (A) (A) (A) (A) (A) (A) (A) (A) (A) (A) (A)
                 (A) (A) (A) (A) (A) (A) (A) (A) (A) (A) (A) (A)
                 (A) (A) (A) (A) (A) (A) (A) (A) (A) (A) (A) (A)
                 (A) (A) (A) (A) (A) (A) (A) (A) (A) (A) (A) (A)
                 (A) (A) (A) (A) (A) (A) (A) (A) (A) (A) (A) (A)
                 (A) (A) (A) (A) (A) (A) (A) (A) (A) (A) (A) (A)
                 (A) (A) (A) (A) (A) (A) (A) (A) (A) (A) (A) (A)
                 (A) (A) (A) (A) (A) (A) (A) (A) (A) (A) (A) (A)
                 (A) (A) (A) (A) (A) (A) (A) (A) (A) (A) (A) (A)
                 (A) (A) (A) (A) (A) (A) (A) (A) (A) (A) (A) (A)
                 (A) (A) (A) (A) (A) (A) (A) (A) (A) (A) (A) (A)
                 (A) (A) (A) (A) (A) (A) (A) (A) (A) (A) (A) (A)
                 (A) (A) (A) (A) (A)
 The electronic state is 1-A.
 Alpha  occ. eigenvalues --  -19.30633 -19.29685 -19.23782 -14.43502 -10.42869
 Alpha  occ. eigenvalues --  -10.39493 -10.37230 -10.35378 -10.34464 -10.33978
 Alpha  occ. eigenvalues --  -10.31701 -10.31406 -10.31084 -10.29460  -1.20273
 Alpha  occ. eigenvalues --   -1.18743  -1.10529  -1.04256  -0.91918  -0.87751
 Alpha  occ. eigenvalues --   -0.86707  -0.85499  -0.76984  -0.76712  -0.72784
 Alpha  occ. eigenvalues --   -0.69853  -0.65649  -0.63978  -0.62163  -0.60319
 Alpha  occ. eigenvalues --   -0.56940  -0.56384  -0.55869  -0.55109  -0.54744
 Alpha  occ. eigenvalues --   -0.53531  -0.52367  -0.50602  -0.49116  -0.48648
 Alpha  occ. eigenvalues --   -0.48524  -0.46874  -0.46182  -0.45158  -0.44258
 Alpha  occ. eigenvalues --   -0.42739  -0.40778  -0.38260  -0.36609  -0.34772
 Alpha  occ. eigenvalues --   -0.33835  -0.33208
 Alpha virt. eigenvalues --    0.01936   0.05306   0.12234   0.12918   0.15195
 Alpha virt. eigenvalues --    0.15680   0.17418   0.18096   0.19210   0.19325
 Alpha virt. eigenvalues --    0.19763   0.21124   0.21257   0.22021   0.22437
 Alpha virt. eigenvalues --    0.23514   0.24214   0.24714   0.24941   0.28270
 Alpha virt. eigenvalues --    0.28954   0.29389   0.32153   0.33737   0.36057
 Alpha virt. eigenvalues --    0.37170   0.39002   0.40794   0.42569   0.47245
 Alpha virt. eigenvalues --    0.47662   0.49030   0.49863   0.50340   0.50510
 Alpha virt. eigenvalues --    0.50889   0.51848   0.52496   0.54537   0.55487
 Alpha virt. eigenvalues --    0.56373   0.58035   0.59479   0.60225   0.60987
 Alpha virt. eigenvalues --    0.62965   0.65860   0.67095   0.68123   0.68418
 Alpha virt. eigenvalues --    0.69005   0.69776   0.70424   0.71451   0.71772
 Alpha virt. eigenvalues --    0.72594   0.73127   0.73459   0.73916   0.74972
 Alpha virt. eigenvalues --    0.75237   0.75971   0.76779   0.77508   0.77759
 Alpha virt. eigenvalues --    0.78525   0.78714   0.79325   0.80522   0.82180
 Alpha virt. eigenvalues --    0.82960   0.84715   0.85534   0.86146   0.91767
 Alpha virt. eigenvalues --    0.94441   0.95229   0.98185   0.99082   1.00818
 Alpha virt. eigenvalues --    1.01837   1.04346   1.06893   1.10295   1.11940
 Alpha virt. eigenvalues --    1.13105   1.15795   1.18042   1.19974   1.21045
 Alpha virt. eigenvalues --    1.23496   1.24854   1.29003   1.30638   1.31726
 Alpha virt. eigenvalues --    1.32928   1.34265   1.35667   1.39985   1.40780
 Alpha virt. eigenvalues --    1.42539   1.44353   1.44756   1.47251   1.49882
 Alpha virt. eigenvalues --    1.51161   1.53444   1.57060   1.59342   1.60375
 Alpha virt. eigenvalues --    1.61614   1.62247   1.65606   1.68447   1.72878
 Alpha virt. eigenvalues --    1.74478   1.76035   1.77944   1.79428   1.80550
 Alpha virt. eigenvalues --    1.82196   1.82553   1.83038   1.83842   1.84983
 Alpha virt. eigenvalues --    1.85329   1.86739   1.87106   1.87494   1.88029
 Alpha virt. eigenvalues --    1.89089   1.89978   1.90301   1.91825   1.93899
 Alpha virt. eigenvalues --    1.94207   1.95190   1.96434   1.98198   1.98698
 Alpha virt. eigenvalues --    2.00004   2.00865   2.02167   2.03316   2.06367
 Alpha virt. eigenvalues --    2.09686   2.12050   2.12812   2.15557   2.18137
 Alpha virt. eigenvalues --    2.19191   2.19589   2.23574   2.26909   2.28592
 Alpha virt. eigenvalues --    2.29673   2.31427   2.35673   2.37908   2.41660
 Alpha virt. eigenvalues --    2.42085   2.43586   2.44042   2.45005   2.47925
 Alpha virt. eigenvalues --    2.48219   2.49479   2.56872   2.57279   2.58933
 Alpha virt. eigenvalues --    2.61372   2.62531   2.64098   2.70002   2.71023
 Alpha virt. eigenvalues --    2.73183   2.74090   2.77222   2.78455   2.80649
 Alpha virt. eigenvalues --    2.83368   2.84279   2.85239   2.89883   2.91041
 Alpha virt. eigenvalues --    2.92426   2.97319   2.98609   3.00282   3.01492
 Alpha virt. eigenvalues --    3.03683   3.04404   3.05328   3.07785   3.09759
 Alpha virt. eigenvalues --    3.11575   3.12608   3.15995   3.18600   3.20181
 Alpha virt. eigenvalues --    3.29669   3.31597   3.40347   3.50263   3.55683
 Alpha virt. eigenvalues --    3.60685   3.69785   3.78126   3.82659
          Condensed to atoms (all electrons):
               1          2          3          4          5          6
     1  C    4.607608   0.445228  -0.035959  -0.008467  -0.009408  -0.002181
     2  C    0.445228   4.456806   0.250940  -0.029837   0.004218   0.008174
     3  O   -0.035959   0.250940   7.948781   0.414159  -0.084008  -0.130776
     4  C   -0.008467  -0.029837   0.414159   4.572858   0.722621   0.097862
     5  O   -0.009408   0.004218  -0.084008   0.722621   7.697095  -0.135466
     6  C   -0.002181   0.008174  -0.130776   0.097862  -0.135466   5.870645
     7  C    0.000069  -0.000088   0.001833  -0.023459   0.013956   0.452632
     8  N    0.000000   0.000001  -0.000005   0.008508   0.000374  -0.039285
     9  C   -0.000000   0.000001  -0.000019   0.000725  -0.000009  -0.050015
    10  C   -0.000001   0.000033   0.000037   0.011256  -0.000055  -0.064372
    11  C    0.000051  -0.000074   0.005482  -0.044812   0.001453   0.318960
    12  O   -0.000033   0.000126  -0.008278   0.008075   0.000004  -0.101190
    13  C    0.000000   0.000001   0.000360   0.000020   0.000002   0.006960
    14  C    0.000001  -0.000002  -0.000167  -0.000030  -0.000000  -0.001040
    15  H    0.393513  -0.014595  -0.005722   0.003870   0.009412   0.000022
    16  H    0.382819  -0.016761   0.003587   0.000335  -0.000069   0.000054
    17  H    0.387035  -0.021122   0.001508  -0.000076   0.000218  -0.000076
    18  H   -0.029442   0.390178  -0.027095  -0.007241   0.017037   0.002459
    19  H   -0.026953   0.389300  -0.025137   0.004845   0.000409   0.000245
    20  H    0.000012  -0.000038   0.000550  -0.010312   0.014505  -0.064707
    21  H   -0.000000   0.000000  -0.000000   0.000067   0.000000   0.001138
    22  H    0.000000  -0.000000  -0.000001  -0.000095   0.000001   0.012466
    23  H    0.000001  -0.000001   0.000151  -0.000162  -0.000000   0.000256
    24  H   -0.000000   0.000001  -0.000027   0.000102  -0.000000  -0.000742
    25  H   -0.000004   0.000006   0.000157   0.000087   0.000000  -0.000375
    26  H   -0.000000   0.000000   0.000000  -0.000001  -0.000000   0.000036
    27  H    0.000000  -0.000001   0.000007  -0.000041   0.000000  -0.000122
               7          8          9         10         11         12
     1  C    0.000069   0.000000  -0.000000  -0.000001   0.000051  -0.000033
     2  C   -0.000088   0.000001   0.000001   0.000033  -0.000074   0.000126
     3  O    0.001833  -0.000005  -0.000019   0.000037   0.005482  -0.008278
     4  C   -0.023459   0.008508   0.000725   0.011256  -0.044812   0.008075
     5  O    0.013956   0.000374  -0.000009  -0.000055   0.001453   0.000004
     6  C    0.452632  -0.039285  -0.050015  -0.064372   0.318960  -0.101190
     7  C    4.684128   0.523819  -0.067311  -0.048745  -0.033670   0.001395
     8  N    0.523819   6.293314   0.528246  -0.043525  -0.057231  -0.000069
     9  C   -0.067311   0.528246   4.698708   0.440156  -0.002072   0.003421
    10  C   -0.048745  -0.043525   0.440156   5.158752   0.411328  -0.076537
    11  C   -0.033670  -0.057231  -0.002072   0.411328   4.792542   0.449606
    12  O    0.001395  -0.000069   0.003421  -0.076537   0.449606   7.842942
    13  C   -0.000218   0.000007   0.000220   0.002557  -0.049183   0.279491
    14  C    0.000021  -0.000007   0.000002  -0.005178  -0.007070  -0.045533
    15  H    0.000059  -0.000000   0.000000   0.000001  -0.000062   0.000002
    16  H   -0.000002   0.000000   0.000000  -0.000000  -0.000000   0.000000
    17  H   -0.000021  -0.000000   0.000000  -0.000000   0.000024  -0.000002
    18  H   -0.000128  -0.000000   0.000000   0.000000  -0.000041  -0.000036
    19  H    0.000006  -0.000000  -0.000000   0.000000  -0.000181   0.000323
    20  H    0.428319  -0.033255   0.004340   0.000836   0.006972  -0.000046
    21  H    0.004583  -0.038201   0.421315  -0.065123   0.005942  -0.000079
    22  H    0.000166   0.005844  -0.033479   0.418519  -0.064933  -0.006548
    23  H    0.000019   0.000000   0.000006  -0.000090   0.004511  -0.024400
    24  H   -0.000050  -0.000017   0.000540   0.010126  -0.013648  -0.025209
    25  H   -0.000010   0.000000  -0.000003   0.000376   0.000160   0.001442
    26  H   -0.000000   0.000000   0.000005  -0.000385   0.000302   0.003730
    27  H    0.000009  -0.000001  -0.000176   0.003474   0.002927  -0.002822
              13         14         15         16         17         18
     1  C    0.000000   0.000001   0.393513   0.382819   0.387035  -0.029442
     2  C    0.000001  -0.000002  -0.014595  -0.016761  -0.021122   0.390178
     3  O    0.000360  -0.000167  -0.005722   0.003587   0.001508  -0.027095
     4  C    0.000020  -0.000030   0.003870   0.000335  -0.000076  -0.007241
     5  O    0.000002  -0.000000   0.009412  -0.000069   0.000218   0.017037
     6  C    0.006960  -0.001040   0.000022   0.000054  -0.000076   0.002459
     7  C   -0.000218   0.000021   0.000059  -0.000002  -0.000021  -0.000128
     8  N    0.000007  -0.000007  -0.000000   0.000000  -0.000000  -0.000000
     9  C    0.000220   0.000002   0.000000   0.000000   0.000000   0.000000
    10  C    0.002557  -0.005178   0.000001  -0.000000  -0.000000   0.000000
    11  C   -0.049183  -0.007070  -0.000062  -0.000000   0.000024  -0.000041
    12  O    0.279491  -0.045533   0.000002   0.000000  -0.000002  -0.000036
    13  C    4.463896   0.436937  -0.000000  -0.000000   0.000001   0.000003
    14  C    0.436937   4.622520  -0.000000   0.000000  -0.000002  -0.000000
    15  H   -0.000000  -0.000000   0.595337  -0.017436  -0.023894  -0.010279
    16  H   -0.000000   0.000000  -0.017436   0.623916  -0.017644  -0.001295
    17  H    0.000001  -0.000002  -0.023894  -0.017644   0.627850   0.007675
    18  H    0.000003  -0.000000  -0.010279  -0.001295   0.007675   0.636666
    19  H   -0.000018   0.000002   0.006559  -0.003100  -0.009462  -0.028935
    20  H    0.000005   0.000000  -0.000012  -0.000000  -0.000002  -0.000023
    21  H   -0.000043   0.000003   0.000000   0.000000  -0.000000   0.000000
    22  H    0.005304  -0.004335  -0.000000   0.000000  -0.000000  -0.000000
    23  H    0.388261  -0.020728   0.000000  -0.000000   0.000000   0.000001
    24  H    0.395132  -0.040790   0.000000   0.000000  -0.000000  -0.000000
    25  H   -0.015366   0.385197   0.000000   0.000000   0.000010   0.000001
    26  H   -0.015022   0.379324   0.000000   0.000000   0.000000  -0.000000
    27  H   -0.021804   0.400197  -0.000000  -0.000000   0.000000   0.000000
              19         20         21         22         23         24
     1  C   -0.026953   0.000012  -0.000000   0.000000   0.000001  -0.000000
     2  C    0.389300  -0.000038   0.000000  -0.000000  -0.000001   0.000001
     3  O   -0.025137   0.000550  -0.000000  -0.000001   0.000151  -0.000027
     4  C    0.004845  -0.010312   0.000067  -0.000095  -0.000162   0.000102
     5  O    0.000409   0.014505   0.000000   0.000001  -0.000000  -0.000000
     6  C    0.000245  -0.064707   0.001138   0.012466   0.000256  -0.000742
     7  C    0.000006   0.428319   0.004583   0.000166   0.000019  -0.000050
     8  N   -0.000000  -0.033255  -0.038201   0.005844   0.000000  -0.000017
     9  C   -0.000000   0.004340   0.421315  -0.033479   0.000006   0.000540
    10  C    0.000000   0.000836  -0.065123   0.418519  -0.000090   0.010126
    11  C   -0.000181   0.006972   0.005942  -0.064933   0.004511  -0.013648
    12  O    0.000323  -0.000046  -0.000079  -0.006548  -0.024400  -0.025209
    13  C   -0.000018   0.000005  -0.000043   0.005304   0.388261   0.395132
    14  C    0.000002   0.000000   0.000003  -0.004335  -0.020728  -0.040790
    15  H    0.006559  -0.000012   0.000000  -0.000000   0.000000   0.000000
    16  H   -0.003100  -0.000000   0.000000   0.000000  -0.000000   0.000000
    17  H   -0.009462  -0.000002  -0.000000  -0.000000   0.000000  -0.000000
    18  H   -0.028935  -0.000023   0.000000  -0.000000   0.000001  -0.000000
    19  H    0.650099  -0.000001   0.000000   0.000000  -0.000018   0.000003
    20  H   -0.000001   0.601505  -0.000296   0.000048  -0.000000  -0.000000
    21  H    0.000000  -0.000296   0.639429  -0.007218  -0.000001   0.000052
    22  H    0.000000   0.000048  -0.007218   0.651710  -0.000086  -0.000049
    23  H   -0.000018  -0.000000  -0.000001  -0.000086   0.634578  -0.029767
    24  H    0.000003  -0.000000   0.000052  -0.000049  -0.029767   0.667440
    25  H    0.000006  -0.000000   0.000001  -0.000043  -0.010076   0.007893
    26  H   -0.000000   0.000000  -0.000000   0.000302  -0.003157  -0.001231
    27  H   -0.000000  -0.000000  -0.000014   0.002004   0.006712  -0.010528
              25         26         27
     1  C   -0.000004  -0.000000   0.000000
     2  C    0.000006   0.000000  -0.000001
     3  O    0.000157   0.000000   0.000007
     4  C    0.000087  -0.000001  -0.000041
     5  O    0.000000  -0.000000   0.000000
     6  C   -0.000375   0.000036  -0.000122
     7  C   -0.000010  -0.000000   0.000009
     8  N    0.000000   0.000000  -0.000001
     9  C   -0.000003   0.000005  -0.000176
    10  C    0.000376  -0.000385   0.003474
    11  C    0.000160   0.000302   0.002927
    12  O    0.001442   0.003730  -0.002822
    13  C   -0.015366  -0.015022  -0.021804
    14  C    0.385197   0.379324   0.400197
    15  H    0.000000   0.000000  -0.000000
    16  H    0.000000   0.000000  -0.000000
    17  H    0.000010   0.000000   0.000000
    18  H    0.000001  -0.000000   0.000000
    19  H    0.000006  -0.000000  -0.000000
    20  H   -0.000000   0.000000  -0.000000
    21  H    0.000001  -0.000000  -0.000014
    22  H   -0.000043   0.000302   0.002004
    23  H   -0.010076  -0.003157   0.006712
    24  H    0.007893  -0.001231  -0.010528
    25  H    0.606797  -0.015640  -0.022804
    26  H   -0.015640   0.618329  -0.018548
    27  H   -0.022804  -0.018548   0.610996
 Mulliken charges:
               1
     1  C   -0.103891
     2  C    0.137505
     3  O   -0.310357
     4  C    0.279143
     5  O   -0.252288
     6  C   -0.181562
     7  C    0.062688
     8  N   -0.148518
     9  C    0.055397
    10  C   -0.153444
    11  C    0.272717
    12  O   -0.299774
    13  C    0.122496
    14  C   -0.099323
    15  H    0.063225
    16  H    0.045595
    17  H    0.047981
    18  H    0.050496
    19  H    0.042005
    20  H    0.051600
    21  H    0.038446
    22  H    0.020424
    23  H    0.053989
    24  H    0.040769
    25  H    0.062188
    26  H    0.051955
    27  H    0.050537
 Sum of Mulliken charges =  -0.00000
 Mulliken charges with hydrogens summed into heavy atoms:
               1
     1  C    0.052910
     2  C    0.230005
     3  O   -0.310357
     4  C    0.279143
     5  O   -0.252288
     6  C   -0.181562
     7  C    0.114288
     8  N   -0.148518
     9  C    0.093843
    10  C   -0.133020
    11  C    0.272717
    12  O   -0.299774
    13  C    0.217253
    14  C    0.065357
 Electronic spatial extent (au):  <R**2>=           3134.8116
 Charge=             -0.0000 electrons
 Dipole moment (field-independent basis, Debye):
    X=              1.4553    Y=              5.1165    Z=              0.1487  Tot=              5.3215
 Quadrupole moment (field-independent basis, Debye-Ang):
   XX=            -71.4719   YY=            -86.1570   ZZ=            -82.8961
   XY=              1.9892   XZ=             -1.9997   YZ=             -1.2012
 Traceless Quadrupole moment (field-independent basis, Debye-Ang):
   XX=              8.7031   YY=             -5.9820   ZZ=             -2.7211
   XY=              1.9892   XZ=             -1.9997   YZ=             -1.2012
 Octapole moment (field-independent basis, Debye-Ang**2):
  XXX=             -6.3006  YYY=             57.4610  ZZZ=             -5.9692  XYY=             -3.7966
  XXY=             33.4728  XXZ=             -0.0581  XZZ=             -7.5070  YZZ=              6.2442
  YYZ=             -4.9978  XYZ=              4.0442
 Hexadecapole moment (field-independent basis, Debye-Ang**3):
 XXXX=          -2248.5435 YYYY=          -1505.7247 ZZZZ=           -239.8839 XXXY=            -41.0967
 XXXZ=              8.2496 YYYX=             94.8199 YYYZ=             -1.6528 ZZZX=              4.1226
 ZZZY=             -1.8067 XXYY=           -660.8438 XXZZ=           -454.1929 YYZZ=           -286.0124
 XXYZ=            -16.3885 YYXZ=            -18.1834 ZZXY=              7.9552
 N-N= 9.039531274308D+02 E-N=-3.365267074578D+03  KE= 6.621327315375D+02
   1 Symmetry operations used in ECPInt.
 ECPInt:  NShTT=    7626 NPrTT=   27482 LenC2=    7251 LenP2D=   18859.
 LDataN:  DoStor=T MaxTD1= 5 Len=  102
 Calling FoFJK, ICntrl=      2127 FMM=F ISym2X=0 I1Cent= 0 IOpClX= 0 NMat=1 NMatS=1 NMatT=0.
 ***** Axes restored to original set *****
 -------------------------------------------------------------------
 Center     Atomic                   Forces (Hartrees/Bohr)
 Number     Number              X              Y              Z
 -------------------------------------------------------------------
      1        6           0.000004800   -0.000007938   -0.000006956
      2        6           0.000002474   -0.000003316    0.000014804
      3        8           0.000000397    0.000001484   -0.000009030
      4        6           0.000001485    0.000010581    0.000002873
      5        8          -0.000007420   -0.000006148   -0.000003196
      6        6           0.000009351   -0.000012835    0.000000847
      7        6          -0.000004877    0.000010851    0.000010573
      8        7           0.000002309    0.000002252   -0.000001490
      9        6           0.000001275   -0.000008415   -0.000005163
     10        6          -0.000004612    0.000006884    0.000001404
     11        6           0.000003864    0.000001014   -0.000007828
     12        8           0.000002637    0.000000134    0.000011022
     13        6          -0.000008878   -0.000002968    0.000006015
     14        6           0.000001470    0.000001810   -0.000011705
     15        1          -0.000001753    0.000005007    0.000000819
     16        1          -0.000002878    0.000000997    0.000001237
     17        1          -0.000001477    0.000000573    0.000000167
     18        1           0.000000036   -0.000001346   -0.000003660
     19        1           0.000000360   -0.000002844    0.000000999
     20        1           0.000000983   -0.000001091   -0.000003756
     21        1          -0.000002379    0.000003051    0.000001972
     22        1          -0.000000013   -0.000000972    0.000000301
     23        1           0.000004000    0.000002270   -0.000002692
     24        1           0.000001506    0.000001028   -0.000000621
     25        1           0.000001535    0.000000090    0.000000082
     26        1          -0.000003198   -0.000002293    0.000002551
     27        1          -0.000000999    0.000002138    0.000000432
 -------------------------------------------------------------------
 Cartesian Forces:  Max     0.000014804 RMS     0.000004976

 GradGradGradGradGradGradGradGradGradGradGradGradGradGradGradGradGradGrad
 Berny optimization.
 FormGI is forming the generalized inverse of G from B-inverse, IUseBI=4.
 Internal  Forces:  Max     0.000009883 RMS     0.000002646
 Search for a local minimum.
 Step number   1 out of a maximum of  134
 All quantities printed in internal units (Hartrees-Bohrs-Radians)
 Mixed Optimization -- En-DIIS/RFO-DIIS
 Second derivative matrix not updated -- first step.
 ITU=  0
     Eigenvalues ---    0.00527   0.00552   0.00837   0.01327   0.01437
     Eigenvalues ---    0.01474   0.01629   0.01983   0.02105   0.02130
     Eigenvalues ---    0.02183   0.02270   0.02345   0.02512   0.02591
     Eigenvalues ---    0.02599   0.04805   0.05008   0.05590   0.05690
     Eigenvalues ---    0.05707   0.05773   0.05788   0.05816   0.11733
     Eigenvalues ---    0.11840   0.13906   0.14015   0.16000   0.16000
     Eigenvalues ---    0.16000   0.16000   0.16000   0.16000   0.16000
     Eigenvalues ---    0.16000   0.16000   0.21998   0.22058   0.22334
     Eigenvalues ---    0.23244   0.24565   0.24985   0.24992   0.24999
     Eigenvalues ---    0.25000   0.25000   0.25000   0.30557   0.30736
     Eigenvalues ---    0.32946   0.33321   0.33680   0.33701   0.33708
     Eigenvalues ---    0.33722   0.33736   0.33778   0.33830   0.33861
     Eigenvalues ---    0.33868   0.34142   0.34314   0.34938   0.41338
     Eigenvalues ---    0.41551   0.42479   0.42998   0.44935   0.46657
     Eigenvalues ---    0.57259   0.58731   0.59023   0.59174   1.01321
 RFO step:  Lambda= 0.00000000D+00 EMin= 5.27499227D-03
 Linear search not attempted -- first point.
 Iteration  1 RMS(Cart)=  0.00016112 RMS(Int)=  0.00000001
 Iteration  2 RMS(Cart)=  0.00000001 RMS(Int)=  0.00000000
 Variable       Old X    -DE/DX   Delta X   Delta X   Delta X     New X
                                 (Linear)    (Quad)   (Total)
    R1        2.86519  -0.00000   0.00000  -0.00001  -0.00001   2.86518
    R2        2.07617  -0.00001   0.00000  -0.00002  -0.00002   2.07616
    R3        2.07873   0.00000   0.00000   0.00001   0.00001   2.07874
    R4        2.07826   0.00000   0.00000   0.00000   0.00000   2.07826
    R5        2.69774  -0.00000   0.00000  -0.00001  -0.00001   2.69773
    R6        2.07802   0.00000   0.00000   0.00001   0.00001   2.07803
    R7        2.07565  -0.00000   0.00000  -0.00001  -0.00001   2.07564
    R8        2.51600  -0.00000   0.00000  -0.00001  -0.00001   2.51599
    R9        2.28115   0.00001   0.00000   0.00001   0.00001   2.28115
   R10        2.82446   0.00000   0.00000   0.00001   0.00001   2.82447
   R11        2.64492  -0.00001   0.00000  -0.00002  -0.00002   2.64490
   R12        2.67162   0.00000   0.00000   0.00000   0.00000   2.67162
   R13        2.50985  -0.00000   0.00000  -0.00000  -0.00000   2.50985
   R14        2.06804   0.00000   0.00000   0.00000   0.00000   2.06804
   R15        2.51412  -0.00000   0.00000  -0.00001  -0.00001   2.51411
   R16        2.62761   0.00000   0.00000   0.00001   0.00001   2.62761
   R17        2.07092  -0.00000   0.00000  -0.00001  -0.00001   2.07091
   R18        2.65261  -0.00000   0.00000  -0.00001  -0.00001   2.65260
   R19        2.05776  -0.00000   0.00000  -0.00000  -0.00000   2.05775
   R20        2.51721  -0.00000   0.00000  -0.00000  -0.00000   2.51721
   R21        2.67672  -0.00000   0.00000  -0.00000  -0.00000   2.67672
   R22        2.86865  -0.00001   0.00000  -0.00002  -0.00002   2.86863
   R23        2.07554   0.00000   0.00000   0.00000   0.00000   2.07554
   R24        2.08491   0.00000   0.00000   0.00000   0.00000   2.08492
   R25        2.07706  -0.00000   0.00000  -0.00000  -0.00000   2.07705
   R26        2.07837  -0.00000   0.00000  -0.00001  -0.00001   2.07836
   R27        2.07778  -0.00000   0.00000  -0.00000  -0.00000   2.07778
    A1        1.93015   0.00000   0.00000   0.00003   0.00003   1.93018
    A2        1.91766   0.00000   0.00000   0.00000   0.00000   1.91766
    A3        1.93338   0.00000   0.00000  -0.00000  -0.00000   1.93337
    A4        1.88886  -0.00000   0.00000  -0.00001  -0.00001   1.88885
    A5        1.90172  -0.00000   0.00000  -0.00000  -0.00000   1.90172
    A6        1.89106  -0.00000   0.00000  -0.00002  -0.00002   1.89104
    A7        1.94977   0.00001   0.00000   0.00004   0.00004   1.94982
    A8        1.93444  -0.00000   0.00000   0.00001   0.00001   1.93444
    A9        1.94167  -0.00000   0.00000  -0.00001  -0.00001   1.94166
   A10        1.90627  -0.00000   0.00000  -0.00001  -0.00001   1.90626
   A11        1.82618  -0.00000   0.00000  -0.00002  -0.00002   1.82616
   A12        1.90201   0.00000   0.00000  -0.00001  -0.00001   1.90200
   A13        2.04700  -0.00001   0.00000  -0.00003  -0.00003   2.04697
   A14        2.15453  -0.00000   0.00000  -0.00001  -0.00001   2.15451
   A15        1.98738   0.00000   0.00000   0.00001   0.00001   1.98739
   A16        2.14070   0.00000   0.00000   0.00000   0.00000   2.14070
   A17        2.02446  -0.00000   0.00000  -0.00001  -0.00001   2.02446
   A18        2.20251  -0.00000   0.00000  -0.00001  -0.00001   2.20250
   A19        2.05618   0.00000   0.00000   0.00001   0.00001   2.05619
   A20        2.18382  -0.00000   0.00000  -0.00000  -0.00000   2.18382
   A21        2.05152   0.00000   0.00000   0.00000   0.00000   2.05152
   A22        2.04783  -0.00000   0.00000  -0.00000  -0.00000   2.04783
   A23        2.03155  -0.00000   0.00000  -0.00000  -0.00000   2.03155
   A24        2.17122   0.00000   0.00000   0.00000   0.00000   2.17123
   A25        2.03367   0.00000   0.00000   0.00001   0.00001   2.03368
   A26        2.07828  -0.00000   0.00000  -0.00001  -0.00001   2.07827
   A27        2.07914  -0.00000   0.00000  -0.00000  -0.00000   2.07914
   A28        2.07974  -0.00000   0.00000  -0.00001  -0.00001   2.07973
   A29        2.12429   0.00000   0.00000   0.00001   0.00001   2.12430
   A30        2.04416  -0.00000   0.00000  -0.00001  -0.00001   2.04416
   A31        2.07401   0.00000   0.00000   0.00000   0.00000   2.07402
   A32        2.16455   0.00000   0.00000   0.00000   0.00000   2.16455
   A33        2.11935   0.00000   0.00000   0.00001   0.00001   2.11936
   A34        1.96177   0.00000   0.00000   0.00002   0.00002   1.96179
   A35        1.82221   0.00000   0.00000   0.00004   0.00004   1.82225
   A36        1.92835  -0.00000   0.00000  -0.00000  -0.00000   1.92834
   A37        1.92464  -0.00000   0.00000  -0.00001  -0.00001   1.92463
   A38        1.95226  -0.00000   0.00000  -0.00001  -0.00001   1.95225
   A39        1.86796  -0.00000   0.00000  -0.00003  -0.00003   1.86793
   A40        1.92171   0.00000   0.00000   0.00000   0.00000   1.92171
   A41        1.91921   0.00000   0.00000   0.00002   0.00002   1.91923
   A42        1.95402   0.00000   0.00000   0.00001   0.00001   1.95403
   A43        1.89341  -0.00000   0.00000  -0.00001  -0.00001   1.89340
   A44        1.88691  -0.00000   0.00000  -0.00001  -0.00001   1.88690
   A45        1.88712  -0.00000   0.00000  -0.00001  -0.00001   1.88711
    D1       -1.14033  -0.00000   0.00000  -0.00002  -0.00002  -1.14035
    D2        0.98990   0.00000   0.00000   0.00000   0.00000   0.98990
    D3        3.10909  -0.00000   0.00000  -0.00002  -0.00002   3.10908
    D4        3.05880  -0.00000   0.00000  -0.00003  -0.00003   3.05878
    D5       -1.09415  -0.00000   0.00000  -0.00001  -0.00001  -1.09416
    D6        1.02504  -0.00000   0.00000  -0.00003  -0.00003   1.02502
    D7        0.96999   0.00000   0.00000   0.00000   0.00000   0.96999
    D8        3.10022   0.00000   0.00000   0.00002   0.00002   3.10024
    D9       -1.06377   0.00000   0.00000   0.00000   0.00000  -1.06377
   D10        1.45669  -0.00000   0.00000  -0.00008  -0.00008   1.45661
   D11       -0.68965  -0.00000   0.00000  -0.00011  -0.00011  -0.68976
   D12       -2.72382   0.00000   0.00000  -0.00008  -0.00008  -2.72390
   D13       -0.02042   0.00000   0.00000   0.00006   0.00006  -0.02036
   D14       -3.12642   0.00000   0.00000   0.00010   0.00010  -3.12632
   D15        2.79748  -0.00000   0.00000  -0.00013  -0.00013   2.79735
   D16       -0.35284  -0.00000   0.00000  -0.00012  -0.00012  -0.35296
   D17       -0.30884  -0.00000   0.00000  -0.00009  -0.00009  -0.30893
   D18        2.82403  -0.00000   0.00000  -0.00009  -0.00009   2.82394
   D19       -3.12422  -0.00000   0.00000  -0.00011  -0.00011  -3.12433
   D20        0.01228   0.00000   0.00000   0.00010   0.00010   0.01238
   D21        0.02533  -0.00000   0.00000  -0.00011  -0.00011   0.02522
   D22       -3.12136   0.00000   0.00000   0.00010   0.00010  -3.12126
   D23        3.12525   0.00000   0.00000   0.00005   0.00005   3.12530
   D24       -0.04761   0.00000   0.00000   0.00006   0.00006  -0.04755
   D25       -0.02520   0.00000   0.00000   0.00005   0.00005  -0.02515
   D26        3.08512   0.00000   0.00000   0.00006   0.00006   3.08518
   D27       -0.00991   0.00000   0.00000   0.00007   0.00007  -0.00984
   D28        3.13676  -0.00000   0.00000  -0.00014  -0.00014   3.13663
   D29       -0.00474   0.00000   0.00000   0.00002   0.00002  -0.00472
   D30        3.14115  -0.00000   0.00000  -0.00009  -0.00009   3.14106
   D31        0.00290  -0.00000   0.00000  -0.00007  -0.00007   0.00283
   D32       -3.13216  -0.00000   0.00000  -0.00005  -0.00005  -3.13221
   D33        3.14009   0.00000   0.00000   0.00004   0.00004   3.14013
   D34        0.00504   0.00000   0.00000   0.00006   0.00006   0.00510
   D35        0.01260   0.00000   0.00000   0.00003   0.00003   0.01263
   D36       -3.09594   0.00000   0.00000   0.00002   0.00002  -3.09592
   D37       -3.13570   0.00000   0.00000   0.00001   0.00001  -3.13569
   D38        0.03894   0.00000   0.00000   0.00000   0.00000   0.03895
   D39        3.08112   0.00000   0.00000   0.00012   0.00012   3.08124
   D40       -0.09405   0.00000   0.00000   0.00013   0.00013  -0.09392
   D41       -1.37018  -0.00000   0.00000  -0.00018  -0.00018  -1.37036
   D42        2.82688  -0.00000   0.00000  -0.00020  -0.00020   2.82667
   D43        0.82408  -0.00000   0.00000  -0.00019  -0.00019   0.82389
   D44       -0.97867  -0.00000   0.00000  -0.00001  -0.00001  -0.97868
   D45       -3.06404  -0.00000   0.00000  -0.00001  -0.00001  -3.06406
   D46        1.12096  -0.00000   0.00000  -0.00002  -0.00002   1.12093
   D47        1.04674   0.00000   0.00000   0.00004   0.00004   1.04678
   D48       -1.03863   0.00000   0.00000   0.00004   0.00004  -1.03860
   D49       -3.13682   0.00000   0.00000   0.00003   0.00003  -3.13679
   D50        3.12332  -0.00000   0.00000  -0.00002  -0.00002   3.12330
   D51        1.03794  -0.00000   0.00000  -0.00002  -0.00002   1.03792
   D52       -1.06025  -0.00000   0.00000  -0.00003  -0.00003  -1.06027
         Item               Value     Threshold  Converged?
 Maximum Force            0.000010     0.000450     YES
 RMS     Force            0.000003     0.000300     YES
 Maximum Displacement     0.000578     0.001800     YES
 RMS     Displacement     0.000161     0.001200     YES
 Predicted change in Energy=-4.356932D-09
 Optimization completed.
    -- Stationary point found.
                           ----------------------------
                           !   Optimized Parameters   !
                           ! (Angstroms and Degrees)  !
 --------------------------                            --------------------------
 ! Name  Definition              Value          Derivative Info.                !
 --------------------------------------------------------------------------------
 ! R1    R(1,2)                  1.5162         -DE/DX =    0.0                 !
 ! R2    R(1,15)                 1.0987         -DE/DX =    0.0                 !
 ! R3    R(1,16)                 1.1            -DE/DX =    0.0                 !
 ! R4    R(1,17)                 1.0998         -DE/DX =    0.0                 !
 ! R5    R(2,3)                  1.4276         -DE/DX =    0.0                 !
 ! R6    R(2,18)                 1.0996         -DE/DX =    0.0                 !
 ! R7    R(2,19)                 1.0984         -DE/DX =    0.0                 !
 ! R8    R(3,4)                  1.3314         -DE/DX =    0.0                 !
 ! R9    R(4,5)                  1.2071         -DE/DX =    0.0                 !
 ! R10   R(4,6)                  1.4946         -DE/DX =    0.0                 !
 ! R11   R(6,7)                  1.3996         -DE/DX =    0.0                 !
 ! R12   R(6,11)                 1.4138         -DE/DX =    0.0                 !
 ! R13   R(7,8)                  1.3282         -DE/DX =    0.0                 !
 ! R14   R(7,20)                 1.0944         -DE/DX =    0.0                 !
 ! R15   R(8,9)                  1.3304         -DE/DX =    0.0                 !
 ! R16   R(9,10)                 1.3905         -DE/DX =    0.0                 !
 ! R17   R(9,21)                 1.0959         -DE/DX =    0.0                 !
 ! R18   R(10,11)                1.4037         -DE/DX =    0.0                 !
 ! R19   R(10,22)                1.0889         -DE/DX =    0.0                 !
 ! R20   R(11,12)                1.3321         -DE/DX =    0.0                 !
 ! R21   R(12,13)                1.4165         -DE/DX =    0.0                 !
 ! R22   R(13,14)                1.518          -DE/DX =    0.0                 !
 ! R23   R(13,23)                1.0983         -DE/DX =    0.0                 !
 ! R24   R(13,24)                1.1033         -DE/DX =    0.0                 !
 ! R25   R(14,25)                1.0991         -DE/DX =    0.0                 !
 ! R26   R(14,26)                1.0998         -DE/DX =    0.0                 !
 ! R27   R(14,27)                1.0995         -DE/DX =    0.0                 !
 ! A1    A(2,1,15)             110.5897         -DE/DX =    0.0                 !
 ! A2    A(2,1,16)             109.8737         -DE/DX =    0.0                 !
 ! A3    A(2,1,17)             110.7743         -DE/DX =    0.0                 !
 ! A4    A(15,1,16)            108.2235         -DE/DX =    0.0                 !
 ! A5    A(15,1,17)            108.9604         -DE/DX =    0.0                 !
 ! A6    A(16,1,17)            108.3497         -DE/DX =    0.0                 !
 ! A7    A(1,2,3)              111.7136         -DE/DX =    0.0                 !
 ! A8    A(1,2,18)             110.8351         -DE/DX =    0.0                 !
 ! A9    A(1,2,19)             111.2494         -DE/DX =    0.0                 !
 ! A10   A(3,2,18)             109.2214         -DE/DX =    0.0                 !
 ! A11   A(3,2,19)             104.6325         -DE/DX =    0.0                 !
 ! A12   A(18,2,19)            108.9774         -DE/DX =    0.0                 !
 ! A13   A(2,3,4)              117.2846         -DE/DX =    0.0                 !
 ! A14   A(3,4,5)              123.4454         -DE/DX =    0.0                 !
 ! A15   A(3,4,6)              113.8686         -DE/DX =    0.0                 !
 ! A16   A(5,4,6)              122.6531         -DE/DX =    0.0                 !
 ! A17   A(4,6,7)              115.9931         -DE/DX =    0.0                 !
 ! A18   A(4,6,11)             126.1945         -DE/DX =    0.0                 !
 ! A19   A(7,6,11)             117.8106         -DE/DX =    0.0                 !
 ! A20   A(6,7,8)              125.1239         -DE/DX =    0.0                 !
 ! A21   A(6,7,20)             117.5435         -DE/DX =    0.0                 !
 ! A22   A(8,7,20)             117.332          -DE/DX =    0.0                 !
 ! A23   A(7,8,9)              116.3992         -DE/DX =    0.0                 !
 ! A24   A(8,9,10)             124.4019         -DE/DX =    0.0                 !
 ! A25   A(8,9,21)             116.5209         -DE/DX =    0.0                 !
 ! A26   A(10,9,21)            119.0767         -DE/DX =    0.0                 !
 ! A27   A(9,10,11)            119.1259         -DE/DX =    0.0                 !
 ! A28   A(9,10,22)            119.1601         -DE/DX =    0.0                 !
 ! A29   A(11,10,22)           121.713          -DE/DX =    0.0                 !
 ! A30   A(6,11,10)            117.1219         -DE/DX =    0.0                 !
 ! A31   A(6,11,12)            118.8323         -DE/DX =    0.0                 !
 ! A32   A(10,11,12)           124.0195         -DE/DX =    0.0                 !
 ! A33   A(11,12,13)           121.4298         -DE/DX =    0.0                 !
 ! A34   A(12,13,14)           112.4011         -DE/DX =    0.0                 !
 ! A35   A(12,13,23)           104.4052         -DE/DX =    0.0                 !
 ! A36   A(12,13,24)           110.4861         -DE/DX =    0.0                 !
 ! A37   A(14,13,23)           110.2736         -DE/DX =    0.0                 !
 ! A38   A(14,13,24)           111.8564         -DE/DX =    0.0                 !
 ! A39   A(23,13,24)           107.0262         -DE/DX =    0.0                 !
 ! A40   A(13,14,25)           110.1056         -DE/DX =    0.0                 !
 ! A41   A(13,14,26)           109.9626         -DE/DX =    0.0                 !
 ! A42   A(13,14,27)           111.9571         -DE/DX =    0.0                 !
 ! A43   A(25,14,26)           108.4845         -DE/DX =    0.0                 !
 ! A44   A(25,14,27)           108.1121         -DE/DX =    0.0                 !
 ! A45   A(26,14,27)           108.1238         -DE/DX =    0.0                 !
 ! D1    D(15,1,2,3)           -65.3363         -DE/DX =    0.0                 !
 ! D2    D(15,1,2,18)           56.717          -DE/DX =    0.0                 !
 ! D3    D(15,1,2,19)          178.1378         -DE/DX =    0.0                 !
 ! D4    D(16,1,2,3)           175.2564         -DE/DX =    0.0                 !
 ! D5    D(16,1,2,18)          -62.6903         -DE/DX =    0.0                 !
 ! D6    D(16,1,2,19)           58.7305         -DE/DX =    0.0                 !
 ! D7    D(17,1,2,3)            55.5764         -DE/DX =    0.0                 !
 ! D8    D(17,1,2,18)          177.6297         -DE/DX =    0.0                 !
 ! D9    D(17,1,2,19)          -60.9495         -DE/DX =    0.0                 !
 ! D10   D(1,2,3,4)             83.4621         -DE/DX =    0.0                 !
 ! D11   D(18,2,3,4)           -39.514          -DE/DX =    0.0                 !
 ! D12   D(19,2,3,4)          -156.0633         -DE/DX =    0.0                 !
 ! D13   D(2,3,4,5)             -1.1702         -DE/DX =    0.0                 !
 ! D14   D(2,3,4,6)           -179.1309         -DE/DX =    0.0                 !
 ! D15   D(3,4,6,7)            160.2836         -DE/DX =    0.0                 !
 ! D16   D(3,4,6,11)           -20.216          -DE/DX =    0.0                 !
 ! D17   D(5,4,6,7)            -17.6954         -DE/DX =    0.0                 !
 ! D18   D(5,4,6,11)           161.805          -DE/DX =    0.0                 !
 ! D19   D(4,6,7,8)           -179.0048         -DE/DX =    0.0                 !
 ! D20   D(4,6,7,20)             0.7035         -DE/DX =    0.0                 !
 ! D21   D(11,6,7,8)             1.4511         -DE/DX =    0.0                 !
 ! D22   D(11,6,7,20)         -178.8406         -DE/DX =    0.0                 !
 ! D23   D(4,6,11,10)          179.0637         -DE/DX =    0.0                 !
 ! D24   D(4,6,11,12)           -2.7281         -DE/DX =    0.0                 !
 ! D25   D(7,6,11,10)           -1.4441         -DE/DX =    0.0                 !
 ! D26   D(7,6,11,12)          176.7642         -DE/DX =    0.0                 !
 ! D27   D(6,7,8,9)             -0.5679         -DE/DX =    0.0                 !
 ! D28   D(20,7,8,9)           179.7232         -DE/DX =    0.0                 !
 ! D29   D(7,8,9,10)            -0.2716         -DE/DX =    0.0                 !
 ! D30   D(7,8,9,21)           179.9746         -DE/DX =    0.0                 !
 ! D31   D(8,9,10,11)            0.166          -DE/DX =    0.0                 !
 ! D32   D(8,9,10,22)         -179.4593         -DE/DX =    0.0                 !
 ! D33   D(21,9,10,11)         179.9139         -DE/DX =    0.0                 !
 ! D34   D(21,9,10,22)           0.2886         -DE/DX =    0.0                 !
 ! D35   D(9,10,11,6)            0.7222         -DE/DX =    0.0                 !
 ! D36   D(9,10,11,12)        -177.384          -DE/DX =    0.0                 !
 ! D37   D(22,10,11,6)        -179.6625         -DE/DX =    0.0                 !
 ! D38   D(22,10,11,12)          2.2313         -DE/DX =    0.0                 !
 ! D39   D(6,11,12,13)         176.5353         -DE/DX =    0.0                 !
 ! D40   D(10,11,12,13)         -5.3887         -DE/DX =    0.0                 !
 ! D41   D(11,12,13,14)        -78.5055         -DE/DX =    0.0                 !
 ! D42   D(11,12,13,23)        161.9681         -DE/DX =    0.0                 !
 ! D43   D(11,12,13,24)         47.2164         -DE/DX =    0.0                 !
 ! D44   D(12,13,14,25)        -56.0735         -DE/DX =    0.0                 !
 ! D45   D(12,13,14,26)       -175.5567         -DE/DX =    0.0                 !
 ! D46   D(12,13,14,27)         64.2261         -DE/DX =    0.0                 !
 ! D47   D(23,13,14,25)         59.9739         -DE/DX =    0.0                 !
 ! D48   D(23,13,14,26)        -59.5093         -DE/DX =    0.0                 !
 ! D49   D(23,13,14,27)       -179.7265         -DE/DX =    0.0                 !
 ! D50   D(24,13,14,25)        178.9528         -DE/DX =    0.0                 !
 ! D51   D(24,13,14,26)         59.4696         -DE/DX =    0.0                 !
 ! D52   D(24,13,14,27)        -60.7476         -DE/DX =    0.0                 !
 --------------------------------------------------------------------------------
 GradGradGradGradGradGradGradGradGradGradGradGradGradGradGradGradGradGrad

                          Input orientation:                          
 ---------------------------------------------------------------------
 Center     Atomic      Atomic             Coordinates (Angstroms)
 Number     Number       Type             X           Y           Z
 ---------------------------------------------------------------------
      1          6           0       -3.876710    0.604970    0.974230
      2          6           0       -3.114880    0.852450   -0.313100
      3          8           0       -1.725960    0.554900   -0.170410
      4          6           0       -1.356110   -0.715980   -0.314380
      5          8           0       -2.132150   -1.613750   -0.535590
      6          6           0        0.109420   -0.944020   -0.129540
      7          6           0        0.494360   -2.258990    0.156190
      8          7           0        1.741930   -2.660240    0.371970
      9          6           0        2.685560   -1.725530    0.295290
     10          6           0        2.444170   -0.387560    0.003790
     11          6           0        1.125320    0.034390   -0.226350
     12          8           0        0.788780    1.278860   -0.561610
     13          6           0        1.750360    2.318050   -0.604110
     14          6           0        2.089480    2.849260    0.776910
     15          1           0       -3.868900   -0.463850    1.228440
     16          1           0       -4.923170    0.922930    0.856500
     17          1           0       -3.433610    1.173130    1.805100
     18          1           0       -3.531030    0.252520   -1.135360
     19          1           0       -3.143770    1.913640   -0.595050
     20          1           0       -0.293640   -3.016410    0.210930
     21          1           0        3.715660   -2.054350    0.473420
     22          1           0        3.283490    0.304390   -0.046110
     23          1           0        1.277130    3.103660   -1.208420
     24          1           0        2.650800    1.988840   -1.150070
     25          1           0        1.175940    3.185740    1.287120
     26          1           0        2.776500    3.703920    0.692200
     27          1           0        2.569940    2.085130    1.404760
 ---------------------------------------------------------------------
                    Distance matrix (angstroms):
                    1          2          3          4          5
     1  C    0.000000
     2  C    1.516196   0.000000
     3  O    2.436890   1.427584   0.000000
     4  C    3.123916   2.356533   1.331410   0.000000
     5  O    3.200901   2.664095   2.236379   1.207130   0.000000
     6  C    4.416663   3.695553   2.370032   1.494639   2.374458
     7  C    5.289396   4.788309   3.599231   2.454904   2.791675
     8  N    6.526364   6.032986   4.759996   3.721435   4.114280
     9  C    6.996826   6.376615   4.987860   4.210224   4.890111
    10  C    6.471506   5.704479   4.278850   3.827691   4.768352
    11  C    5.175641   4.319264   2.898941   2.593897   3.663756
    12  O    4.957795   3.934736   2.645954   2.939568   4.110925
    13  C    6.090133   5.089522   3.921938   4.351946   5.526086
    14  C    6.377397   5.679853   4.551822   5.076804   6.281980
    15  H    1.098663   2.162762   2.754419   2.959388   2.729537
    16  H    1.100017   2.154726   3.378186   4.096450   4.020255
    17  H    1.099767   2.165917   2.683452   3.518087   3.865143
    18  H    2.166584   1.099640   2.069019   2.518388   2.408226
    19  H    2.170820   1.098387   2.009149   3.192085   3.670067
    20  H    5.151253   4.816854   3.866680   2.587812   2.429993
    21  H    8.060203   7.464876   6.069096   5.304217   5.950556
    22  H    7.238778   6.427347   5.017250   4.758047   5.766109
    23  H    6.129395   5.015904   4.073351   4.724713   5.859168
    24  H    7.002580   5.935905   4.708710   4.906094   6.019373
    25  H    5.682213   5.139658   4.179322   4.919299   6.107441
    26  H    7.344946   6.621923   5.561706   6.134100   7.340295
    27  H    6.628388   6.065288   4.824678   5.120110   6.289382
                    6          7          8          9         10
     6  C    0.000000
     7  C    1.399631   0.000000
     8  N    2.421159   1.328154   0.000000
     9  C    2.725387   2.259488   1.330414   0.000000
    10  C    2.403847   2.706887   2.407026   1.390469   0.000000
    11  C    1.413758   2.409157   2.828290   2.409103   1.403699
    12  O    2.364193   3.621920   4.158915   3.654916   2.415978
    13  C    3.682255   4.806754   5.073083   4.246653   2.858538
    14  C    4.373930   5.387385   5.535283   4.638531   3.346718
    15  H    4.231040   4.838418   6.085974   6.739700   6.431208
    16  H    5.457540   6.321762   7.582706   8.076018   7.531414
    17  H    4.558313   5.470585   6.598091   6.937290   6.342615
    18  H    3.961850   4.917270   6.209696   6.678730   6.116403
    19  H    4.355016   5.586698   6.762069   6.929455   6.072825
    20  H    2.138499   1.094361   2.072761   3.247941   3.801232
    21  H    3.821173   3.243345   2.067125   1.095883   2.148355
    22  H    3.411775   3.793559   3.367526   2.143513   1.088918
    23  H    4.348706   5.588641   5.994682   5.250323   3.875571
    24  H    4.012700   4.939697   4.975600   3.985827   2.649786
    25  H    4.494364   5.602556   5.944184   5.232901   4.002976
    26  H    5.421431   6.407165   6.455650   5.444698   4.162278
    27  H    4.193326   4.973765   4.926540   3.970569   2.844773
                   11         12         13         14         15
    11  C    0.000000
    12  O    1.332053   0.000000
    13  C    2.397599   1.416460   0.000000
    14  C    3.140004   2.439183   1.518026   0.000000
    15  H    5.225600   5.285386   6.532480   6.832486   0.000000
    16  H    6.208567   5.896108   6.972499   7.272850   1.781287
    17  H    5.119313   4.841598   5.829981   5.862688   1.789334
    18  H    4.749260   4.476977   5.695763   6.479967   2.492969
    19  H    4.678958   3.983593   4.910818   5.490407   3.082757
    20  H    3.392940   4.496420   5.770502   6.356546   4.509254
    21  H    3.400349   4.555019   4.913385   5.175129   7.786225
    22  H    2.182449   2.727437   2.591655   2.929059   7.305570
    23  H    3.226132   1.996683   1.098326   2.160131   6.719155
    24  H    2.645793   2.077854   1.103288   2.183725   7.360672
    25  H    3.496307   2.684006   2.158610   1.099131   6.226826
    26  H    4.127418   3.376979   2.157317   1.099825   7.862519
    27  H    2.992153   2.772943   2.182091   1.099514   6.927268
                   16         17         18         19         20
    16  H    0.000000
    17  H    1.783601   0.000000
    18  H    2.520914   3.082745   0.000000
    19  H    2.500953   2.528455   1.789197   0.000000
    20  H    6.112913   5.472937   4.793651   5.751368   0.000000
    21  H    9.145509   7.956259   7.773309   7.996146   4.131458
    22  H    8.279285   7.021476   6.901220   6.648360   4.887703
    23  H    6.889354   5.916022   5.590415   4.619170   6.475888
    24  H    7.907434   6.813109   6.421063   5.821576   5.964443
    25  H    6.519577   5.056368   6.052087   4.880645   6.464094
    26  H    8.188151   6.797714   7.418697   6.317572   7.404068
    27  H    7.602499   6.085608   6.858025   6.056000   5.970848
                   21         22         23         24         25
    21  H    0.000000
[...]
 Alpha virt. eigenvalues --    6.31023   6.37739   6.46628   6.48066   6.53241
 Alpha virt. eigenvalues --    6.64947   6.68802   6.73314   6.77048   6.85704
 Alpha virt. eigenvalues --    6.90907   6.93742   7.02709   7.04527   7.07210
 Alpha virt. eigenvalues --    7.16154   7.25999   7.30385   7.44170   7.53074
 Alpha virt. eigenvalues --    7.55719  22.40255  22.41022  22.55100  22.57460
 Alpha virt. eigenvalues --   22.60993  22.81903  22.93839  23.02738  23.32418
 Alpha virt. eigenvalues --   23.64581  32.52776  44.04842  44.33773  44.46718
          Condensed to atoms (all electrons):
               1          2          3          4          5          6
     1  C    4.966031   0.319503  -0.033255   0.001915  -0.015580  -0.001412
     2  C    0.319503   4.789765   0.216768  -0.037870   0.012443  -0.002215
     3  O   -0.033255   0.216768   7.945752   0.382297  -0.084140  -0.109466
     4  C    0.001915  -0.037870   0.382297   4.536942   0.610181   0.237697
     5  O   -0.015580   0.012443  -0.084140   0.610181   7.925109  -0.115943
     6  C   -0.001412  -0.002215  -0.109466   0.237697  -0.115943   5.494485
     7  C    0.000171  -0.000398   0.003339  -0.051896   0.017270   0.452995
     8  N   -0.000004   0.000013  -0.000205   0.007828   0.000101  -0.037937
     9  C    0.000003  -0.000032   0.000274  -0.003748   0.000516  -0.016202
    10  C   -0.000021   0.000297  -0.001897   0.012604  -0.001257  -0.072200
    11  C    0.000504   0.000360   0.014852  -0.082896   0.002760   0.341200
    12  O   -0.000251   0.001674  -0.016871   0.015109  -0.000123  -0.105365
    13  C    0.000004  -0.000011   0.002164   0.000428   0.000017   0.000075
    14  C    0.000015  -0.000002  -0.000780  -0.000162  -0.000004   0.003046
    15  H    0.417350  -0.038297  -0.003606   0.003410   0.007171   0.002503
    16  H    0.397800  -0.033350   0.004106   0.000714   0.000164   0.000075
    17  H    0.394183  -0.029433   0.002844  -0.002401   0.000531  -0.001165
    18  H   -0.046223   0.428779  -0.033460  -0.013721   0.010966  -0.000395
    19  H   -0.030433   0.395432  -0.035059   0.004381   0.001269   0.003711
    20  H    0.000045  -0.000109   0.000522  -0.012870   0.014770  -0.059067
    21  H    0.000000  -0.000000  -0.000001   0.000145   0.000001   0.002690
    22  H   -0.000000  -0.000001  -0.000035   0.000137   0.000002   0.012342
    23  H   -0.000001  -0.000006   0.000101  -0.000353  -0.000000   0.001873
    24  H   -0.000002   0.000013  -0.000037  -0.000026  -0.000001  -0.003571
    25  H   -0.000020   0.000019   0.000410   0.000021   0.000001  -0.001363
    26  H   -0.000001   0.000001   0.000008  -0.000004   0.000000  -0.000034
    27  H   -0.000000  -0.000003   0.000030  -0.000029   0.000000   0.001864
               7          8          9         10         11         12
     1  C    0.000171  -0.000004   0.000003  -0.000021   0.000504  -0.000251
     2  C   -0.000398   0.000013  -0.000032   0.000297   0.000360   0.001674
     3  O    0.003339  -0.000205   0.000274  -0.001897   0.014852  -0.016871
     4  C   -0.051896   0.007828  -0.003748   0.012604  -0.082896   0.015109
     5  O    0.017270   0.000101   0.000516  -0.001257   0.002760  -0.000123
     6  C    0.452995  -0.037937  -0.016202  -0.072200   0.341200  -0.105365
     7  C    4.801109   0.516706  -0.105498  -0.022579  -0.003606   0.000686
     8  N    0.516706   6.434649   0.531531  -0.055037  -0.080733  -0.000197
     9  C   -0.105498   0.531531   4.730517   0.455186  -0.000515   0.001398
    10  C   -0.022579  -0.055037   0.455186   5.233637   0.397822  -0.078962
    11  C   -0.003606  -0.080733  -0.000515   0.397822   4.909915   0.414705
    12  O    0.000686  -0.000197   0.001398  -0.078962   0.414705   7.892835
    13  C   -0.000601  -0.000034  -0.003264   0.014088  -0.064217   0.232869
    14  C    0.000110  -0.000033   0.001980  -0.005453   0.008301  -0.046678
    15  H   -0.000015   0.000001  -0.000002   0.000012  -0.000037   0.000007
    16  H   -0.000006   0.000000   0.000000  -0.000000  -0.000015   0.000003
    17  H   -0.000039   0.000000   0.000001   0.000001  -0.000058   0.000023
    18  H   -0.000311   0.000002   0.000002   0.000003  -0.000441  -0.000075
    19  H   -0.000008  -0.000000  -0.000002   0.000021  -0.000541   0.000415
    20  H    0.430629  -0.023756   0.004223   0.000111   0.006066  -0.000068
    21  H    0.003256  -0.028533   0.435541  -0.070852  -0.001052  -0.000119
    22  H   -0.003006   0.007524  -0.007791   0.423081  -0.090159  -0.002753
    23  H    0.000055  -0.000003   0.000154  -0.001251   0.003921  -0.033524
    24  H    0.000045  -0.000044  -0.000007   0.011078  -0.025045  -0.030871
    25  H   -0.000011   0.000004  -0.000084   0.001058  -0.002460   0.003385
    26  H   -0.000004   0.000002  -0.000047  -0.000593   0.000654   0.004556
    27  H    0.000014  -0.000033   0.001912  -0.001423   0.002567  -0.000145
              13         14         15         16         17         18
     1  C    0.000004   0.000015   0.417350   0.397800   0.394183  -0.046223
     2  C   -0.000011  -0.000002  -0.038297  -0.033350  -0.029433   0.428779
     3  O    0.002164  -0.000780  -0.003606   0.004106   0.002844  -0.033460
     4  C    0.000428  -0.000162   0.003410   0.000714  -0.002401  -0.013721
     5  O    0.000017  -0.000004   0.007171   0.000164   0.000531   0.010966
     6  C    0.000075   0.003046   0.002503   0.000075  -0.001165  -0.000395
     7  C   -0.000601   0.000110  -0.000015  -0.000006  -0.000039  -0.000311
     8  N   -0.000034  -0.000033   0.000001   0.000000   0.000000   0.000002
     9  C   -0.003264   0.001980  -0.000002   0.000000   0.000001   0.000002
    10  C    0.014088  -0.005453   0.000012  -0.000000   0.000001   0.000003
    11  C   -0.064217   0.008301  -0.000037  -0.000015  -0.000058  -0.000441
    12  O    0.232869  -0.046678   0.000007   0.000003   0.000023  -0.000075
    13  C    4.841300   0.304878   0.000001  -0.000000   0.000003   0.000004
    14  C    0.304878   4.978961   0.000000  -0.000000  -0.000013  -0.000005
    15  H    0.000001   0.000000   0.508063  -0.020553  -0.023102  -0.005453
    16  H   -0.000000  -0.000000  -0.020553   0.555559  -0.019812   0.000868
    17  H    0.000003  -0.000013  -0.023102  -0.019812   0.562696   0.007071
    18  H    0.000004  -0.000005  -0.005453   0.000868   0.007071   0.563822
    19  H   -0.000070   0.000029   0.004870  -0.002392  -0.005817  -0.031661
    20  H    0.000017  -0.000002   0.000040  -0.000002  -0.000008  -0.000064
    21  H   -0.000182   0.000057  -0.000000   0.000000   0.000000   0.000000
    22  H    0.006785  -0.005953   0.000000   0.000000  -0.000000  -0.000000
    23  H    0.401903  -0.021520   0.000000  -0.000000  -0.000000  -0.000003
    24  H    0.433638  -0.070144   0.000000   0.000000   0.000000   0.000000
    25  H   -0.026036   0.394603  -0.000000   0.000000   0.000030   0.000004
    26  H   -0.031552   0.392887   0.000000   0.000000   0.000000   0.000000
    27  H   -0.043703   0.422115   0.000000   0.000000   0.000000   0.000000
              19         20         21         22         23         24
     1  C   -0.030433   0.000045   0.000000  -0.000000  -0.000001  -0.000002
     2  C    0.395432  -0.000109  -0.000000  -0.000001  -0.000006   0.000013
     3  O   -0.035059   0.000522  -0.000001  -0.000035   0.000101  -0.000037
     4  C    0.004381  -0.012870   0.000145   0.000137  -0.000353  -0.000026
     5  O    0.001269   0.014770   0.000001   0.000002  -0.000000  -0.000001
     6  C    0.003711  -0.059067   0.002690   0.012342   0.001873  -0.003571
     7  C   -0.000008   0.430629   0.003256  -0.003006   0.000055   0.000045
     8  N   -0.000000  -0.023756  -0.028533   0.007524  -0.000003  -0.000044
     9  C   -0.000002   0.004223   0.435541  -0.007791   0.000154  -0.000007
    10  C    0.000021   0.000111  -0.070852   0.423081  -0.001251   0.011078
    11  C   -0.000541   0.006066  -0.001052  -0.090159   0.003921  -0.025045
    12  O    0.000415  -0.000068  -0.000119  -0.002753  -0.033524  -0.030871
    13  C   -0.000070   0.000017  -0.000182   0.006785   0.401903   0.433638
    14  C    0.000029  -0.000002   0.000057  -0.005953  -0.021520  -0.070144
    15  H    0.004870   0.000040  -0.000000   0.000000   0.000000   0.000000
    16  H   -0.002392  -0.000002   0.000000   0.000000  -0.000000   0.000000
    17  H   -0.005817  -0.000008   0.000000  -0.000000  -0.000000   0.000000
    18  H   -0.031661  -0.000064   0.000000  -0.000000  -0.000003   0.000000
    19  H    0.584890   0.000000  -0.000000   0.000000  -0.000002   0.000002
    20  H    0.000000   0.478795  -0.000217   0.000054  -0.000000   0.000001
    21  H   -0.000000  -0.000217   0.530219  -0.000946  -0.000001  -0.000025
    22  H    0.000000   0.000054  -0.000946   0.522025   0.000049  -0.000337
    23  H   -0.000002  -0.000000  -0.000001   0.000049   0.548837  -0.025864
    24  H    0.000002   0.000001  -0.000025  -0.000337  -0.025864   0.593925
    25  H   -0.000007  -0.000000  -0.000001   0.000310  -0.005809   0.007026
    26  H   -0.000000   0.000000   0.000001   0.000468  -0.002718   0.002155
    27  H   -0.000000  -0.000002   0.000032  -0.002521   0.004507  -0.004347
              25         26         27
     1  C   -0.000020  -0.000001  -0.000000
     2  C    0.000019   0.000001  -0.000003
     3  O    0.000410   0.000008   0.000030
     4  C    0.000021  -0.000004  -0.000029
     5  O    0.000001   0.000000   0.000000
     6  C   -0.001363  -0.000034   0.001864
     7  C   -0.000011  -0.000004   0.000014
     8  N    0.000004   0.000002  -0.000033
     9  C   -0.000084  -0.000047   0.001912
    10  C    0.001058  -0.000593  -0.001423
    11  C   -0.002460   0.000654   0.002567
    12  O    0.003385   0.004556  -0.000145
    13  C   -0.026036  -0.031552  -0.043703
    14  C    0.394603   0.392887   0.422115
    15  H   -0.000000   0.000000   0.000000
    16  H    0.000000   0.000000   0.000000
    17  H    0.000030   0.000000   0.000000
    18  H    0.000004   0.000000   0.000000
    19  H   -0.000007  -0.000000  -0.000000
    20  H   -0.000000   0.000000  -0.000002
    21  H   -0.000001   0.000001   0.000032
    22  H    0.000310   0.000468  -0.002521
    23  H   -0.005809  -0.002718   0.004507
    24  H    0.007026   0.002155  -0.004347
    25  H    0.537858  -0.016317  -0.022365
    26  H   -0.016317   0.547929  -0.021783
    27  H   -0.022365  -0.021783   0.528769
 Mulliken charges:
               1
     1  C   -0.370321
     2  C   -0.023341
     3  O   -0.254655
     4  C    0.392167
     5  O   -0.386226
     6  C   -0.028223
     7  C   -0.038407
     8  N   -0.271812
     9  C   -0.026043
    10  C   -0.237470
    11  C    0.248146
    12  O   -0.251664
    13  C   -0.068503
    14  C   -0.356233
    15  H    0.147637
    16  H    0.116840
    17  H    0.114464
    18  H    0.120293
    19  H    0.110972
    20  H    0.160891
    21  H    0.129986
    22  H    0.140725
    23  H    0.129657
    24  H    0.112438
    25  H    0.129742
    26  H    0.124393
    27  H    0.134545
 Sum of Mulliken charges =  -0.00000
 Mulliken charges with hydrogens summed into heavy atoms:
               1
     1  C    0.008621
     2  C    0.207924
     3  O   -0.254655
     4  C    0.392167
     5  O   -0.386226
     6  C   -0.028223
     7  C    0.122485
     8  N   -0.271812
     9  C    0.103943
    10  C   -0.096745
    11  C    0.248146
    12  O   -0.251664
    13  C    0.173592
    14  C    0.032448
 Electronic spatial extent (au):  <R**2>=           3136.0965
 Charge=             -0.0000 electrons
 Dipole moment (field-independent basis, Debye):
    X=              1.4993    Y=              5.2071    Z=              0.1368  Tot=              5.4204
 Quadrupole moment (field-independent basis, Debye-Ang):
   XX=            -72.0313   YY=            -86.7101   ZZ=            -83.5119
   XY=              1.7980   XZ=             -1.9881   YZ=             -1.2709
 Traceless Quadrupole moment (field-independent basis, Debye-Ang):
   XX=              8.7198   YY=             -5.9590   ZZ=             -2.7608
   XY=              1.7980   XZ=             -1.9881   YZ=             -1.2709
 Octapole moment (field-independent basis, Debye-Ang**2):
  XXX=             -2.8850  YYY=             58.4765  ZZZ=             -6.4180  XYY=             -4.3001
  XXY=             33.0590  XXZ=              0.1360  XZZ=             -7.3509  YZZ=              6.7425
  YYZ=             -5.0886  XYZ=              4.1857
 Hexadecapole moment (field-independent basis, Debye-Ang**3):
 XXXX=          -2267.6199 YYYY=          -1527.2588 ZZZZ=           -247.5806 XXXY=            -45.3657
 XXXZ=              9.8493 YYYX=             96.1232 YYYZ=             -2.7282 ZZZX=              3.7590
 ZZZY=             -1.7489 XXYY=           -668.9433 XXZZ=           -461.2083 YYZZ=           -291.6685
 XXYZ=            -17.4429 YYXZ=            -18.3533 ZZXY=              7.9986
 N-N= 9.039531274308D+02 E-N=-3.370527621976D+03  KE= 6.660385350696D+02
 Breneman (CHELPG) radii used.
 Read replacement radii for each type of atom:
 Atom Element Radius
    1     6    1.50
    2     6    1.50
    3     8    1.70
    4     6    1.50
    5     8    1.70
    6     6    1.50
    7     6    1.50
    8     7    1.70
    9     6    1.50
   10     6    1.50
   11     6    1.50
   12     8    1.70
   13     6    1.50
   14     6    1.50
   15     1    1.45
   16     1    1.45
   17     1    1.45
   18     1    1.45
   19     1    1.45
   20     1    1.45
   21     1    1.45
   22     1    1.45
   23     1    1.45
   24     1    1.45
   25     1    1.45
   26     1    1.45
   27     1    1.45
 Generate Potential Derived Charges using the Breneman model, NDens= 1.
 Grid spacing= 0.300 Box extension= 2.800
 NStep X,Y,Z=   49     43     30   Total possible points=       63210
 Number of Points to Fit=   16942

 **********************************************************************

            Electrostatic Properties Using The SCF Density.

 **********************************************************************

       Atomic Center    1 is at  -3.876711  0.604969  0.974230
       Atomic Center    2 is at  -3.114881  0.852449 -0.313100
       Atomic Center    3 is at  -1.725961  0.554900 -0.170410
       Atomic Center    4 is at  -1.356110 -0.715980 -0.314380
       Atomic Center    5 is at  -2.132150 -1.613750 -0.535590
       Atomic Center    6 is at   0.109420 -0.944019 -0.129540
       Atomic Center    7 is at   0.494361 -2.258989  0.156190
       Atomic Center    8 is at   1.741931 -2.660239  0.371970
       Atomic Center    9 is at   2.685560 -1.725528  0.295290
       Atomic Center   10 is at   2.444170 -0.387558  0.003790
       Atomic Center   11 is at   1.125320  0.034391 -0.226350
       Atomic Center   12 is at   0.788779  1.278861 -0.561610
       Atomic Center   13 is at   1.750359  2.318051 -0.604110
       Atomic Center   14 is at   2.089479  2.849261  0.776910
       Atomic Center   15 is at  -3.868900 -0.463851  1.228440
       Atomic Center   16 is at  -4.923171  0.922929  0.856500
       Atomic Center   17 is at  -3.433611  1.173129  1.805100
       Atomic Center   18 is at  -3.531030  0.252519 -1.135360
       Atomic Center   19 is at  -3.143771  1.913639 -0.595050
       Atomic Center   20 is at  -0.293639 -3.016409  0.210930
       Atomic Center   21 is at   3.715661 -2.054348  0.473420
       Atomic Center   22 is at   3.283490  0.304392 -0.046110
       Atomic Center   23 is at   1.277129  3.103661 -1.208420
       Atomic Center   24 is at   2.650799  1.988842 -1.150070
       Atomic Center   25 is at   1.175938  3.185741  1.287120
       Atomic Center   26 is at   2.776498  3.703922  0.692200
       Atomic Center   27 is at   2.569939  2.085132  1.404760
   16942 points will be used for fitting atomic charges
 Fitting point charges to electrostatic potential
 Charges from ESP fit, RMS=   0.00291 RRMS=   0.18370:
 ESP charges:
               1
     1  C   -0.218963
     2  C    0.270257
     3  O   -0.367568
     4  C    0.725513
     5  O   -0.526975
     6  C   -0.501866
     7  C    0.450386
     8  N   -0.650391
     9  C    0.441309
    10  C   -0.578622
    11  C    0.667601
    12  O   -0.457328
    13  C    0.331468
    14  C   -0.237467
    15  H    0.076367
    16  H    0.053514
    17  H    0.056049
    18  H    0.001885
    19  H    0.020422
    20  H    0.029290
    21  H    0.024872
    22  H    0.197607
    23  H    0.027745
    24  H   -0.029576
    25  H    0.085483
    26  H    0.057808
    27  H    0.051178
 Sum of ESP charges =  -0.00000
 ESP charges with hydrogens summed into heavy atoms:
               1
     1  C   -0.033032
     2  C    0.292565
     3  O   -0.367568
     4  C    0.725513
     5  O   -0.526975
     6  C   -0.501866
     7  C    0.479677
     8  N   -0.650391
     9  C    0.466180
    10  C   -0.381015
    11  C    0.667601
    12  O   -0.457328
    13  C    0.329637
    14  C   -0.042998
 Charge=  -0.00000 Dipole=     1.5439     5.1130     0.0922 Tot=     5.3418
 -----------------------------------------------------------------

              Electrostatic Properties (Atomic Units)

 -----------------------------------------------------------------
    Center     Electric         -------- Electric Field --------
               Potential          X             Y             Z
 -----------------------------------------------------------------
    1 Atom    -14.773875
    2 Atom    -14.711310
    3 Atom    -22.318484
    4 Atom    -14.641356
    5 Atom    -22.387038
    6 Atom    -14.748620
    7 Atom    -14.732401
    8 Atom    -18.404473
    9 Atom    -14.727372
   10 Atom    -14.756450
   11 Atom    -14.673557
   12 Atom    -22.307793
   13 Atom    -14.693127
   14 Atom    -14.757810
   15 Atom     -1.120679
   16 Atom     -1.111631
   17 Atom     -1.117808
   18 Atom     -1.114133
   19 Atom     -1.112147
   20 Atom     -1.108922
   21 Atom     -1.099881
   22 Atom     -1.079785
   23 Atom     -1.097777
   24 Atom     -1.094036
   25 Atom     -1.103373
   26 Atom     -1.096014
   27 Atom     -1.101482
 -----------------------------------------------------------------
 Unable to Open any file for archive entry.
 1\1\GINC-NOTCH423\SP\RwB97XD\def2TZVP\C10H13N1O3\U6053008\12-Jul-2024\
 0\\#N Guess=Read Geom=Check Integral(Ultrafine) Density Pop=(ChelpG,Re
 adRadii) NMR wB97XD def2TZVP\\12326824_4\\0,1\C,0,-3.87671,0.60497,0.9
 7423\C,0,-3.11488,0.85245,-0.3131\O,0,-1.72596,0.5549,-0.17041\C,0,-1.
 35611,-0.71598,-0.31438\O,0,-2.13215,-1.61375,-0.53559\C,0,0.10942,-0.
 94402,-0.12954\C,0,0.49436,-2.25899,0.15619\N,0,1.74193,-2.66024,0.371
 97\C,0,2.68556,-1.72553,0.29529\C,0,2.44417,-0.38756,0.00379\C,0,1.125
 32,0.03439,-0.22635\O,0,0.78878,1.27886,-0.56161\C,0,1.75036,2.31805,-
 0.60411\C,0,2.08948,2.84926,0.77691\H,0,-3.8689,-0.46385,1.22844\H,0,-
 4.92317,0.92293,0.8565\H,0,-3.43361,1.17313,1.8051\H,0,-3.53103,0.2525
 2,-1.13536\H,0,-3.14377,1.91364,-0.59505\H,0,-0.29364,-3.01641,0.21093
 \H,0,3.71566,-2.05435,0.47342\H,0,3.28349,0.30439,-0.04611\H,0,1.27713
 ,3.10366,-1.20842\H,0,2.6508,1.98884,-1.15007\H,0,1.17594,3.18574,1.28
 712\H,0,2.7765,3.70392,0.6922\H,0,2.56994,2.08513,1.40476\\Version=ES6
 4L-G16RevC.01\State=1-A\HF=-669.3530286\RMSD=1.530e-09\Dipole=0.589877
 8,2.0486448,0.0538321\Quadrupole=6.4829538,-4.4303801,-2.0525737,1.336
 7834,-1.4781341,-0.9448749\PG=C01 [X(C10H13N1O3)]\\@
 The archive entry for this job was punched.


 ... SUBJECTS WHICH DISCLOSE THEIR FULL POWER, MEANING AND BEAUTY AS SOON
 AS THEY ARE PRESENTED TO THE MIND HAVE VERY LITTLE OF THOSE QUALITIES
 TO DISCLOSE.
                           -- CHARLES DUTTON (1882)
 Job cpu time:       0 days  0 hours 54 minutes 28.1 seconds.
 Elapsed time:       0 days  0 hours  3 minutes 35.6 seconds.
 File lengths (MBytes):  RWF=    165 Int=      0 D2E=      0 Chk=     25 Scr=      2
 Normal termination of Gaussian 16 at Fri Jul 12 13:25:11 2024.
