 Entering Gaussian System, Link 0=g16
 Input=12326192_1.com
 Output=12326192_1.log
 Initial command:
 /uufs/chpc.utah.edu/sys/installdir/gaussian16/C01/AVX/g16/l1.exe "/scratch/general/vast/u6053008/1287105-notchpeak.peaks/Gau-3969481.inp" -scrdir="/scratch/general/vast/u6053008/1287105-notchpeak.peaks/"
 Entering Link 1 = /uufs/chpc.utah.edu/sys/installdir/gaussian16/C01/AVX/g16/l1.exe PID=   3969482.
  
 Copyright (c) 1988-2019, Gaussian, Inc.  All Rights Reserved.
  
 This is part of the Gaussian(R) 16 program.  It is based on
 the Gaussian(R) 09 system (copyright 2009, Gaussian, Inc.),
 the Gaussian(R) 03 system (copyright 2003, Gaussian, Inc.),
 the Gaussian(R) 98 system (copyright 1998, Gaussian, Inc.),
 the Gaussian(R) 94 system (copyright 1995, Gaussian, Inc.),
 the Gaussian 92(TM) system (copyright 1992, Gaussian, Inc.),
 the Gaussian 90(TM) system (copyright 1990, Gaussian, Inc.),
 the Gaussian 88(TM) system (copyright 1988, Gaussian, Inc.),
 the Gaussian 86(TM) system (copyright 1986, Carnegie Mellon
 University), and the Gaussian 82(TM) system (copyright 1983,
 Carnegie Mellon University). Gaussian is a federally registered
 trademark of Gaussian, Inc.
  
 This software contains proprietary and confidential information,
 including trade secrets, belonging to Gaussian, Inc.
  
 This software is provided under written license and may be
 used, copied, transmitted, or stored only in accord with that
 written license.
  
 The following legend is applicable only to US Government
 contracts under FAR:
  
                    RESTRICTED RIGHTS LEGEND
  
 Use, reproduction and disclosure by the US Government is
 subject to restrictions as set forth in subparagraphs (a)
 and (c) of the Commercial Computer Software - Restricted
 Rights clause in FAR 52.227-19.
  
 Gaussian, Inc.
 340 Quinnipiac St., Bldg. 40, Wallingford CT 06492
  
  
 ---------------------------------------------------------------
 Warning -- This program may not be used in any manner that
 competes with the business of Gaussian, Inc. or will provide
 assistance to any competitor of Gaussian, Inc.  The licensee
 of this program is prohibited from giving any competitor of
 Gaussian, Inc. access to this program.  By using this program,
 the user acknowledges that Gaussian, Inc. is engaged in the
 business of creating and licensing software in the field of
 computational chemistry and represents and warrants to the
 licensee that it is not a competitor of Gaussian, Inc. and that
 it will not use this program in any manner prohibited above.
 ---------------------------------------------------------------
  

 Cite this work as:
 Gaussian 16, Revision C.01,
 M. J. Frisch, G. W. Trucks, H. B. Schlegel, G. E. Scuseria, 
 M. A. Robb, J. R. Cheeseman, G. Scalmani, V. Barone, 
 G. A. Petersson, H. Nakatsuji, X. Li, M. Caricato, A. V. Marenich, 
 J. Bloino, B. G. Janesko, R. Gomperts, B. Mennucci, H. P. Hratchian, 
 J. V. Ortiz, A. F. Izmaylov, J. L. Sonnenberg, D. Williams-Young, 
 F. Ding, F. Lipparini, F. Egidi, J. Goings, B. Peng, A. Petrone, 
 T. Henderson, D. Ranasinghe, V. G. Zakrzewski, J. Gao, N. Rega, 
 G. Zheng, W. Liang, M. Hada, M. Ehara, K. Toyota, R. Fukuda, 
 J. Hasegawa, M. Ishida, T. Nakajima, Y. Honda, O. Kitao, H. Nakai, 
 T. Vreven, K. Throssell, J. A. Montgomery, Jr., J. E. Peralta, 
 F. Ogliaro, M. J. Bearpark, J. J. Heyd, E. N. Brothers, K. N. Kudin, 
 V. N. Staroverov, T. A. Keith, R. Kobayashi, J. Normand, 
 K. Raghavachari, A. P. Rendell, J. C. Burant, S. S. Iyengar, 
 J. Tomasi, M. Cossi, J. M. Millam, M. Klene, C. Adamo, R. Cammi, 
 J. W. Ochterski, R. L. Martin, K. Morokuma, O. Farkas, 
 J. B. Foresman, and D. J. Fox, Gaussian, Inc., Wallingford CT, 2019.
 
 ******************************************
 Gaussian 16:  ES64L-G16RevC.01  3-Jul-2019
                12-Jul-2024 
 ******************************************
 %NProcShared=16
 Will use up to   16 processors via shared memory.
 %Mem=32GB
 %chk=12326192_1.chk
 ------------------------------------------------------
 #N OPT FREQ=NORAMAN Integral(Ultrafine) wB97XD def2SVP
 ------------------------------------------------------
 1/18=20,19=15,26=4,38=1/1,3;
 2/9=110,12=2,17=6,18=5,40=1/2;
 3/5=43,7=101,11=2,25=1,30=1,71=1,74=-58,75=-5/1,2,3;
 4//1;
 5/5=2,38=5/2;
 6/7=2,8=2,9=2,10=2,28=1/1;
 7//1,2,3,16;
 1/18=20,19=15,26=4/3(2);
 2/9=110/2;
 99//99;
 2/9=110/2;
 3/5=43,7=101,11=2,25=1,30=1,71=1,74=-58,75=-5/1,2,3;
 4/5=5,16=3,69=1/1;
 5/5=2,38=5/2;
 7//1,2,3,16;
 1/18=20,19=15,26=4/3(-5);
 2/9=110/2;
 6/7=2,8=2,9=2,10=2,19=2,28=1/1;
 99/9=1/99;
 ----------
 12326192_1
 ----------
 Symbolic Z-matrix:
 Charge =  0 Multiplicity = 1
 C                     3.75303  -0.25327   0.87432 
 C                     3.10707  -0.48035  -0.47706 
 O                     1.706    -0.75694  -0.35202 
 C                     0.87738   0.2677   -0.23318 
 O                     1.24873   1.42977  -0.2418 
 C                    -0.54277  -0.12062  -0.09261 
 C                    -0.96693  -1.45757  -0.08061 
 C                    -2.31635  -1.73636   0.05722 
 N                    -3.24196  -0.77603   0.18074 
 C                    -2.85988   0.4855    0.17129 
 C                    -1.51415   0.89105   0.03683 
 O                    -1.2378    2.18902   0.03954 
 H                     3.5831   -1.11247   1.5389 
 H                     4.8377   -0.12345   0.74801 
 H                     3.35342   0.65238   1.35089 
 H                     3.24062   0.39172  -1.13262 
 H                     3.51771  -1.36824  -0.97464 
 H                    -0.23257  -2.25743  -0.17898 
 H                    -2.67448  -2.76981   0.0697 
 H                    -3.62487   1.26267   0.27315 
 H                    -0.26691   2.28553  -0.06248 
 

 GradGradGradGradGradGradGradGradGradGradGradGradGradGradGradGradGradGrad
 Berny optimization.
 Initialization pass.
                           ----------------------------
                           !    Initial Parameters    !
                           ! (Angstroms and Degrees)  !
 --------------------------                            --------------------------
 ! Name  Definition              Value          Derivative Info.                !
 --------------------------------------------------------------------------------
 ! R1    R(1,2)                  1.5149         estimate D2E/DX2                !
 ! R2    R(1,13)                 1.0994         estimate D2E/DX2                !
 ! R3    R(1,14)                 1.0997         estimate D2E/DX2                !
 ! R4    R(1,15)                 1.0986         estimate D2E/DX2                !
 ! R5    R(2,3)                  1.4336         estimate D2E/DX2                !
 ! R6    R(2,16)                 1.0991         estimate D2E/DX2                !
 ! R7    R(2,17)                 1.0975         estimate D2E/DX2                !
 ! R8    R(3,4)                  1.3231         estimate D2E/DX2                !
 ! R9    R(4,5)                  1.22           estimate D2E/DX2                !
 ! R10   R(4,6)                  1.479          estimate D2E/DX2                !
 ! R11   R(6,7)                  1.4027         estimate D2E/DX2                !
 ! R12   R(6,11)                 1.4085         estimate D2E/DX2                !
 ! R13   R(7,8)                  1.3848         estimate D2E/DX2                !
 ! R14   R(7,18)                 1.0903         estimate D2E/DX2                !
 ! R15   R(8,9)                  1.3395         estimate D2E/DX2                !
 ! R16   R(8,19)                 1.0938         estimate D2E/DX2                !
 ! R17   R(9,10)                 1.3182         estimate D2E/DX2                !
 ! R18   R(10,11)                1.4119         estimate D2E/DX2                !
 ! R19   R(10,20)                1.0953         estimate D2E/DX2                !
 ! R20   R(11,12)                1.3271         estimate D2E/DX2                !
 ! R21   R(12,21)                0.981          estimate D2E/DX2                !
 ! A1    A(2,1,13)             110.8649         estimate D2E/DX2                !
 ! A2    A(2,1,14)             109.6215         estimate D2E/DX2                !
 ! A3    A(2,1,15)             110.8191         estimate D2E/DX2                !
 ! A4    A(13,1,14)            108.3086         estimate D2E/DX2                !
 ! A5    A(13,1,15)            109.013          estimate D2E/DX2                !
 ! A6    A(14,1,15)            108.136          estimate D2E/DX2                !
 ! A7    A(1,2,3)              111.5824         estimate D2E/DX2                !
 ! A8    A(1,2,16)             111.1801         estimate D2E/DX2                !
 ! A9    A(1,2,17)             111.478          estimate D2E/DX2                !
 ! A10   A(3,2,16)             108.896          estimate D2E/DX2                !
 ! A11   A(3,2,17)             104.4258         estimate D2E/DX2                !
 ! A12   A(16,2,17)            109.0264         estimate D2E/DX2                !
 ! A13   A(2,3,4)              118.0659         estimate D2E/DX2                !
 ! A14   A(3,4,5)              123.1196         estimate D2E/DX2                !
 ! A15   A(3,4,6)              113.989          estimate D2E/DX2                !
 ! A16   A(5,4,6)              122.8912         estimate D2E/DX2                !
 ! A17   A(4,6,7)              122.7815         estimate D2E/DX2                !
 ! A18   A(4,6,11)             118.8409         estimate D2E/DX2                !
 ! A19   A(7,6,11)             118.3776         estimate D2E/DX2                !
 ! A20   A(6,7,8)              119.1705         estimate D2E/DX2                !
 ! A21   A(6,7,18)             119.6564         estimate D2E/DX2                !
 ! A22   A(8,7,18)             121.173          estimate D2E/DX2                !
 ! A23   A(7,8,9)              122.5616         estimate D2E/DX2                !
 ! A24   A(7,8,19)             120.6903         estimate D2E/DX2                !
 ! A25   A(9,8,19)             116.7481         estimate D2E/DX2                !
 ! A26   A(8,9,10)             119.0242         estimate D2E/DX2                !
 ! A27   A(9,10,11)            123.4937         estimate D2E/DX2                !
 ! A28   A(9,10,20)            118.4229         estimate D2E/DX2                !
 ! A29   A(11,10,20)           118.0834         estimate D2E/DX2                !
 ! A30   A(6,11,10)            117.3725         estimate D2E/DX2                !
 ! A31   A(6,11,12)            123.9932         estimate D2E/DX2                !
 ! A32   A(10,11,12)           118.6343         estimate D2E/DX2                !
 ! A33   A(11,12,21)           107.5842         estimate D2E/DX2                !
 ! D1    D(13,1,2,3)            56.0254         estimate D2E/DX2                !
 ! D2    D(13,1,2,16)          177.813          estimate D2E/DX2                !
 ! D3    D(13,1,2,17)          -60.3051         estimate D2E/DX2                !
 ! D4    D(14,1,2,3)           175.5496         estimate D2E/DX2                !
 ! D5    D(14,1,2,16)          -62.6627         estimate D2E/DX2                !
 ! D6    D(14,1,2,17)           59.2192         estimate D2E/DX2                !
 ! D7    D(15,1,2,3)           -65.1685         estimate D2E/DX2                !
 ! D8    D(15,1,2,16)           56.6192         estimate D2E/DX2                !
 ! D9    D(15,1,2,17)          178.5011         estimate D2E/DX2                !
 ! D10   D(1,2,3,4)             82.843          estimate D2E/DX2                !
 ! D11   D(16,2,3,4)           -40.2553         estimate D2E/DX2                !
 ! D12   D(17,2,3,4)          -156.6046         estimate D2E/DX2                !
 ! D13   D(2,3,4,5)              0.9265         estimate D2E/DX2                !
 ! D14   D(2,3,4,6)           -179.2448         estimate D2E/DX2                !
 ! D15   D(3,4,6,7)              0.2872         estimate D2E/DX2                !
 ! D16   D(3,4,6,11)          -179.8016         estimate D2E/DX2                !
 ! D17   D(5,4,6,7)           -179.8836         estimate D2E/DX2                !
 ! D18   D(5,4,6,11)             0.0276         estimate D2E/DX2                !
 ! D19   D(4,6,7,8)            179.9036         estimate D2E/DX2                !
 ! D20   D(4,6,7,18)            -0.0666         estimate D2E/DX2                !
 ! D21   D(11,6,7,8)            -0.008          estimate D2E/DX2                !
 ! D22   D(11,6,7,18)         -179.9782         estimate D2E/DX2                !
 ! D23   D(4,6,11,10)         -179.8984         estimate D2E/DX2                !
 ! D24   D(4,6,11,12)            0.093          estimate D2E/DX2                !
 ! D25   D(7,6,11,10)            0.0167         estimate D2E/DX2                !
 ! D26   D(7,6,11,12)         -179.9919         estimate D2E/DX2                !
 ! D27   D(6,7,8,9)             -0.0053         estimate D2E/DX2                !
 ! D28   D(6,7,8,19)           179.9974         estimate D2E/DX2                !
 ! D29   D(18,7,8,9)           179.9644         estimate D2E/DX2                !
 ! D30   D(18,7,8,19)           -0.0329         estimate D2E/DX2                !
 ! D31   D(7,8,9,10)             0.0091         estimate D2E/DX2                !
 ! D32   D(19,8,9,10)         -179.9935         estimate D2E/DX2                !
 ! D33   D(8,9,10,11)            0.0008         estimate D2E/DX2                !
 ! D34   D(8,9,10,20)         -179.9889         estimate D2E/DX2                !
 ! D35   D(9,10,11,6)           -0.0137         estimate D2E/DX2                !
 ! D36   D(9,10,11,12)         179.9943         estimate D2E/DX2                !
 ! D37   D(20,10,11,6)         179.976          estimate D2E/DX2                !
 ! D38   D(20,10,11,12)         -0.0159         estimate D2E/DX2                !
 ! D39   D(6,11,12,21)           0.0159         estimate D2E/DX2                !
 ! D40   D(10,11,12,21)       -179.9928         estimate D2E/DX2                !
 --------------------------------------------------------------------------------
 Trust Radius=3.00D-01 FncErr=1.00D-07 GrdErr=1.00D-06 EigMax=2.50D+02 EigMin=1.00D-04
 Number of steps in this run=    104 maximum allowed number of steps=    126.
 GradGradGradGradGradGradGradGradGradGradGradGradGradGradGradGradGradGrad

                          Input orientation:                          
 ---------------------------------------------------------------------
 Center     Atomic      Atomic             Coordinates (Angstroms)
 Number     Number       Type             X           Y           Z
 ---------------------------------------------------------------------
      1          6           0        3.753030   -0.253270    0.874320
      2          6           0        3.107070   -0.480350   -0.477060
      3          8           0        1.706000   -0.756940   -0.352020
      4          6           0        0.877380    0.267700   -0.233180
      5          8           0        1.248730    1.429770   -0.241800
      6          6           0       -0.542770   -0.120620   -0.092610
      7          6           0       -0.966930   -1.457570   -0.080610
      8          6           0       -2.316350   -1.736360    0.057220
      9          7           0       -3.241960   -0.776030    0.180740
     10          6           0       -2.859880    0.485500    0.171290
     11          6           0       -1.514150    0.891050    0.036830
     12          8           0       -1.237800    2.189020    0.039540
     13          1           0        3.583100   -1.112470    1.538900
     14          1           0        4.837700   -0.123450    0.748010
     15          1           0        3.353420    0.652380    1.350890
     16          1           0        3.240620    0.391720   -1.132620
     17          1           0        3.517710   -1.368240   -0.974640
     18          1           0       -0.232570   -2.257430   -0.178980
     19          1           0       -2.674480   -2.769810    0.069700
     20          1           0       -3.624870    1.262670    0.273150
     21          1           0       -0.266910    2.285530   -0.062480
 ---------------------------------------------------------------------
                    Distance matrix (angstroms):
                    1          2          3          4          5
     1  C    0.000000
     2  C    1.514945   0.000000
     3  O    2.438837   1.433574   0.000000
     4  C    3.125273   2.364439   1.323110   0.000000
     5  O    3.217121   2.675319   2.236726   1.219993   0.000000
     6  C    4.405275   3.687620   2.351417   1.478979   2.373908
     7  C    4.963895   4.208278   2.776527   2.530082   3.643057
     8  C    6.301157   5.592540   4.160053   3.781600   4.777404
     9  N    7.048703   6.389860   4.976596   4.269621   5.020995
    10  C    6.691084   6.079286   4.760753   3.765388   4.235914
    11  C    5.454727   4.847731   3.638192   2.486139   2.828667
    12  O    5.618721   5.125457   4.183056   2.870511   2.615042
    13  H    1.099440   2.165704   2.688026   3.516541   3.883704
    14  H    1.099689   2.150175   3.379189   4.098764   4.033971
    15  H    1.098640   2.164525   2.756824   2.964461   2.751494
    16  H    2.169420   1.099136   2.069738   2.531655   2.416347
    17  H    2.171909   1.097524   2.010880   3.193338   3.676164
    18  H    4.583787   3.794741   2.457533   2.758842   3.974121
    19  H    6.949336   6.242347   4.839225   4.683366   5.755439
    20  H    7.555984   6.994280   5.734792   4.638598   4.903578
    21  H    4.845928   4.382432   3.637696   2.325979   1.749756
                    6          7          8          9         10
     6  C    0.000000
     7  C    1.402673   0.000000
     8  C    2.403882   1.384794   0.000000
     9  N    2.791041   2.389260   1.339494   0.000000
    10  C    2.409569   2.724378   2.290218   1.318155   0.000000
    11  C    1.408478   2.414386   2.747221   2.405243   1.411928
    12  O    2.415568   3.658610   4.070896   3.581636   2.355946
    13  H    4.546251   4.841971   6.114583   6.967010   6.777600
    14  H    5.445742   6.013337   7.366078   8.125796   7.743137
    15  H    4.226289   5.016623   6.286967   6.848989   6.326484
    16  H    3.957038   4.714878   6.068308   6.716576   6.238996
    17  H    4.338436   4.573758   5.936034   6.883223   6.739671
    18  H    2.160935   1.090292   2.160890   3.373481   3.814330
    19  H    3.404224   2.158771   1.093815   2.075939   3.262168
    20  H    3.398031   3.819620   3.279181   2.076405   1.095253
    21  H    2.422099   3.808038   4.515543   4.275889   3.165162
                   11         12         13         14         15
    11  C    0.000000
    12  O    1.327065   0.000000
    13  H    5.679108   6.032329   0.000000
    14  H    6.471552   6.539201   1.782607   0.000000
    15  H    5.047470   5.015995   1.789636   1.780018   0.000000
    16  H    4.921868   4.965933   3.084947   2.520483   2.499698
    17  H    5.607769   6.024744   2.527366   2.501879   3.085123
    18  H    3.406163   4.563897   4.338362   5.578604   4.864856
    19  H    3.840487   5.162844   6.637969   7.993508   7.049001
    20  H    2.156174   2.571148   7.694040   8.588476   7.087348
    21  H    1.873511   0.980994   5.378977   5.702379   4.215636
                   16         17         18         19         20
    16  H    0.000000
    17  H    1.788630   0.000000
    18  H    4.471071   3.935522   0.000000
    19  H    6.813901   6.434148   2.507449   0.000000
    20  H    7.061848   7.713308   4.909504   4.147955   0.000000
    21  H    4.127285   5.339047   4.544583   5.600922   3.526299
                   21
    21  H    0.000000
 Stoichiometry    C8H9NO3
 Framework group  C1[X(C8H9NO3)]
 Deg. of freedom    57
 Full point group                 C1      NOp   1
 Largest Abelian subgroup         C1      NOp   1
 Largest concise Abelian subgroup C1      NOp   1
                         Standard orientation:                         
 ---------------------------------------------------------------------
 Center     Atomic      Atomic             Coordinates (Angstroms)
 Number     Number       Type             X           Y           Z
 ---------------------------------------------------------------------
      1          6           0        3.753032   -0.253267    0.874319
      2          6           0        3.107072   -0.480348   -0.477061
      3          8           0        1.706002   -0.756939   -0.352021
      4          6           0        0.877382    0.267701   -0.233181
      5          8           0        1.248731    1.429771   -0.241801
      6          6           0       -0.542768   -0.120620   -0.092611
      7          6           0       -0.966927   -1.457570   -0.080611
      8          6           0       -2.316347   -1.736361    0.057219
      9          7           0       -3.241958   -0.776032    0.180739
     10          6           0       -2.859878    0.485499    0.171289
     11          6           0       -1.514149    0.891049    0.036829
     12          8           0       -1.237799    2.189020    0.039539
     13          1           0        3.583102   -1.112468    1.538899
     14          1           0        4.837702   -0.123447    0.748009
     15          1           0        3.353421    0.652382    1.350889
     16          1           0        3.240622    0.391722   -1.132621
     17          1           0        3.517713   -1.368238   -0.974641
     18          1           0       -0.232567   -2.257430   -0.178981
     19          1           0       -2.674477   -2.769811    0.069699
     20          1           0       -3.624869    1.262668    0.273149
     21          1           0       -0.266910    2.285530   -0.062481
 ---------------------------------------------------------------------
 Rotational constants (GHZ):           2.0007926           0.5900758           0.4759829
 Standard basis: def2SVP (5D, 7F)
 There are   225 symmetry adapted cartesian basis functions of A   symmetry.
 There are   213 symmetry adapted basis functions of A   symmetry.
   213 basis functions,   363 primitive gaussians,   225 cartesian basis functions
    44 alpha electrons       44 beta electrons
       nuclear repulsion energy       691.4586209489 Hartrees.
 NAtoms=   21 NActive=   21 NUniq=   21 SFac= 1.00D+00 NAtFMM=   60 NAOKFM=F Big=F
 Integral buffers will be    131072 words long.
 Raffenetti 2 integral format.
 Two-electron integral symmetry is turned on.
 Nuclear repulsion after empirical dispersion term =      691.4485338249 Hartrees.
 One-electron integrals computed using PRISM.
   1 Symmetry operations used in ECPInt.
 ECPInt:  NShTT=    4950 NPrTT=   18138 LenC2=    4740 LenP2D=   12901.
 LDataN:  DoStor=T MaxTD1= 4 Len=   56
 NBasis=   213 RedAO= T EigKep=  5.76D-04  NBF=   213
 NBsUse=   213 1.00D-06 EigRej= -1.00D+00 NBFU=   213
 ExpMin= 1.22D-01 ExpMax= 2.27D+03 ExpMxC= 3.41D+02 IAcc=3 IRadAn=         5 AccDes= 0.00D+00
 Harris functional with IExCor= 4639 and IRadAn=       5 diagonalized for initial guess.
 HarFok:  IExCor= 4639 AccDes= 0.00D+00 IRadAn=         5 IDoV= 1 UseB2=F ITyADJ=14
 ICtDFT=  3500011 ScaDFX=  1.000000  1.000000  1.000000  1.000000
 FoFCou: FMM=F IPFlag=           0 FMFlag=      100000 FMFlg1=           0
         NFxFlg=           0 DoJE=T BraDBF=F KetDBF=T FulRan=T
         wScrn=  0.000000 ICntrl=       500 IOpCl=  0 I1Cent=   200000004 NGrid=           0
         NMat0=    1 NMatS0=      1 NMatT0=    0 NMatD0=    1 NMtDS0=    0 NMtDT0=    0
 Petite list used in FoFCou.
 Requested convergence on RMS density matrix=1.00D-08 within 128 cycles.
 Requested convergence on MAX density matrix=1.00D-06.
 Requested convergence on             energy=1.00D-06.
 No special actions if energy rises.
 Integral accuracy reduced to 1.0D-05 until final iterations.
 Initial convergence to 1.0D-05 achieved.  Increase integral accuracy.
 SCF Done:  E(RwB97XD) =  -590.090932036     A.U. after   16 cycles
            NFock= 16  Conv=0.61D-08     -V/T= 2.0093

 **********************************************************************

            Population analysis using the SCF Density.

 **********************************************************************

 Orbital symmetries:
       Occupied  (A) (A) (A) (A) (A) (A) (A) (A) (A) (A) (A) (A)
                 (A) (A) (A) (A) (A) (A) (A) (A) (A) (A) (A) (A)
                 (A) (A) (A) (A) (A) (A) (A) (A) (A) (A) (A) (A)
                 (A) (A) (A) (A) (A) (A) (A) (A)
       Virtual   (A) (A) (A) (A) (A) (A) (A) (A) (A) (A) (A) (A)
                 (A) (A) (A) (A) (A) (A) (A) (A) (A) (A) (A) (A)
                 (A) (A) (A) (A) (A) (A) (A) (A) (A) (A) (A) (A)
                 (A) (A) (A) (A) (A) (A) (A) (A) (A) (A) (A) (A)
                 (A) (A) (A) (A) (A) (A) (A) (A) (A) (A) (A) (A)
                 (A) (A) (A) (A) (A) (A) (A) (A) (A) (A) (A) (A)
                 (A) (A) (A) (A) (A) (A) (A) (A) (A) (A) (A) (A)
                 (A) (A) (A) (A) (A) (A) (A) (A) (A) (A) (A) (A)
                 (A) (A) (A) (A) (A) (A) (A) (A) (A) (A) (A) (A)
                 (A) (A) (A) (A) (A) (A) (A) (A) (A) (A) (A) (A)
                 (A) (A) (A) (A) (A) (A) (A) (A) (A) (A) (A) (A)
                 (A) (A) (A) (A) (A) (A) (A) (A) (A) (A) (A) (A)
                 (A) (A) (A) (A) (A) (A) (A) (A) (A) (A) (A) (A)
                 (A) (A) (A) (A) (A) (A) (A) (A) (A) (A) (A) (A)
                 (A)
 The electronic state is 1-A.
 Alpha  occ. eigenvalues --  -19.32580 -19.29024 -19.27381 -14.45034 -10.45733
 Alpha  occ. eigenvalues --  -10.38430 -10.37415 -10.33553 -10.33237 -10.33227
 Alpha  occ. eigenvalues --  -10.32456 -10.31038  -1.23148  -1.17190  -1.13265
 Alpha  occ. eigenvalues --   -1.04498  -0.92504  -0.87969  -0.85615  -0.79076
 Alpha  occ. eigenvalues --   -0.75252  -0.72644  -0.67961  -0.65108  -0.62554
 Alpha  occ. eigenvalues --   -0.60824  -0.59183  -0.58016  -0.57129  -0.53639
 Alpha  occ. eigenvalues --   -0.53335  -0.53205  -0.50649  -0.49933  -0.48857
 Alpha  occ. eigenvalues --   -0.47458  -0.46264  -0.45407  -0.44055  -0.41180
 Alpha  occ. eigenvalues --   -0.39518  -0.37541  -0.34131  -0.31636
 Alpha virt. eigenvalues --   -0.00323   0.05944   0.11243   0.13848   0.16271
 Alpha virt. eigenvalues --    0.17713   0.17962   0.19077   0.20173   0.20530
 Alpha virt. eigenvalues --    0.21060   0.22806   0.23744   0.24242   0.27301
 Alpha virt. eigenvalues --    0.28522   0.30021   0.33167   0.33584   0.35988
 Alpha virt. eigenvalues --    0.38554   0.41637   0.43320   0.43683   0.47307
 Alpha virt. eigenvalues --    0.48284   0.48672   0.49735   0.50377   0.51249
 Alpha virt. eigenvalues --    0.53620   0.55666   0.57353   0.58050   0.60507
 Alpha virt. eigenvalues --    0.61030   0.61265   0.63374   0.65789   0.67293
 Alpha virt. eigenvalues --    0.67684   0.68918   0.70172   0.70713   0.71775
 Alpha virt. eigenvalues --    0.73177   0.73544   0.74050   0.75105   0.75300
 Alpha virt. eigenvalues --    0.76596   0.77156   0.78196   0.79263   0.81452
 Alpha virt. eigenvalues --    0.83374   0.84124   0.88847   0.89459   0.92024
 Alpha virt. eigenvalues --    0.95276   0.98342   0.99134   1.01460   1.03030
 Alpha virt. eigenvalues --    1.07706   1.09645   1.09969   1.11330   1.16437
 Alpha virt. eigenvalues --    1.19507   1.20838   1.23189   1.24624   1.26995
 Alpha virt. eigenvalues --    1.30196   1.31692   1.32782   1.35743   1.38247
 Alpha virt. eigenvalues --    1.38991   1.40071   1.43709   1.45114   1.46179
 Alpha virt. eigenvalues --    1.47721   1.52069   1.57438   1.58716   1.60282
 Alpha virt. eigenvalues --    1.63348   1.65913   1.67978   1.72519   1.74689
 Alpha virt. eigenvalues --    1.75416   1.75747   1.80899   1.81367   1.82327
 Alpha virt. eigenvalues --    1.83755   1.84670   1.84876   1.85786   1.86605
 Alpha virt. eigenvalues --    1.88511   1.90173   1.91748   1.91891   1.93833
 Alpha virt. eigenvalues --    1.95079   1.97621   1.98915   2.02120   2.02758
 Alpha virt. eigenvalues --    2.04612   2.08303   2.10667   2.12646   2.17968
 Alpha virt. eigenvalues --    2.18232   2.20598   2.26757   2.27826   2.27954
 Alpha virt. eigenvalues --    2.33668   2.37068   2.37990   2.38485   2.42583
 Alpha virt. eigenvalues --    2.44586   2.46825   2.47553   2.51148   2.54108
 Alpha virt. eigenvalues --    2.56306   2.59968   2.64612   2.67900   2.68211
 Alpha virt. eigenvalues --    2.69366   2.72622   2.76760   2.80715   2.83152
 Alpha virt. eigenvalues --    2.89225   2.89305   2.91795   2.94176   2.97801
 Alpha virt. eigenvalues --    2.98704   3.01691   3.02833   3.03607   3.07378
 Alpha virt. eigenvalues --    3.08120   3.09647   3.12036   3.19703   3.27429
 Alpha virt. eigenvalues --    3.27691   3.28492   3.42421   3.49955   3.54661
 Alpha virt. eigenvalues --    3.62759   3.74835   3.79894   3.92691
          Condensed to atoms (all electrons):
               1          2          3          4          5          6
     1  C    4.592944   0.446855  -0.037781  -0.006249  -0.006891  -0.001755
     2  C    0.446855   4.468075   0.244862  -0.033543  -0.000374   0.009653
     3  O   -0.037781   0.244862   7.901694   0.449542  -0.075859  -0.145563
     4  C   -0.006249  -0.033543   0.449542   4.544604   0.645163   0.201102
     5  O   -0.006891  -0.000374  -0.075859   0.645163   7.800214  -0.111916
     6  C   -0.001755   0.009653  -0.145563   0.201102  -0.111916   5.829401
     7  C    0.000108  -0.000480   0.015898  -0.039789   0.003471   0.360486
     8  C   -0.000000   0.000011   0.000595   0.009999  -0.000043  -0.016930
     9  N   -0.000000   0.000000  -0.000001   0.000381  -0.000001  -0.050369
    10  C    0.000000   0.000003   0.000000   0.008855   0.000658  -0.074039
    11  C   -0.000000  -0.000096  -0.000063  -0.073462   0.000256   0.268957
    12  O   -0.000002   0.000009  -0.000039  -0.005514  -0.026026  -0.087945
    13  H    0.389968  -0.021097   0.001087   0.000067   0.000189  -0.000234
    14  H    0.385658  -0.016373   0.003487   0.000257  -0.000055   0.000034
    15  H    0.396073  -0.016474  -0.005069   0.003699   0.007497   0.000274
    16  H   -0.027598   0.391391  -0.025766  -0.007021   0.015846   0.001335
    17  H   -0.024215   0.391369  -0.022930   0.004073   0.000289   0.000306
    18  H    0.000023  -0.000384   0.010892  -0.017946   0.000196  -0.047839
    19  H    0.000000  -0.000000  -0.000019  -0.000235   0.000001   0.007312
    20  H    0.000000  -0.000000   0.000001  -0.000190   0.000014   0.013650
    21  H   -0.000003  -0.000006   0.000915   0.002380   0.054854  -0.032447
               7          8          9         10         11         12
     1  C    0.000108  -0.000000  -0.000000   0.000000  -0.000000  -0.000002
     2  C   -0.000480   0.000011   0.000000   0.000003  -0.000096   0.000009
     3  O    0.015898   0.000595  -0.000001   0.000000  -0.000063  -0.000039
     4  C   -0.039789   0.009999   0.000381   0.008855  -0.073462  -0.005514
     5  O    0.003471  -0.000043  -0.000001   0.000658   0.000256  -0.026026
     6  C    0.360486  -0.016930  -0.050369  -0.074039   0.268957  -0.087945
     7  C    4.927285   0.465633  -0.038305  -0.037931  -0.005095   0.002929
     8  C    0.465633   4.755009   0.505221  -0.074890  -0.057692   0.000301
     9  N   -0.038305   0.505221   6.241975   0.544696  -0.022973   0.001801
    10  C   -0.037931  -0.074890   0.544696   4.824175   0.453771  -0.062166
    11  C   -0.005095  -0.057692  -0.022973   0.453771   4.929141   0.468977
    12  O    0.002929   0.000301   0.001801  -0.062166   0.468977   7.558056
    13  H    0.000063   0.000002  -0.000000  -0.000000  -0.000009   0.000000
    14  H   -0.000000  -0.000000   0.000000   0.000000  -0.000000   0.000000
    15  H   -0.000104   0.000000   0.000000  -0.000001   0.000031   0.000002
    16  H    0.000083   0.000005  -0.000000  -0.000001  -0.000030   0.000006
    17  H   -0.000209  -0.000006   0.000000  -0.000000   0.000025   0.000000
    18  H    0.421421  -0.039290   0.005597  -0.000085   0.010639  -0.000034
    19  H   -0.066221   0.426416  -0.038281   0.003405   0.001439   0.000010
    20  H    0.000180   0.004253  -0.036183   0.413339  -0.066989   0.004419
    21  H   -0.000257  -0.000042  -0.000147   0.005497  -0.005342   0.337791
              13         14         15         16         17         18
     1  C    0.389968   0.385658   0.396073  -0.027598  -0.024215   0.000023
     2  C   -0.021097  -0.016373  -0.016474   0.391391   0.391369  -0.000384
     3  O    0.001087   0.003487  -0.005069  -0.025766  -0.022930   0.010892
     4  C    0.000067   0.000257   0.003699  -0.007021   0.004073  -0.017946
     5  O    0.000189  -0.000055   0.007497   0.015846   0.000289   0.000196
     6  C   -0.000234   0.000034   0.000274   0.001335   0.000306  -0.047839
     7  C    0.000063  -0.000000  -0.000104   0.000083  -0.000209   0.421421
     8  C    0.000002  -0.000000   0.000000   0.000005  -0.000006  -0.039290
     9  N   -0.000000   0.000000   0.000000  -0.000000   0.000000   0.005597
    10  C   -0.000000   0.000000  -0.000001  -0.000001  -0.000000  -0.000085
    11  C   -0.000009  -0.000000   0.000031  -0.000030   0.000025   0.010639
    12  O    0.000000   0.000000   0.000002   0.000006   0.000000  -0.000034
    13  H    0.615973  -0.016481  -0.023596   0.007289  -0.009199   0.000081
    14  H   -0.016481   0.610764  -0.016761  -0.001548  -0.003255  -0.000001
    15  H   -0.023596  -0.016761   0.593355  -0.009967   0.006296  -0.000020
    16  H    0.007289  -0.001548  -0.009967   0.625777  -0.027819   0.000102
    17  H   -0.009199  -0.003255   0.006296  -0.027819   0.632331  -0.000194
    18  H    0.000081  -0.000001  -0.000020   0.000102  -0.000194   0.626519
    19  H   -0.000000   0.000000  -0.000000  -0.000000   0.000000  -0.005597
    20  H    0.000000  -0.000000  -0.000000  -0.000000   0.000000   0.000058
    21  H   -0.000002   0.000000   0.000014  -0.000013   0.000001  -0.000036
              19         20         21
     1  C    0.000000   0.000000  -0.000003
     2  C   -0.000000  -0.000000  -0.000006
     3  O   -0.000019   0.000001   0.000915
     4  C   -0.000235  -0.000190   0.002380
     5  O    0.000001   0.000014   0.054854
     6  C    0.007312   0.013650  -0.032447
     7  C   -0.066221   0.000180  -0.000257
     8  C    0.426416   0.004253  -0.000042
     9  N   -0.038281  -0.036183  -0.000147
    10  C    0.003405   0.413339   0.005497
    11  C    0.001439  -0.066989  -0.005342
    12  O    0.000010   0.004419   0.337791
    13  H   -0.000000   0.000000  -0.000002
    14  H    0.000000  -0.000000   0.000000
    15  H   -0.000000  -0.000000   0.000014
    16  H   -0.000000  -0.000000  -0.000013
    17  H    0.000000   0.000000   0.000001
    18  H   -0.005597   0.000058  -0.000036
    19  H    0.635625  -0.000198  -0.000001
    20  H   -0.000198   0.628858  -0.000273
    21  H   -0.000001  -0.000273   0.430398
 Mulliken charges:
               1
     1  C   -0.107135
     2  C    0.136599
     3  O   -0.315883
     4  C    0.313827
     5  O   -0.307481
     6  C   -0.123473
     7  C   -0.009166
     8  C    0.021449
     9  N   -0.113412
    10  C   -0.005285
    11  C    0.098516
    12  O   -0.192576
    13  H    0.055901
    14  H    0.054275
    15  H    0.064752
    16  H    0.057928
    17  H    0.053138
    18  H    0.035900
    19  H    0.036345
    20  H    0.039061
    21  H    0.206719
 Sum of Mulliken charges =  -0.00000
 Mulliken charges with hydrogens summed into heavy atoms:
               1
     1  C    0.067794
     2  C    0.247665
     3  O   -0.315883
     4  C    0.313827
     5  O   -0.307481
     6  C   -0.123473
     7  C    0.026734
     8  C    0.057794
     9  N   -0.113412
    10  C    0.033776
    11  C    0.098516
    12  O    0.014143
 Electronic spatial extent (au):  <R**2>=           2309.0487
 Charge=             -0.0000 electrons
 Dipole moment (field-independent basis, Debye):
    X=              4.0213    Y=             -1.5010    Z=             -0.2451  Tot=              4.2993
 Quadrupole moment (field-independent basis, Debye-Ang):
   XX=            -68.9400   YY=            -69.7002   ZZ=            -69.4606
   XY=             -3.2805   XZ=              0.0267   YZ=              0.5270
 Traceless Quadrupole moment (field-independent basis, Debye-Ang):
   XX=              0.4269   YY=             -0.3332   ZZ=             -0.0937
   XY=             -3.2805   XZ=              0.0267   YZ=              0.5270
 Octapole moment (field-independent basis, Debye-Ang**2):
  XXX=             87.3585  YYY=             -7.5488  ZZZ=             -2.8540  XYY=              2.4054
  XXY=              7.3688  XXZ=             -5.0223  XZZ=              9.1617  YZZ=              5.2692
  YYZ=             -0.7410  XYZ=              0.0307
 Hexadecapole moment (field-independent basis, Debye-Ang**3):
 XXXX=          -2260.7868 YYYY=           -596.2348 ZZZZ=           -138.7951 XXXY=            -96.0708
 XXXZ=             -7.9532 YYYX=             20.7244 YYYZ=              0.6348 ZZZX=             -5.8342
 ZZZY=             -0.7479 XXYY=           -477.8049 XXZZ=           -402.0091 YYZZ=           -128.0854
 XXYZ=              8.6932 YYXZ=             -0.9134 ZZXY=             -6.4354
 N-N= 6.914485338249D+02 E-N=-2.758831210350D+03  KE= 5.846264536923D+02
   1 Symmetry operations used in ECPInt.
 ECPInt:  NShTT=    4950 NPrTT=   18138 LenC2=    4740 LenP2D=   12901.
 LDataN:  DoStor=T MaxTD1= 5 Len=  102
 Calling FoFJK, ICntrl=      2127 FMM=F ISym2X=0 I1Cent= 0 IOpClX= 0 NMat=1 NMatS=1 NMatT=0.
 ***** Axes restored to original set *****
 -------------------------------------------------------------------
 Center     Atomic                   Forces (Hartrees/Bohr)
 Number     Number              X              Y              Z
 -------------------------------------------------------------------
      1        6          -0.000007514    0.000008255    0.000001510
      2        6           0.000028328    0.000017440    0.000007525
      3        8          -0.000038234    0.000005713   -0.000017880
      4        6          -0.000003699   -0.000079406    0.000022083
      5        8           0.000015102    0.000054208    0.000000797
      6        6           0.000003071    0.000047331   -0.000000088
      7        6          -0.000035942    0.000013638   -0.000001397
      8        6           0.000069723   -0.000023236   -0.000009888
      9        7          -0.000039102    0.000079156    0.000003114
     10        6          -0.000037509   -0.000084841    0.000008593
     11        6           0.000076912   -0.000004712   -0.000004299
     12        8          -0.000022281   -0.000009674    0.000005914
     13        1          -0.000006837   -0.000017740    0.000009653
     14        1           0.000015809    0.000001002   -0.000011860
     15        1          -0.000011186    0.000017407    0.000007029
     16        1          -0.000009107    0.000006831   -0.000004601
     17        1          -0.000005014   -0.000015921    0.000000597
     18        1           0.000028740   -0.000020185   -0.000001805
     19        1          -0.000018072   -0.000012090    0.000003786
     20        1          -0.000018685    0.000019222   -0.000001167
     21        1           0.000015497   -0.000002399   -0.000017616
 -------------------------------------------------------------------
 Cartesian Forces:  Max     0.000084841 RMS     0.000028207

 GradGradGradGradGradGradGradGradGradGradGradGradGradGradGradGradGradGrad
 Berny optimization.
 FormGI is forming the generalized inverse of G from B-inverse, IUseBI=4.
 Internal  Forces:  Max     0.000056243 RMS     0.000015209
 Search for a local minimum.
 Step number   1 out of a maximum of  104
 All quantities printed in internal units (Hartrees-Bohrs-Radians)
 Mixed Optimization -- En-DIIS/RFO-DIIS
 Second derivative matrix not updated -- first step.
 ITU=  0
     Eigenvalues ---    0.00568   0.01044   0.01248   0.01601   0.01717
     Eigenvalues ---    0.01982   0.02091   0.02173   0.02195   0.02209
     Eigenvalues ---    0.02355   0.02519   0.02657   0.02709   0.05015
     Eigenvalues ---    0.05668   0.05672   0.05848   0.11732   0.13889
     Eigenvalues ---    0.16000   0.16000   0.16000   0.16000   0.16000
     Eigenvalues ---    0.16000   0.16000   0.22052   0.22338   0.23256
     Eigenvalues ---    0.24575   0.25000   0.25000   0.25000   0.25000
     Eigenvalues ---    0.25000   0.30859   0.33717   0.33744   0.33778
     Eigenvalues ---    0.33833   0.33957   0.34213   0.34375   0.34687
     Eigenvalues ---    0.34779   0.40480   0.41196   0.42726   0.44514
     Eigenvalues ---    0.47224   0.51192   0.55682   0.60204   0.60653
     Eigenvalues ---    0.61163   0.95387
 RFO step:  Lambda=-1.00255470D-07 EMin= 5.68257323D-03
 Linear search not attempted -- first point.
 Iteration  1 RMS(Cart)=  0.00028625 RMS(Int)=  0.00000005
 Iteration  2 RMS(Cart)=  0.00000008 RMS(Int)=  0.00000000
 Variable       Old X    -DE/DX   Delta X   Delta X   Delta X     New X
                                 (Linear)    (Quad)   (Total)
    R1        2.86283   0.00000   0.00000   0.00000   0.00000   2.86283
    R2        2.07764   0.00002   0.00000   0.00006   0.00006   2.07770
    R3        2.07811   0.00002   0.00000   0.00005   0.00005   2.07816
    R4        2.07613   0.00002   0.00000   0.00006   0.00006   2.07619
    R5        2.70906   0.00001   0.00000   0.00001   0.00001   2.70908
    R6        2.07707   0.00001   0.00000   0.00002   0.00002   2.07709
    R7        2.07402   0.00001   0.00000   0.00003   0.00003   2.07405
    R8        2.50032  -0.00003   0.00000  -0.00005  -0.00005   2.50026
    R9        2.30545   0.00006   0.00000   0.00006   0.00006   2.30551
   R10        2.79486  -0.00002   0.00000  -0.00007  -0.00007   2.79479
   R11        2.65067   0.00001   0.00000   0.00002   0.00002   2.65069
   R12        2.66164  -0.00004   0.00000  -0.00009  -0.00009   2.66155
   R13        2.61688  -0.00000   0.00000  -0.00001  -0.00001   2.61688
   R14        2.06035   0.00003   0.00000   0.00010   0.00010   2.06045
   R15        2.53128   0.00006   0.00000   0.00010   0.00010   2.53138
   R16        2.06701   0.00002   0.00000   0.00005   0.00005   2.06706
   R17        2.49095  -0.00005   0.00000  -0.00008  -0.00008   2.49087
   R18        2.66816   0.00005   0.00000   0.00012   0.00012   2.66827
   R19        2.06973   0.00003   0.00000   0.00008   0.00008   2.06981
   R20        2.50779  -0.00001   0.00000  -0.00002  -0.00002   2.50777
   R21        1.85381   0.00002   0.00000   0.00003   0.00003   1.85384
    A1        1.93496  -0.00001   0.00000  -0.00004  -0.00004   1.93492
    A2        1.91326  -0.00001   0.00000  -0.00009  -0.00009   1.91317
    A3        1.93416  -0.00000   0.00000   0.00000   0.00000   1.93416
    A4        1.89034   0.00001   0.00000   0.00004   0.00004   1.89038
    A5        1.90264   0.00000   0.00000   0.00003   0.00003   1.90267
    A6        1.88733   0.00001   0.00000   0.00006   0.00006   1.88739
    A7        1.94748  -0.00000   0.00000  -0.00003  -0.00003   1.94745
    A8        1.94046   0.00000   0.00000   0.00004   0.00004   1.94050
    A9        1.94566   0.00001   0.00000   0.00005   0.00005   1.94571
   A10        1.90059  -0.00000   0.00000  -0.00007  -0.00007   1.90053
   A11        1.82257  -0.00001   0.00000  -0.00008  -0.00008   1.82250
   A12        1.90287   0.00000   0.00000   0.00008   0.00008   1.90295
   A13        2.06064  -0.00003   0.00000  -0.00011  -0.00011   2.06053
   A14        2.14884   0.00001   0.00000   0.00002   0.00002   2.14886
   A15        1.98948  -0.00001   0.00000  -0.00002  -0.00002   1.98946
   A16        2.14486   0.00000   0.00000   0.00000   0.00000   2.14486
   A17        2.14294  -0.00001   0.00000  -0.00002  -0.00002   2.14292
   A18        2.07417   0.00001   0.00000   0.00002   0.00002   2.07419
   A19        2.06608   0.00000   0.00000  -0.00000  -0.00000   2.06608
   A20        2.07992   0.00000   0.00000   0.00001   0.00001   2.07992
   A21        2.08840  -0.00001   0.00000  -0.00005  -0.00005   2.08835
   A22        2.11487   0.00001   0.00000   0.00004   0.00004   2.11491
   A23        2.13910   0.00000   0.00000   0.00001   0.00001   2.13911
   A24        2.10644   0.00001   0.00000   0.00009   0.00009   2.10653
   A25        2.03764  -0.00001   0.00000  -0.00010  -0.00010   2.03754
   A26        2.07736  -0.00001   0.00000  -0.00004  -0.00004   2.07732
   A27        2.15537   0.00000   0.00000   0.00002   0.00002   2.15539
   A28        2.06687  -0.00000   0.00000  -0.00000  -0.00000   2.06687
   A29        2.06094  -0.00000   0.00000  -0.00002  -0.00002   2.06093
   A30        2.04854   0.00001   0.00000   0.00001   0.00001   2.04855
   A31        2.16409  -0.00000   0.00000  -0.00001  -0.00001   2.16408
   A32        2.07056  -0.00000   0.00000   0.00000   0.00000   2.07056
   A33        1.87770  -0.00001   0.00000  -0.00005  -0.00005   1.87765
    D1        0.97783   0.00000   0.00000   0.00002   0.00002   0.97784
    D2        3.10342  -0.00000   0.00000  -0.00007  -0.00007   3.10335
    D3       -1.05252   0.00001   0.00000   0.00010   0.00010  -1.05242
    D4        3.06392  -0.00000   0.00000  -0.00001  -0.00001   3.06391
    D5       -1.09367  -0.00001   0.00000  -0.00010  -0.00010  -1.09377
    D6        1.03357   0.00000   0.00000   0.00007   0.00007   1.03364
    D7       -1.13740  -0.00000   0.00000   0.00000   0.00000  -1.13740
    D8        0.98819  -0.00000   0.00000  -0.00008  -0.00008   0.98811
    D9        3.11543   0.00001   0.00000   0.00009   0.00009   3.11552
   D10        1.44588  -0.00001   0.00000  -0.00052  -0.00052   1.44536
   D11       -0.70259  -0.00001   0.00000  -0.00050  -0.00050  -0.70309
   D12       -2.73327  -0.00001   0.00000  -0.00053  -0.00053  -2.73379
   D13        0.01617   0.00000   0.00000   0.00016   0.00016   0.01633
   D14       -3.12841  -0.00000   0.00000  -0.00004  -0.00004  -3.12845
   D15        0.00501   0.00001   0.00000   0.00057   0.00057   0.00558
   D16       -3.13813   0.00001   0.00000   0.00050   0.00050  -3.13763
   D17       -3.13956   0.00000   0.00000   0.00037   0.00037  -3.13919
   D18        0.00048   0.00000   0.00000   0.00030   0.00030   0.00078
   D19        3.13991  -0.00000   0.00000  -0.00019  -0.00019   3.13972
   D20       -0.00116  -0.00000   0.00000  -0.00007  -0.00007  -0.00123
   D21       -0.00014  -0.00000   0.00000  -0.00012  -0.00012  -0.00026
   D22       -3.14121   0.00000   0.00000  -0.00000  -0.00000  -3.14121
   D23       -3.13982   0.00001   0.00000   0.00026   0.00026  -3.13956
   D24        0.00162   0.00001   0.00000   0.00048   0.00048   0.00210
   D25        0.00029   0.00000   0.00000   0.00020   0.00020   0.00049
   D26       -3.14145   0.00001   0.00000   0.00041   0.00041  -3.14104
   D27       -0.00009   0.00000   0.00000   0.00001   0.00001  -0.00009
   D28        3.14155   0.00000   0.00000   0.00009   0.00009  -3.14154
   D29        3.14097  -0.00000   0.00000  -0.00012  -0.00012   3.14085
   D30       -0.00057  -0.00000   0.00000  -0.00003  -0.00003  -0.00060
   D31        0.00016   0.00000   0.00000   0.00003   0.00003   0.00019
   D32       -3.14148  -0.00000   0.00000  -0.00006  -0.00006  -3.14154
   D33        0.00001   0.00000   0.00000   0.00006   0.00006   0.00007
   D34       -3.14140  -0.00000   0.00000  -0.00020  -0.00020   3.14159
   D35       -0.00024  -0.00000   0.00000  -0.00017  -0.00017  -0.00041
   D36        3.14149  -0.00001   0.00000  -0.00037  -0.00037   3.14112
   D37        3.14117   0.00000   0.00000   0.00008   0.00008   3.14126
   D38       -0.00028  -0.00000   0.00000  -0.00012  -0.00012  -0.00039
   D39        0.00028   0.00001   0.00000   0.00039   0.00039   0.00066
   D40       -3.14147   0.00002   0.00000   0.00060   0.00060  -3.14087
         Item               Value     Threshold  Converged?
 Maximum Force            0.000056     0.000450     YES
 RMS     Force            0.000015     0.000300     YES
 Maximum Displacement     0.001580     0.001800     YES
 RMS     Displacement     0.000286     0.001200     YES
 Predicted change in Energy=-5.012789D-08
 Optimization completed.
    -- Stationary point found.
                           ----------------------------
                           !   Optimized Parameters   !
                           ! (Angstroms and Degrees)  !
 --------------------------                            --------------------------
 ! Name  Definition              Value          Derivative Info.                !
 --------------------------------------------------------------------------------
 ! R1    R(1,2)                  1.5149         -DE/DX =    0.0                 !
 ! R2    R(1,13)                 1.0994         -DE/DX =    0.0                 !
 ! R3    R(1,14)                 1.0997         -DE/DX =    0.0                 !
 ! R4    R(1,15)                 1.0986         -DE/DX =    0.0                 !
 ! R5    R(2,3)                  1.4336         -DE/DX =    0.0                 !
 ! R6    R(2,16)                 1.0991         -DE/DX =    0.0                 !
 ! R7    R(2,17)                 1.0975         -DE/DX =    0.0                 !
 ! R8    R(3,4)                  1.3231         -DE/DX =    0.0                 !
 ! R9    R(4,5)                  1.22           -DE/DX =    0.0001              !
 ! R10   R(4,6)                  1.479          -DE/DX =    0.0                 !
 ! R11   R(6,7)                  1.4027         -DE/DX =    0.0                 !
 ! R12   R(6,11)                 1.4085         -DE/DX =    0.0                 !
 ! R13   R(7,8)                  1.3848         -DE/DX =    0.0                 !
 ! R14   R(7,18)                 1.0903         -DE/DX =    0.0                 !
 ! R15   R(8,9)                  1.3395         -DE/DX =    0.0001              !
 ! R16   R(8,19)                 1.0938         -DE/DX =    0.0                 !
 ! R17   R(9,10)                 1.3182         -DE/DX =    0.0                 !
 ! R18   R(10,11)                1.4119         -DE/DX =    0.0001              !
 ! R19   R(10,20)                1.0953         -DE/DX =    0.0                 !
 ! R20   R(11,12)                1.3271         -DE/DX =    0.0                 !
 ! R21   R(12,21)                0.981          -DE/DX =    0.0                 !
 ! A1    A(2,1,13)             110.8649         -DE/DX =    0.0                 !
 ! A2    A(2,1,14)             109.6215         -DE/DX =    0.0                 !
 ! A3    A(2,1,15)             110.8191         -DE/DX =    0.0                 !
 ! A4    A(13,1,14)            108.3086         -DE/DX =    0.0                 !
 ! A5    A(13,1,15)            109.013          -DE/DX =    0.0                 !
 ! A6    A(14,1,15)            108.136          -DE/DX =    0.0                 !
 ! A7    A(1,2,3)              111.5824         -DE/DX =    0.0                 !
 ! A8    A(1,2,16)             111.1801         -DE/DX =    0.0                 !
 ! A9    A(1,2,17)             111.478          -DE/DX =    0.0                 !
 ! A10   A(3,2,16)             108.896          -DE/DX =    0.0                 !
 ! A11   A(3,2,17)             104.4258         -DE/DX =    0.0                 !
 ! A12   A(16,2,17)            109.0264         -DE/DX =    0.0                 !
 ! A13   A(2,3,4)              118.0659         -DE/DX =    0.0                 !
 ! A14   A(3,4,5)              123.1196         -DE/DX =    0.0                 !
 ! A15   A(3,4,6)              113.989          -DE/DX =    0.0                 !
 ! A16   A(5,4,6)              122.8912         -DE/DX =    0.0                 !
 ! A17   A(4,6,7)              122.7815         -DE/DX =    0.0                 !
 ! A18   A(4,6,11)             118.8409         -DE/DX =    0.0                 !
 ! A19   A(7,6,11)             118.3776         -DE/DX =    0.0                 !
 ! A20   A(6,7,8)              119.1705         -DE/DX =    0.0                 !
 ! A21   A(6,7,18)             119.6564         -DE/DX =    0.0                 !
 ! A22   A(8,7,18)             121.173          -DE/DX =    0.0                 !
 ! A23   A(7,8,9)              122.5616         -DE/DX =    0.0                 !
 ! A24   A(7,8,19)             120.6903         -DE/DX =    0.0                 !
 ! A25   A(9,8,19)             116.7481         -DE/DX =    0.0                 !
 ! A26   A(8,9,10)             119.0242         -DE/DX =    0.0                 !
 ! A27   A(9,10,11)            123.4937         -DE/DX =    0.0                 !
 ! A28   A(9,10,20)            118.4229         -DE/DX =    0.0                 !
 ! A29   A(11,10,20)           118.0834         -DE/DX =    0.0                 !
 ! A30   A(6,11,10)            117.3725         -DE/DX =    0.0                 !
 ! A31   A(6,11,12)            123.9932         -DE/DX =    0.0                 !
 ! A32   A(10,11,12)           118.6343         -DE/DX =    0.0                 !
 ! A33   A(11,12,21)           107.5842         -DE/DX =    0.0                 !
 ! D1    D(13,1,2,3)            56.0254         -DE/DX =    0.0                 !
 ! D2    D(13,1,2,16)          177.813          -DE/DX =    0.0                 !
 ! D3    D(13,1,2,17)          -60.3051         -DE/DX =    0.0                 !
 ! D4    D(14,1,2,3)           175.5496         -DE/DX =    0.0                 !
 ! D5    D(14,1,2,16)          -62.6627         -DE/DX =    0.0                 !
 ! D6    D(14,1,2,17)           59.2192         -DE/DX =    0.0                 !
 ! D7    D(15,1,2,3)           -65.1685         -DE/DX =    0.0                 !
 ! D8    D(15,1,2,16)           56.6192         -DE/DX =    0.0                 !
 ! D9    D(15,1,2,17)          178.5011         -DE/DX =    0.0                 !
 ! D10   D(1,2,3,4)             82.843          -DE/DX =    0.0                 !
 ! D11   D(16,2,3,4)           -40.2553         -DE/DX =    0.0                 !
 ! D12   D(17,2,3,4)          -156.6046         -DE/DX =    0.0                 !
 ! D13   D(2,3,4,5)              0.9265         -DE/DX =    0.0                 !
 ! D14   D(2,3,4,6)           -179.2448         -DE/DX =    0.0                 !
 ! D15   D(3,4,6,7)              0.2872         -DE/DX =    0.0                 !
 ! D16   D(3,4,6,11)          -179.8016         -DE/DX =    0.0                 !
 ! D17   D(5,4,6,7)           -179.8836         -DE/DX =    0.0                 !
 ! D18   D(5,4,6,11)             0.0276         -DE/DX =    0.0                 !
 ! D19   D(4,6,7,8)            179.9036         -DE/DX =    0.0                 !
 ! D20   D(4,6,7,18)            -0.0666         -DE/DX =    0.0                 !
 ! D21   D(11,6,7,8)            -0.008          -DE/DX =    0.0                 !
 ! D22   D(11,6,7,18)         -179.9782         -DE/DX =    0.0                 !
 ! D23   D(4,6,11,10)         -179.8984         -DE/DX =    0.0                 !
 ! D24   D(4,6,11,12)            0.093          -DE/DX =    0.0                 !
 ! D25   D(7,6,11,10)            0.0167         -DE/DX =    0.0                 !
 ! D26   D(7,6,11,12)         -179.9919         -DE/DX =    0.0                 !
 ! D27   D(6,7,8,9)             -0.0053         -DE/DX =    0.0                 !
 ! D28   D(6,7,8,19)          -180.0026         -DE/DX =    0.0                 !
 ! D29   D(18,7,8,9)           179.9644         -DE/DX =    0.0                 !
 ! D30   D(18,7,8,19)           -0.0329         -DE/DX =    0.0                 !
 ! D31   D(7,8,9,10)             0.0091         -DE/DX =    0.0                 !
 ! D32   D(19,8,9,10)         -179.9935         -DE/DX =    0.0                 !
 ! D33   D(8,9,10,11)            0.0008         -DE/DX =    0.0                 !
 ! D34   D(8,9,10,20)          180.0111         -DE/DX =    0.0                 !
 ! D35   D(9,10,11,6)           -0.0137         -DE/DX =    0.0                 !
 ! D36   D(9,10,11,12)         179.9943         -DE/DX =    0.0                 !
 ! D37   D(20,10,11,6)         179.976          -DE/DX =    0.0                 !
 ! D38   D(20,10,11,12)         -0.0159         -DE/DX =    0.0                 !
 ! D39   D(6,11,12,21)           0.0159         -DE/DX =    0.0                 !
 ! D40   D(10,11,12,21)       -179.9928         -DE/DX =    0.0                 !
 --------------------------------------------------------------------------------
 GradGradGradGradGradGradGradGradGradGradGradGradGradGradGradGradGradGrad

                          Input orientation:                          
 ---------------------------------------------------------------------
 Center     Atomic      Atomic             Coordinates (Angstroms)
 Number     Number       Type             X           Y           Z
 ---------------------------------------------------------------------
      1          6           0        3.753030   -0.253270    0.874320
      2          6           0        3.107070   -0.480350   -0.477060
      3          8           0        1.706000   -0.756940   -0.352020
      4          6           0        0.877380    0.267700   -0.233180
      5          8           0        1.248730    1.429770   -0.241800
      6          6           0       -0.542770   -0.120620   -0.092610
      7          6           0       -0.966930   -1.457570   -0.080610
      8          6           0       -2.316350   -1.736360    0.057220
      9          7           0       -3.241960   -0.776030    0.180740
     10          6           0       -2.859880    0.485500    0.171290
     11          6           0       -1.514150    0.891050    0.036830
     12          8           0       -1.237800    2.189020    0.039540
     13          1           0        3.583100   -1.112470    1.538900
     14          1           0        4.837700   -0.123450    0.748010
     15          1           0        3.353420    0.652380    1.350890
     16          1           0        3.240620    0.391720   -1.132620
     17          1           0        3.517710   -1.368240   -0.974640
     18          1           0       -0.232570   -2.257430   -0.178980
     19          1           0       -2.674480   -2.769810    0.069700
     20          1           0       -3.624870    1.262670    0.273150
     21          1           0       -0.266910    2.285530   -0.062480
 ---------------------------------------------------------------------
                    Distance matrix (angstroms):
                    1          2          3          4          5
     1  C    0.000000
     2  C    1.514945   0.000000
     3  O    2.438837   1.433574   0.000000
     4  C    3.125273   2.364439   1.323110   0.000000
     5  O    3.217121   2.675319   2.236726   1.219993   0.000000
     6  C    4.405275   3.687620   2.351417   1.478979   2.373908
     7  C    4.963895   4.208278   2.776527   2.530082   3.643057
     8  C    6.301157   5.592540   4.160053   3.781600   4.777404
     9  N    7.048703   6.389860   4.976596   4.269621   5.020995
    10  C    6.691084   6.079286   4.760753   3.765388   4.235914
    11  C    5.454727   4.847731   3.638192   2.486139   2.828667
    12  O    5.618721   5.125457   4.183056   2.870511   2.615042
    13  H    1.099440   2.165704   2.688026   3.516541   3.883704
    14  H    1.099689   2.150175   3.379189   4.098764   4.033971
    15  H    1.098640   2.164525   2.756824   2.964461   2.751494
    16  H    2.169420   1.099136   2.069738   2.531655   2.416347
    17  H    2.171909   1.097524   2.010880   3.193338   3.676164
    18  H    4.583787   3.794741   2.457533   2.758842   3.974121
    19  H    6.949336   6.242347   4.839225   4.683366   5.755439
    20  H    7.555984   6.994280   5.734792   4.638598   4.903578
    21  H    4.845928   4.382432   3.637696   2.325979   1.749756
                    6          7          8          9         10
     6  C    0.000000
     7  C    1.402673   0.000000
     8  C    2.403882   1.384794   0.000000
     9  N    2.791041   2.389260   1.339494   0.000000
    10  C    2.409569   2.724378   2.290218   1.318155   0.000000
    11  C    1.408478   2.414386   2.747221   2.405243   1.411928
    12  O    2.415568   3.658610   4.070896   3.581636   2.355946
    13  H    4.546251   4.841971   6.114583   6.967010   6.777600
    14  H    5.445742   6.013337   7.366078   8.125796   7.743137
    15  H    4.226289   5.016623   6.286967   6.848989   6.326484
    16  H    3.957038   4.714878   6.068308   6.716576   6.238996
    17  H    4.338436   4.573758   5.936034   6.883223   6.739671
    18  H    2.160935   1.090292   2.160890   3.373481   3.814330
    19  H    3.404224   2.158771   1.093815   2.075939   3.262168
    20  H    3.398031   3.819620   3.279181   2.076405   1.095253
    21  H    2.422099   3.808038   4.515543   4.275889   3.165162
                   11         12         13         14         15
    11  C    0.000000
    12  O    1.327065   0.000000
    13  H    5.679108   6.032329   0.000000
    14  H    6.471552   6.539201   1.782607   0.000000
    15  H    5.047470   5.015995   1.789636   1.780018   0.000000
    16  H    4.921868   4.965933   3.084947   2.520483   2.499698
    17  H    5.607769   6.024744   2.527366   2.501879   3.085123
    18  H    3.406163   4.563897   4.338362   5.578604   4.864856
    19  H    3.840487   5.162844   6.637969   7.993508   7.049001
    20  H    2.156174   2.571148   7.694040   8.588476   7.087348
    21  H    1.873511   0.980994   5.378977   5.702379   4.215636
                   16         17         18         19         20
    16  H    0.000000
    17  H    1.788630   0.000000
    18  H    4.471071   3.935522   0.000000
    19  H    6.813901   6.434148   2.507449   0.000000
    20  H    7.061848   7.713308   4.909504   4.147955   0.000000
    21  H    4.127285   5.339047   4.544583   5.600922   3.526299
                   21
    21  H    0.000000
 Stoichiometry    C8H9NO3
 Framework group  C1[X(C8H9NO3)]
 Deg. of freedom    57
 Full point group                 C1      NOp   1
 Largest Abelian subgroup         C1      NOp   1
 Largest concise Abelian subgroup C1      NOp   1
                         Standard orientation:                         
 ---------------------------------------------------------------------
 Center     Atomic      Atomic             Coordinates (Angstroms)
 Number     Number       Type             X           Y           Z
 ---------------------------------------------------------------------
      1          6           0        3.753032   -0.253267    0.874319
      2          6           0        3.107072   -0.480348   -0.477061
      3          8           0        1.706002   -0.756939   -0.352021
      4          6           0        0.877382    0.267701   -0.233181
      5          8           0        1.248731    1.429771   -0.241801
      6          6           0       -0.542768   -0.120620   -0.092611
      7          6           0       -0.966927   -1.457570   -0.080611
      8          6           0       -2.316347   -1.736361    0.057219
      9          7           0       -3.241958   -0.776032    0.180739
     10          6           0       -2.859878    0.485499    0.171289
     11          6           0       -1.514149    0.891049    0.036829
     12          8           0       -1.237799    2.189020    0.039539
     13          1           0        3.583102   -1.112468    1.538899
     14          1           0        4.837702   -0.123447    0.748009
     15          1           0        3.353421    0.652382    1.350889
     16          1           0        3.240622    0.391722   -1.132621
     17          1           0        3.517713   -1.368238   -0.974641
     18          1           0       -0.232567   -2.257430   -0.178981
     19          1           0       -2.674477   -2.769811    0.069699
     20          1           0       -3.624869    1.262668    0.273149
     21          1           0       -0.266910    2.285530   -0.062481
 ---------------------------------------------------------------------
 Rotational constants (GHZ):           2.0007926           0.5900758           0.4759829
 Unable to Open any file for archive entry.
 1\1\GINC-NOTCH346\FOpt\RwB97XD\def2SVP\C8H9N1O3\U6053008\12-Jul-2024\0
 \\#N OPT FREQ=NORAMAN Integral(Ultrafine) wB97XD def2SVP\\12326192_1\\
 0,1\C,3.75303,-0.25327,0.87432\C,3.10707,-0.48035,-0.47706\O,1.706,-0.
 75694,-0.35202\C,0.87738,0.2677,-0.23318\O,1.24873,1.42977,-0.2418\C,-
 0.54277,-0.12062,-0.09261\C,-0.96693,-1.45757,-0.08061\C,-2.31635,-1.7
 3636,0.05722\N,-3.24196,-0.77603,0.18074\C,-2.85988,0.4855,0.17129\C,-
 1.51415,0.89105,0.03683\O,-1.2378,2.18902,0.03954\H,3.5831,-1.11247,1.
 5389\H,4.8377,-0.12345,0.74801\H,3.35342,0.65238,1.35089\H,3.24062,0.3
 9172,-1.13262\H,3.51771,-1.36824,-0.97464\H,-0.23257,-2.25743,-0.17898
 \H,-2.67448,-2.76981,0.0697\H,-3.62487,1.26267,0.27315\H,-0.26691,2.28
 553,-0.06248\\Version=ES64L-G16RevC.01\State=1-A\HF=-590.090932\RMSD=6
 .120e-09\RMSF=2.821e-05\Dipole=1.5820958,-0.5905357,-0.0964235\Quadrup
 ole=0.3174058,-0.2477576,-0.0696482,-2.4390061,0.0198591,0.3917938\PG=
 C01 [X(C8H9N1O3)]\\@
 The archive entry for this job was punched.


 THE WHOLE OF SCIENCE IS NOTHING MORE THAN A REFINEMENT OF EVERYDAY THINKING.
                                                              -- A. EINSTEIN
 Job cpu time:       0 days  0 hours  6 minutes 47.7 seconds.
 Elapsed time:       0 days  0 hours  0 minutes 26.1 seconds.
 File lengths (MBytes):  RWF=     44 Int=      0 D2E=      0 Chk=      5 Scr=      2
 Normal termination of Gaussian 16 at Fri Jul 12 13:08:32 2024.
 Link1:  Proceeding to internal job step number  2.
 --------------------------------------------------------------------
 #N Geom=AllCheck Guess=TCheck SCRF=Check GenChk RwB97XD/def2SVP Freq
 --------------------------------------------------------------------
 1/10=4,29=7,30=1,38=1,40=1/1,3;
 2/12=2,40=1/2;
 3/5=43,7=101,11=2,14=-4,25=1,30=1,70=2,71=2,74=-58,75=-5,116=1,140=1/1,2,3;
 4/5=101/1;
 5/5=2,38=6,98=1/2;
 8/6=4,10=90,11=11/1;
 11/6=1,8=1,9=11,15=111,16=1/1,2,10;
 10/6=1/2;
 6/7=2,8=2,9=2,10=2,28=1/1;
 7/8=1,10=1,25=1/1,2,3,16;
 1/10=4,30=1/3;
 99//99;
 Structure from the checkpoint file:  "12326192_1.chk"
 ----------
 12326192_1
 ----------
 Charge =  0 Multiplicity = 1
 Redundant internal coordinates found in file.  (old form).
 C,0,3.75303,-0.25327,0.87432
 C,0,3.10707,-0.48035,-0.47706
 O,0,1.706,-0.75694,-0.35202
 C,0,0.87738,0.2677,-0.23318
 O,0,1.24873,1.42977,-0.2418
 C,0,-0.54277,-0.12062,-0.09261
 C,0,-0.96693,-1.45757,-0.08061
 C,0,-2.31635,-1.73636,0.05722
 N,0,-3.24196,-0.77603,0.18074
 C,0,-2.85988,0.4855,0.17129
 C,0,-1.51415,0.89105,0.03683
 O,0,-1.2378,2.18902,0.03954
 H,0,3.5831,-1.11247,1.5389
 H,0,4.8377,-0.12345,0.74801
 H,0,3.35342,0.65238,1.35089
 H,0,3.24062,0.39172,-1.13262
 H,0,3.51771,-1.36824,-0.97464
 H,0,-0.23257,-2.25743,-0.17898
 H,0,-2.67448,-2.76981,0.0697
 H,0,-3.62487,1.26267,0.27315
 H,0,-0.26691,2.28553,-0.06248
 Recover connectivity data from disk.

 GradGradGradGradGradGradGradGradGradGradGradGradGradGradGradGradGradGrad
 Berny optimization.
 Initialization pass.
                           ----------------------------
                           !    Initial Parameters    !
                           ! (Angstroms and Degrees)  !
 --------------------------                            --------------------------
 ! Name  Definition              Value          Derivative Info.                !
 --------------------------------------------------------------------------------
 ! R1    R(1,2)                  1.5149         calculate D2E/DX2 analytically  !
 ! R2    R(1,13)                 1.0994         calculate D2E/DX2 analytically  !
 ! R3    R(1,14)                 1.0997         calculate D2E/DX2 analytically  !
 ! R4    R(1,15)                 1.0986         calculate D2E/DX2 analytically  !
 ! R5    R(2,3)                  1.4336         calculate D2E/DX2 analytically  !
 ! R6    R(2,16)                 1.0991         calculate D2E/DX2 analytically  !
 ! R7    R(2,17)                 1.0975         calculate D2E/DX2 analytically  !
 ! R8    R(3,4)                  1.3231         calculate D2E/DX2 analytically  !
 ! R9    R(4,5)                  1.22           calculate D2E/DX2 analytically  !
 ! R10   R(4,6)                  1.479          calculate D2E/DX2 analytically  !
 ! R11   R(6,7)                  1.4027         calculate D2E/DX2 analytically  !
 ! R12   R(6,11)                 1.4085         calculate D2E/DX2 analytically  !
 ! R13   R(7,8)                  1.3848         calculate D2E/DX2 analytically  !
 ! R14   R(7,18)                 1.0903         calculate D2E/DX2 analytically  !
 ! R15   R(8,9)                  1.3395         calculate D2E/DX2 analytically  !
 ! R16   R(8,19)                 1.0938         calculate D2E/DX2 analytically  !
 ! R17   R(9,10)                 1.3182         calculate D2E/DX2 analytically  !
 ! R18   R(10,11)                1.4119         calculate D2E/DX2 analytically  !
 ! R19   R(10,20)                1.0953         calculate D2E/DX2 analytically  !
 ! R20   R(11,12)                1.3271         calculate D2E/DX2 analytically  !
 ! R21   R(12,21)                0.981          calculate D2E/DX2 analytically  !
 ! A1    A(2,1,13)             110.8649         calculate D2E/DX2 analytically  !
 ! A2    A(2,1,14)             109.6215         calculate D2E/DX2 analytically  !
 ! A3    A(2,1,15)             110.8191         calculate D2E/DX2 analytically  !
 ! A4    A(13,1,14)            108.3086         calculate D2E/DX2 analytically  !
 ! A5    A(13,1,15)            109.013          calculate D2E/DX2 analytically  !
 ! A6    A(14,1,15)            108.136          calculate D2E/DX2 analytically  !
 ! A7    A(1,2,3)              111.5824         calculate D2E/DX2 analytically  !
 ! A8    A(1,2,16)             111.1801         calculate D2E/DX2 analytically  !
 ! A9    A(1,2,17)             111.478          calculate D2E/DX2 analytically  !
 ! A10   A(3,2,16)             108.896          calculate D2E/DX2 analytically  !
 ! A11   A(3,2,17)             104.4258         calculate D2E/DX2 analytically  !
 ! A12   A(16,2,17)            109.0264         calculate D2E/DX2 analytically  !
 ! A13   A(2,3,4)              118.0659         calculate D2E/DX2 analytically  !
 ! A14   A(3,4,5)              123.1196         calculate D2E/DX2 analytically  !
 ! A15   A(3,4,6)              113.989          calculate D2E/DX2 analytically  !
 ! A16   A(5,4,6)              122.8912         calculate D2E/DX2 analytically  !
 ! A17   A(4,6,7)              122.7815         calculate D2E/DX2 analytically  !
 ! A18   A(4,6,11)             118.8409         calculate D2E/DX2 analytically  !
 ! A19   A(7,6,11)             118.3776         calculate D2E/DX2 analytically  !
 ! A20   A(6,7,8)              119.1705         calculate D2E/DX2 analytically  !
 ! A21   A(6,7,18)             119.6564         calculate D2E/DX2 analytically  !
 ! A22   A(8,7,18)             121.173          calculate D2E/DX2 analytically  !
 ! A23   A(7,8,9)              122.5616         calculate D2E/DX2 analytically  !
 ! A24   A(7,8,19)             120.6903         calculate D2E/DX2 analytically  !
 ! A25   A(9,8,19)             116.7481         calculate D2E/DX2 analytically  !
 ! A26   A(8,9,10)             119.0242         calculate D2E/DX2 analytically  !
 ! A27   A(9,10,11)            123.4937         calculate D2E/DX2 analytically  !
 ! A28   A(9,10,20)            118.4229         calculate D2E/DX2 analytically  !
 ! A29   A(11,10,20)           118.0834         calculate D2E/DX2 analytically  !
 ! A30   A(6,11,10)            117.3725         calculate D2E/DX2 analytically  !
 ! A31   A(6,11,12)            123.9932         calculate D2E/DX2 analytically  !
 ! A32   A(10,11,12)           118.6343         calculate D2E/DX2 analytically  !
 ! A33   A(11,12,21)           107.5842         calculate D2E/DX2 analytically  !
 ! D1    D(13,1,2,3)            56.0254         calculate D2E/DX2 analytically  !
 ! D2    D(13,1,2,16)          177.813          calculate D2E/DX2 analytically  !
 ! D3    D(13,1,2,17)          -60.3051         calculate D2E/DX2 analytically  !
 ! D4    D(14,1,2,3)           175.5496         calculate D2E/DX2 analytically  !
 ! D5    D(14,1,2,16)          -62.6627         calculate D2E/DX2 analytically  !
 ! D6    D(14,1,2,17)           59.2192         calculate D2E/DX2 analytically  !
 ! D7    D(15,1,2,3)           -65.1685         calculate D2E/DX2 analytically  !
 ! D8    D(15,1,2,16)           56.6192         calculate D2E/DX2 analytically  !
 ! D9    D(15,1,2,17)          178.5011         calculate D2E/DX2 analytically  !
 ! D10   D(1,2,3,4)             82.843          calculate D2E/DX2 analytically  !
 ! D11   D(16,2,3,4)           -40.2553         calculate D2E/DX2 analytically  !
 ! D12   D(17,2,3,4)          -156.6046         calculate D2E/DX2 analytically  !
 ! D13   D(2,3,4,5)              0.9265         calculate D2E/DX2 analytically  !
 ! D14   D(2,3,4,6)           -179.2448         calculate D2E/DX2 analytically  !
 ! D15   D(3,4,6,7)              0.2872         calculate D2E/DX2 analytically  !
 ! D16   D(3,4,6,11)          -179.8016         calculate D2E/DX2 analytically  !
 ! D17   D(5,4,6,7)           -179.8836         calculate D2E/DX2 analytically  !
 ! D18   D(5,4,6,11)             0.0276         calculate D2E/DX2 analytically  !
 ! D19   D(4,6,7,8)            179.9036         calculate D2E/DX2 analytically  !
 ! D20   D(4,6,7,18)            -0.0666         calculate D2E/DX2 analytically  !
 ! D21   D(11,6,7,8)            -0.008          calculate D2E/DX2 analytically  !
 ! D22   D(11,6,7,18)         -179.9782         calculate D2E/DX2 analytically  !
 ! D23   D(4,6,11,10)         -179.8984         calculate D2E/DX2 analytically  !
 ! D24   D(4,6,11,12)            0.093          calculate D2E/DX2 analytically  !
 ! D25   D(7,6,11,10)            0.0167         calculate D2E/DX2 analytically  !
 ! D26   D(7,6,11,12)         -179.9919         calculate D2E/DX2 analytically  !
 ! D27   D(6,7,8,9)             -0.0053         calculate D2E/DX2 analytically  !
 ! D28   D(6,7,8,19)           179.9974         calculate D2E/DX2 analytically  !
 ! D29   D(18,7,8,9)           179.9644         calculate D2E/DX2 analytically  !
 ! D30   D(18,7,8,19)           -0.0329         calculate D2E/DX2 analytically  !
 ! D31   D(7,8,9,10)             0.0091         calculate D2E/DX2 analytically  !
 ! D32   D(19,8,9,10)         -179.9935         calculate D2E/DX2 analytically  !
 ! D33   D(8,9,10,11)            0.0008         calculate D2E/DX2 analytically  !
 ! D34   D(8,9,10,20)         -179.9889         calculate D2E/DX2 analytically  !
 ! D35   D(9,10,11,6)           -0.0137         calculate D2E/DX2 analytically  !
 ! D36   D(9,10,11,12)         179.9943         calculate D2E/DX2 analytically  !
 ! D37   D(20,10,11,6)         179.976          calculate D2E/DX2 analytically  !
 ! D38   D(20,10,11,12)         -0.0159         calculate D2E/DX2 analytically  !
 ! D39   D(6,11,12,21)           0.0159         calculate D2E/DX2 analytically  !
 ! D40   D(10,11,12,21)       -179.9928         calculate D2E/DX2 analytically  !
 --------------------------------------------------------------------------------
 Trust Radius=3.00D-01 FncErr=1.00D-07 GrdErr=1.00D-07 EigMax=2.50D+02 EigMin=1.00D-04
 Number of steps in this run=      2 maximum allowed number of steps=      2.
 GradGradGradGradGradGradGradGradGradGradGradGradGradGradGradGradGradGrad

                          Input orientation:                          
 ---------------------------------------------------------------------
 Center     Atomic      Atomic             Coordinates (Angstroms)
 Number     Number       Type             X           Y           Z
 ---------------------------------------------------------------------
      1          6           0        3.753030   -0.253270    0.874320
      2          6           0        3.107070   -0.480350   -0.477060
      3          8           0        1.706000   -0.756940   -0.352020
      4          6           0        0.877380    0.267700   -0.233180
      5          8           0        1.248730    1.429770   -0.241800
      6          6           0       -0.542770   -0.120620   -0.092610
      7          6           0       -0.966930   -1.457570   -0.080610
      8          6           0       -2.316350   -1.736360    0.057220
      9          7           0       -3.241960   -0.776030    0.180740
     10          6           0       -2.859880    0.485500    0.171290
     11          6           0       -1.514150    0.891050    0.036830
     12          8           0       -1.237800    2.189020    0.039540
     13          1           0        3.583100   -1.112470    1.538900
     14          1           0        4.837700   -0.123450    0.748010
     15          1           0        3.353420    0.652380    1.350890
     16          1           0        3.240620    0.391720   -1.132620
     17          1           0        3.517710   -1.368240   -0.974640
     18          1           0       -0.232570   -2.257430   -0.178980
     19          1           0       -2.674480   -2.769810    0.069700
     20          1           0       -3.624870    1.262670    0.273150
     21          1           0       -0.266910    2.285530   -0.062480
 ---------------------------------------------------------------------
                    Distance matrix (angstroms):
                    1          2          3          4          5
     1  C    0.000000
     2  C    1.514945   0.000000
     3  O    2.438837   1.433574   0.000000
     4  C    3.125273   2.364439   1.323110   0.000000
     5  O    3.217121   2.675319   2.236726   1.219993   0.000000
     6  C    4.405275   3.687620   2.351417   1.478979   2.373908
     7  C    4.963895   4.208278   2.776527   2.530082   3.643057
     8  C    6.301157   5.592540   4.160053   3.781600   4.777404
     9  N    7.048703   6.389860   4.976596   4.269621   5.020995
    10  C    6.691084   6.079286   4.760753   3.765388   4.235914
    11  C    5.454727   4.847731   3.638192   2.486139   2.828667
    12  O    5.618721   5.125457   4.183056   2.870511   2.615042
    13  H    1.099440   2.165704   2.688026   3.516541   3.883704
    14  H    1.099689   2.150175   3.379189   4.098764   4.033971
    15  H    1.098640   2.164525   2.756824   2.964461   2.751494
    16  H    2.169420   1.099136   2.069738   2.531655   2.416347
    17  H    2.171909   1.097524   2.010880   3.193338   3.676164
    18  H    4.583787   3.794741   2.457533   2.758842   3.974121
    19  H    6.949336   6.242347   4.839225   4.683366   5.755439
    20  H    7.555984   6.994280   5.734792   4.638598   4.903578
    21  H    4.845928   4.382432   3.637696   2.325979   1.749756
                    6          7          8          9         10
     6  C    0.000000
     7  C    1.402673   0.000000
     8  C    2.403882   1.384794   0.000000
     9  N    2.791041   2.389260   1.339494   0.000000
    10  C    2.409569   2.724378   2.290218   1.318155   0.000000
    11  C    1.408478   2.414386   2.747221   2.405243   1.411928
    12  O    2.415568   3.658610   4.070896   3.581636   2.355946
    13  H    4.546251   4.841971   6.114583   6.967010   6.777600
    14  H    5.445742   6.013337   7.366078   8.125796   7.743137
    15  H    4.226289   5.016623   6.286967   6.848989   6.326484
    16  H    3.957038   4.714878   6.068308   6.716576   6.238996
    17  H    4.338436   4.573758   5.936034   6.883223   6.739671
    18  H    2.160935   1.090292   2.160890   3.373481   3.814330
    19  H    3.404224   2.158771   1.093815   2.075939   3.262168
    20  H    3.398031   3.819620   3.279181   2.076405   1.095253
    21  H    2.422099   3.808038   4.515543   4.275889   3.165162
[...]
 Alpha virt. eigenvalues --    0.36925   0.37496   0.39197   0.39537   0.40029
 Alpha virt. eigenvalues --    0.41012   0.42332   0.42682   0.43767   0.44652
 Alpha virt. eigenvalues --    0.45320   0.45847   0.47003   0.47385   0.47882
 Alpha virt. eigenvalues --    0.49326   0.50023   0.50379   0.50940   0.51488
 Alpha virt. eigenvalues --    0.52754   0.53120   0.53928   0.54579   0.57552
 Alpha virt. eigenvalues --    0.57640   0.58802   0.58980   0.59636   0.61520
 Alpha virt. eigenvalues --    0.62015   0.63344   0.63856   0.64606   0.65964
 Alpha virt. eigenvalues --    0.67530   0.68273   0.69779   0.71155   0.71449
 Alpha virt. eigenvalues --    0.72683   0.73439   0.74819   0.75896   0.77316
 Alpha virt. eigenvalues --    0.77840   0.79763   0.82354   0.82815   0.83288
 Alpha virt. eigenvalues --    0.84457   0.84907   0.86705   0.88356   0.89531
 Alpha virt. eigenvalues --    0.90922   0.91816   0.92769   0.93485   0.95763
 Alpha virt. eigenvalues --    0.96288   0.97307   0.99377   1.01186   1.02332
 Alpha virt. eigenvalues --    1.02734   1.05677   1.09310   1.10783   1.11386
 Alpha virt. eigenvalues --    1.13230   1.15929   1.17242   1.17561   1.18373
 Alpha virt. eigenvalues --    1.21999   1.24005   1.24268   1.25617   1.28413
 Alpha virt. eigenvalues --    1.29574   1.31636   1.33311   1.34774   1.38227
 Alpha virt. eigenvalues --    1.39559   1.41675   1.43316   1.45083   1.47269
 Alpha virt. eigenvalues --    1.47575   1.50060   1.51012   1.53375   1.55122
 Alpha virt. eigenvalues --    1.56240   1.57758   1.58203   1.59002   1.60127
 Alpha virt. eigenvalues --    1.60768   1.62048   1.62604   1.64056   1.64314
 Alpha virt. eigenvalues --    1.65748   1.67913   1.68752   1.72453   1.73927
 Alpha virt. eigenvalues --    1.76157   1.76873   1.77979   1.78820   1.81498
 Alpha virt. eigenvalues --    1.82820   1.84990   1.86492   1.87481   1.87577
 Alpha virt. eigenvalues --    1.87991   1.90394   1.91124   1.94420   1.96303
 Alpha virt. eigenvalues --    1.96914   1.98580   2.01015   2.01711   2.03264
 Alpha virt. eigenvalues --    2.04955   2.07128   2.07797   2.08834   2.10169
 Alpha virt. eigenvalues --    2.13372   2.13881   2.16454   2.17757   2.18496
 Alpha virt. eigenvalues --    2.22361   2.23814   2.27862   2.28381   2.28828
 Alpha virt. eigenvalues --    2.32053   2.34147   2.35311   2.37440   2.39067
 Alpha virt. eigenvalues --    2.39301   2.40847   2.43480   2.43861   2.45130
 Alpha virt. eigenvalues --    2.47244   2.48088   2.48398   2.51545   2.52632
 Alpha virt. eigenvalues --    2.54178   2.55754   2.57649   2.58197   2.60756
 Alpha virt. eigenvalues --    2.61872   2.64314   2.65111   2.65990   2.67960
 Alpha virt. eigenvalues --    2.68725   2.70756   2.71152   2.72972   2.73375
 Alpha virt. eigenvalues --    2.74260   2.75700   2.79235   2.82872   2.84708
 Alpha virt. eigenvalues --    2.85335   2.87328   2.87783   2.88388   2.89879
 Alpha virt. eigenvalues --    2.91902   2.92724   2.95968   2.96080   2.98595
 Alpha virt. eigenvalues --    2.99195   2.99798   3.02018   3.04541   3.04670
 Alpha virt. eigenvalues --    3.06895   3.07040   3.07949   3.08684   3.10655
 Alpha virt. eigenvalues --    3.12148   3.13197   3.14765   3.15807   3.16967
 Alpha virt. eigenvalues --    3.18472   3.19265   3.20879   3.21950   3.22734
 Alpha virt. eigenvalues --    3.24978   3.27685   3.27773   3.29069   3.29893
 Alpha virt. eigenvalues --    3.32395   3.33037   3.34554   3.34908   3.36641
 Alpha virt. eigenvalues --    3.36723   3.39100   3.39798   3.40754   3.42692
 Alpha virt. eigenvalues --    3.43524   3.44302   3.45402   3.46573   3.47506
 Alpha virt. eigenvalues --    3.49750   3.51080   3.51866   3.53511   3.53672
 Alpha virt. eigenvalues --    3.54522   3.55707   3.58445   3.59702   3.61314
 Alpha virt. eigenvalues --    3.63562   3.64807   3.68526   3.69263   3.72831
 Alpha virt. eigenvalues --    3.74947   3.76412   3.82525   3.84323   3.87061
 Alpha virt. eigenvalues --    3.90407   3.91554   3.94023   3.95941   3.99493
 Alpha virt. eigenvalues --    4.01006   4.04160   4.04733   4.08892   4.13714
 Alpha virt. eigenvalues --    4.14374   4.15566   4.17862   4.20996   4.24368
 Alpha virt. eigenvalues --    4.28619   4.28822   4.30544   4.34336   4.38655
 Alpha virt. eigenvalues --    4.38848   4.42823   4.44404   4.47449   4.48430
 Alpha virt. eigenvalues --    4.51038   4.51761   4.54295   4.58920   4.59275
 Alpha virt. eigenvalues --    4.60753   4.65852   4.67345   4.74898   4.79733
 Alpha virt. eigenvalues --    4.83132   4.86707   4.90398   4.92997   4.94053
 Alpha virt. eigenvalues --    4.98768   5.11829   5.15369   5.16406   5.20794
 Alpha virt. eigenvalues --    5.21810   5.25133   5.32191   5.32433   5.33960
 Alpha virt. eigenvalues --    5.35881   5.40440   5.44088   5.48085   5.55147
 Alpha virt. eigenvalues --    5.56000   5.58209   5.60568   5.68620   5.72020
 Alpha virt. eigenvalues --    5.75940   5.77682   5.85377   5.94517   5.95087
 Alpha virt. eigenvalues --    6.03100   6.09145   6.16230   6.21003   6.24645
 Alpha virt. eigenvalues --    6.29094   6.41764   6.43352   6.49058   6.53358
 Alpha virt. eigenvalues --    6.62130   6.72397   6.75776   6.81984   6.82395
 Alpha virt. eigenvalues --    6.85971   6.91415   7.01237   7.06086   7.10125
 Alpha virt. eigenvalues --    7.16893   7.24719   7.35072   7.53484   7.55357
 Alpha virt. eigenvalues --   22.39941  22.53611  22.57257  22.82638  22.93129
 Alpha virt. eigenvalues --   22.98364  23.34968  23.62642  32.51730  43.99643
 Alpha virt. eigenvalues --   44.10566  44.35993
          Condensed to atoms (all electrons):
               1          2          3          4          5          6
     1  C    4.953137   0.322275  -0.038041   0.003819  -0.009381  -0.000206
     2  C    0.322275   4.795232   0.212635  -0.037212   0.004176   0.004322
     3  O   -0.038041   0.212635   7.918301   0.400801  -0.071892  -0.139088
     4  C    0.003819  -0.037212   0.400801   4.502370   0.501809   0.301753
     5  O   -0.009381   0.004176  -0.071892   0.501809   8.066364  -0.089268
     6  C   -0.000206   0.004322  -0.139088   0.301753  -0.089268   5.579887
     7  C    0.000446  -0.001678   0.035244  -0.059941   0.006118   0.374364
     8  C   -0.000002  -0.000052   0.000574   0.003616  -0.000237  -0.026247
     9  N    0.000001  -0.000006   0.000041  -0.001668   0.000027  -0.054276
    10  C    0.000010  -0.000052   0.000099  -0.001144   0.003772  -0.023787
    11  C   -0.000109  -0.000143  -0.002652  -0.064741   0.023015   0.324910
    12  O   -0.000041   0.000221  -0.000441  -0.001835  -0.044658  -0.097570
    13  H    0.397774  -0.029854   0.002974  -0.002506   0.000421  -0.001474
    14  H    0.399842  -0.032931   0.003994   0.000571   0.000167  -0.000023
    15  H    0.418376  -0.039682  -0.002472   0.002955   0.004675   0.002997
    16  H   -0.042867   0.424443  -0.030875  -0.013668   0.010877  -0.002165
    17  H   -0.028294   0.399214  -0.032241   0.002622   0.000694   0.003710
    18  H    0.000015  -0.000401   0.013344  -0.010450   0.000331  -0.048323
    19  H    0.000000  -0.000003  -0.000093  -0.000286   0.000003   0.005362
    20  H    0.000000  -0.000002   0.000007  -0.000459   0.000047   0.008213
    21  H   -0.000042   0.000177   0.000380  -0.008593   0.048053  -0.018138
               7          8          9         10         11         12
     1  C    0.000446  -0.000002   0.000001   0.000010  -0.000109  -0.000041
     2  C   -0.001678  -0.000052  -0.000006  -0.000052  -0.000143   0.000221
     3  O    0.035244   0.000574   0.000041   0.000099  -0.002652  -0.000441
     4  C   -0.059941   0.003616  -0.001668  -0.001144  -0.064741  -0.001835
     5  O    0.006118  -0.000237   0.000027   0.003772   0.023015  -0.044658
     6  C    0.374364  -0.026247  -0.054276  -0.023787   0.324910  -0.097570
     7  C    5.039300   0.506240  -0.045364  -0.026283  -0.036948   0.007158
     8  C    0.506240   4.784915   0.488527  -0.109567  -0.016381  -0.000881
     9  N   -0.045364   0.488527   6.410395   0.537495  -0.044458   0.003494
    10  C   -0.026283  -0.109567   0.537495   4.850547   0.471576  -0.054652
    11  C   -0.036948  -0.016381  -0.044458   0.471576   4.799122   0.391744
    12  O    0.007158  -0.000881   0.003494  -0.054652   0.391744   7.892830
    13  H    0.000252   0.000014   0.000000  -0.000002  -0.000037   0.000001
    14  H   -0.000009  -0.000000   0.000000   0.000000   0.000002   0.000000
    15  H   -0.000215   0.000003  -0.000000  -0.000003   0.000030   0.000011
    16  H    0.000737   0.000013  -0.000000  -0.000006  -0.000365   0.000006
    17  H   -0.000833  -0.000017  -0.000000  -0.000003   0.000101   0.000002
    18  H    0.413992  -0.033199   0.007046  -0.001191   0.006034  -0.000028
    19  H   -0.071738   0.440572  -0.030833   0.004162   0.000126   0.000015
    20  H    0.000491   0.002345  -0.025699   0.433104  -0.080857   0.006994
    21  H   -0.001086   0.000230  -0.000578   0.004574  -0.011601   0.302638
              13         14         15         16         17         18
     1  C    0.397774   0.399842   0.418376  -0.042867  -0.028294   0.000015
     2  C   -0.029854  -0.032931  -0.039682   0.424443   0.399214  -0.000401
     3  O    0.002974   0.003994  -0.002472  -0.030875  -0.032241   0.013344
     4  C   -0.002506   0.000571   0.002955  -0.013668   0.002622  -0.010450
     5  O    0.000421   0.000167   0.004675   0.010877   0.000694   0.000331
     6  C   -0.001474  -0.000023   0.002997  -0.002165   0.003710  -0.048323
     7  C    0.000252  -0.000009  -0.000215   0.000737  -0.000833   0.413992
     8  C    0.000014  -0.000000   0.000003   0.000013  -0.000017  -0.033199
     9  N    0.000000   0.000000  -0.000000  -0.000000  -0.000000   0.007046
    10  C   -0.000002   0.000000  -0.000003  -0.000006  -0.000003  -0.001191
    11  C   -0.000037   0.000002   0.000030  -0.000365   0.000101   0.006034
    12  O    0.000001   0.000000   0.000011   0.000006   0.000002  -0.000028
    13  H    0.549757  -0.018168  -0.022976   0.006692  -0.005565   0.000097
    14  H   -0.018168   0.543269  -0.020010   0.000524  -0.002686  -0.000001
    15  H   -0.022976  -0.020010   0.508985  -0.005137   0.004651  -0.000011
    16  H    0.006692   0.000524  -0.005137   0.557150  -0.030065   0.000145
    17  H   -0.005565  -0.002686   0.004651  -0.030065   0.564346  -0.000195
    18  H    0.000097  -0.000001  -0.000011   0.000145  -0.000195   0.505695
    19  H   -0.000001  -0.000000   0.000000  -0.000001   0.000001  -0.001490
    20  H   -0.000000  -0.000000   0.000000  -0.000000   0.000000   0.000118
    21  H   -0.000002   0.000000   0.000070   0.000020   0.000005  -0.000071
              19         20         21
     1  C    0.000000   0.000000  -0.000042
     2  C   -0.000003  -0.000002   0.000177
     3  O   -0.000093   0.000007   0.000380
     4  C   -0.000286  -0.000459  -0.008593
     5  O    0.000003   0.000047   0.048053
     6  C    0.005362   0.008213  -0.018138
     7  C   -0.071738   0.000491  -0.001086
     8  C    0.440572   0.002345   0.000230
     9  N   -0.030833  -0.025699  -0.000578
    10  C    0.004162   0.433104   0.004574
    11  C    0.000126  -0.080857  -0.011601
    12  O    0.000015   0.006994   0.302638
    13  H   -0.000001  -0.000000  -0.000002
    14  H   -0.000000  -0.000000   0.000000
    15  H    0.000000   0.000000   0.000070
    16  H   -0.000001  -0.000000   0.000020
    17  H    0.000001   0.000000   0.000005
    18  H   -0.001490   0.000118  -0.000071
    19  H    0.524281  -0.000104  -0.000002
    20  H   -0.000104   0.515088  -0.000546
    21  H   -0.000002  -0.000546   0.326507
 Mulliken charges:
               1
     1  C   -0.376713
     2  C   -0.020679
     3  O   -0.270597
     4  C    0.482188
     5  O   -0.455115
     6  C   -0.104955
     7  C   -0.140246
     8  C   -0.040463
     9  N   -0.244144
    10  C   -0.088649
    11  C    0.241631
    12  O   -0.405008
    13  H    0.122603
    14  H    0.125456
    15  H    0.147756
    16  H    0.124543
    17  H    0.124555
    18  H    0.148542
    19  H    0.130029
    20  H    0.141261
    21  H    0.358007
 Sum of Mulliken charges =  -0.00000
 Mulliken charges with hydrogens summed into heavy atoms:
               1
     1  C    0.019102
     2  C    0.228419
     3  O   -0.270597
     4  C    0.482188
     5  O   -0.455115
     6  C   -0.104955
     7  C    0.008296
     8  C    0.089566
     9  N   -0.244144
    10  C    0.052612
    11  C    0.241631
    12  O   -0.047002
 Electronic spatial extent (au):  <R**2>=           2309.7071
 Charge=             -0.0000 electrons
 Dipole moment (field-independent basis, Debye):
    X=              3.9574    Y=             -1.6103    Z=             -0.2442  Tot=              4.2795
 Quadrupole moment (field-independent basis, Debye-Ang):
   XX=            -69.1236   YY=            -69.8346   ZZ=            -70.0281
   XY=             -3.4687   XZ=             -0.0223   YZ=              0.5889
 Traceless Quadrupole moment (field-independent basis, Debye-Ang):
   XX=              0.5385   YY=             -0.1725   ZZ=             -0.3660
   XY=             -3.4687   XZ=             -0.0223   YZ=              0.5889
 Octapole moment (field-independent basis, Debye-Ang**2):
  XXX=             85.9512  YYY=             -9.3380  ZZZ=             -3.0320  XYY=              2.0899
  XXY=              7.8156  XXZ=             -4.9738  XZZ=              9.3780  YZZ=              5.0945
  YYZ=             -0.8106  XYZ=              0.0132
 Hexadecapole moment (field-independent basis, Debye-Ang**3):
 XXXX=          -2282.3581 YYYY=           -604.1604 ZZZZ=           -144.1877 XXXY=           -100.5217
 XXXZ=             -9.1749 YYYX=             22.5529 YYYZ=              0.9043 ZZZX=             -5.9969
 ZZZY=             -0.6693 XXYY=           -480.4195 XXZZ=           -408.2003 YYZZ=           -131.6157
 XXYZ=              9.2455 YYXZ=             -1.3812 ZZXY=             -7.1420
 N-N= 6.914485338249D+02 E-N=-2.763346494240D+03  KE= 5.879332861354D+02
 Breneman (CHELPG) radii used.
 Read replacement radii for each type of atom:
 Atom Element Radius
    1     6    1.50
    2     6    1.50
    3     8    1.70
    4     6    1.50
    5     8    1.70
    6     6    1.50
    7     6    1.50
    8     6    1.50
    9     7    1.70
   10     6    1.50
   11     6    1.50
   12     8    1.70
   13     1    1.45
   14     1    1.45
   15     1    1.45
   16     1    1.45
   17     1    1.45
   18     1    1.45
   19     1    1.45
   20     1    1.45
   21     1    1.45
 Generate Potential Derived Charges using the Breneman model, NDens= 1.
 Grid spacing= 0.300 Box extension= 2.800
 NStep X,Y,Z=   48     37     29   Total possible points=       51504
 Number of Points to Fit=   13750

 **********************************************************************

            Electrostatic Properties Using The SCF Density.

 **********************************************************************

       Atomic Center    1 is at   3.753032 -0.253267  0.874319
       Atomic Center    2 is at   3.107072 -0.480348 -0.477061
       Atomic Center    3 is at   1.706002 -0.756939 -0.352021
       Atomic Center    4 is at   0.877382  0.267701 -0.233181
       Atomic Center    5 is at   1.248731  1.429771 -0.241801
       Atomic Center    6 is at  -0.542768 -0.120620 -0.092611
       Atomic Center    7 is at  -0.966927 -1.457570 -0.080611
       Atomic Center    8 is at  -2.316347 -1.736361  0.057219
       Atomic Center    9 is at  -3.241958 -0.776032  0.180739
       Atomic Center   10 is at  -2.859878  0.485499  0.171289
       Atomic Center   11 is at  -1.514149  0.891049  0.036829
       Atomic Center   12 is at  -1.237799  2.189020  0.039539
       Atomic Center   13 is at   3.583102 -1.112468  1.538899
       Atomic Center   14 is at   4.837702 -0.123447  0.748009
       Atomic Center   15 is at   3.353421  0.652382  1.350889
       Atomic Center   16 is at   3.240622  0.391722 -1.132621
       Atomic Center   17 is at   3.517713 -1.368238 -0.974641
       Atomic Center   18 is at  -0.232567 -2.257430 -0.178981
       Atomic Center   19 is at  -2.674477 -2.769811  0.069699
       Atomic Center   20 is at  -3.624869  1.262668  0.273149
       Atomic Center   21 is at  -0.266910  2.285530 -0.062481
   13750 points will be used for fitting atomic charges
 Fitting point charges to electrostatic potential
 Charges from ESP fit, RMS=   0.00309 RRMS=   0.22040:
 ESP charges:
               1
     1  C   -0.186180
     2  C    0.258337
     3  O   -0.339069
     4  C    0.583906
     5  O   -0.491645
     6  C   -0.029259
     7  C   -0.284912
     8  C    0.308057
     9  N   -0.573586
    10  C    0.289690
    11  C    0.165172
    12  O   -0.543677
    13  H    0.058905
    14  H    0.052630
    15  H    0.064866
    16  H    0.009669
    17  H    0.023500
    18  H    0.117774
    19  H    0.037275
    20  H    0.059674
    21  H    0.418873
 Sum of ESP charges =   0.00000
 ESP charges with hydrogens summed into heavy atoms:
               1
     1  C   -0.009779
     2  C    0.291506
     3  O   -0.339069
     4  C    0.583906
     5  O   -0.491645
     6  C   -0.029259
     7  C   -0.167138
     8  C    0.345332
     9  N   -0.573586
    10  C    0.349364
    11  C    0.165172
    12  O   -0.124804
 Charge=   0.00000 Dipole=     3.8310    -1.6075    -0.2626 Tot=     4.1629
 -----------------------------------------------------------------

              Electrostatic Properties (Atomic Units)

 -----------------------------------------------------------------
    Center     Electric         -------- Electric Field --------
               Potential          X             Y             Z
 -----------------------------------------------------------------
    1 Atom    -14.758328
    2 Atom    -14.691877
    3 Atom    -22.290903
    4 Atom    -14.614505
    5 Atom    -22.351749
    6 Atom    -14.733674
    7 Atom    -14.747232
    8 Atom    -14.737609
    9 Atom    -18.389102
   10 Atom    -14.734227
   11 Atom    -14.683974
   12 Atom    -22.324852
   13 Atom     -1.102883
   14 Atom     -1.096480
   15 Atom     -1.104787
   16 Atom     -1.095019
   17 Atom     -1.093495
   18 Atom     -1.084571
   19 Atom     -1.104254
   20 Atom     -1.100014
   21 Atom     -0.975463
 -----------------------------------------------------------------
 Unable to Open any file for archive entry.
 1\1\GINC-NOTCH346\SP\RwB97XD\def2TZVP\C8H9N1O3\U6053008\12-Jul-2024\0\
 \#N Guess=Read Geom=Check Integral(Ultrafine) Density Pop=(ChelpG,Read
 Radii) NMR wB97XD def2TZVP\\12326192_1\\0,1\C,0,3.75303,-0.25327,0.874
 32\C,0,3.10707,-0.48035,-0.47706\O,0,1.706,-0.75694,-0.35202\C,0,0.877
 38,0.2677,-0.23318\O,0,1.24873,1.42977,-0.2418\C,0,-0.54277,-0.12062,-
 0.09261\C,0,-0.96693,-1.45757,-0.08061\C,0,-2.31635,-1.73636,0.05722\N
 ,0,-3.24196,-0.77603,0.18074\C,0,-2.85988,0.4855,0.17129\C,0,-1.51415,
 0.89105,0.03683\O,0,-1.2378,2.18902,0.03954\H,0,3.5831,-1.11247,1.5389
 \H,0,4.8377,-0.12345,0.74801\H,0,3.35342,0.65238,1.35089\H,0,3.24062,0
 .39172,-1.13262\H,0,3.51771,-1.36824,-0.97464\H,0,-0.23257,-2.25743,-0
 .17898\H,0,-2.67448,-2.76981,0.0697\H,0,-3.62487,1.26267,0.27315\H,0,-
 0.26691,2.28553,-0.06248\\Version=ES64L-G16RevC.01\State=1-A\HF=-590.7
 434563\RMSD=3.556e-09\Dipole=1.5569655,-0.6335506,-0.0960918\Quadrupol
 e=0.4003705,-0.1282639,-0.2721066,-2.5788691,-0.0165458,0.4378223\PG=C
 01 [X(C8H9N1O3)]\\@
 The archive entry for this job was punched.


 NO HUMAN INVESTIGATION CAN BECOME REAL SCIENCE
 WITHOUT GOING THROUGH MATHEMATICAL PEOPLE.
 -- LEONARDO DA VINCI, IN "PENSIERI" CA. 1492
 Job cpu time:       0 days  0 hours 44 minutes 18.6 seconds.
 Elapsed time:       0 days  0 hours  2 minutes 53.7 seconds.
 File lengths (MBytes):  RWF=    119 Int=      0 D2E=      0 Chk=     18 Scr=      2
 Normal termination of Gaussian 16 at Fri Jul 12 13:19:36 2024.
