 Entering Gaussian System, Link 0=g16
 Input=12358222_3.com
 Output=12358222_3.log
 Initial command:
 /uufs/chpc.utah.edu/sys/installdir/gaussian16/C01/AVX/g16/l1.exe "/scratch/general/vast/u6053008/1287160-notchpeak.peaks/Gau-721192.inp" -scrdir="/scratch/general/vast/u6053008/1287160-notchpeak.peaks/"
 Entering Link 1 = /uufs/chpc.utah.edu/sys/installdir/gaussian16/C01/AVX/g16/l1.exe PID=    721194.
  
 Copyright (c) 1988-2019, Gaussian, Inc.  All Rights Reserved.
  
 This is part of the Gaussian(R) 16 program.  It is based on
 the Gaussian(R) 09 system (copyright 2009, Gaussian, Inc.),
 the Gaussian(R) 03 system (copyright 2003, Gaussian, Inc.),
 the Gaussian(R) 98 system (copyright 1998, Gaussian, Inc.),
 the Gaussian(R) 94 system (copyright 1995, Gaussian, Inc.),
 the Gaussian 92(TM) system (copyright 1992, Gaussian, Inc.),
 the Gaussian 90(TM) system (copyright 1990, Gaussian, Inc.),
 the Gaussian 88(TM) system (copyright 1988, Gaussian, Inc.),
 the Gaussian 86(TM) system (copyright 1986, Carnegie Mellon
 University), and the Gaussian 82(TM) system (copyright 1983,
 Carnegie Mellon University). Gaussian is a federally registered
 trademark of Gaussian, Inc.
  
 This software contains proprietary and confidential information,
 including trade secrets, belonging to Gaussian, Inc.
  
 This software is provided under written license and may be
 used, copied, transmitted, or stored only in accord with that
 written license.
  
 The following legend is applicable only to US Government
 contracts under FAR:
  
                    RESTRICTED RIGHTS LEGEND
  
 Use, reproduction and disclosure by the US Government is
 subject to restrictions as set forth in subparagraphs (a)
 and (c) of the Commercial Computer Software - Restricted
 Rights clause in FAR 52.227-19.
  
 Gaussian, Inc.
 340 Quinnipiac St., Bldg. 40, Wallingford CT 06492
  
  
 ---------------------------------------------------------------
 Warning -- This program may not be used in any manner that
 competes with the business of Gaussian, Inc. or will provide
 assistance to any competitor of Gaussian, Inc.  The licensee
 of this program is prohibited from giving any competitor of
 Gaussian, Inc. access to this program.  By using this program,
 the user acknowledges that Gaussian, Inc. is engaged in the
 business of creating and licensing software in the field of
 computational chemistry and represents and warrants to the
 licensee that it is not a competitor of Gaussian, Inc. and that
 it will not use this program in any manner prohibited above.
 ---------------------------------------------------------------
  

 Cite this work as:
 Gaussian 16, Revision C.01,
 M. J. Frisch, G. W. Trucks, H. B. Schlegel, G. E. Scuseria, 
 M. A. Robb, J. R. Cheeseman, G. Scalmani, V. Barone, 
 G. A. Petersson, H. Nakatsuji, X. Li, M. Caricato, A. V. Marenich, 
 J. Bloino, B. G. Janesko, R. Gomperts, B. Mennucci, H. P. Hratchian, 
 J. V. Ortiz, A. F. Izmaylov, J. L. Sonnenberg, D. Williams-Young, 
 F. Ding, F. Lipparini, F. Egidi, J. Goings, B. Peng, A. Petrone, 
 T. Henderson, D. Ranasinghe, V. G. Zakrzewski, J. Gao, N. Rega, 
 G. Zheng, W. Liang, M. Hada, M. Ehara, K. Toyota, R. Fukuda, 
 J. Hasegawa, M. Ishida, T. Nakajima, Y. Honda, O. Kitao, H. Nakai, 
 T. Vreven, K. Throssell, J. A. Montgomery, Jr., J. E. Peralta, 
 F. Ogliaro, M. J. Bearpark, J. J. Heyd, E. N. Brothers, K. N. Kudin, 
 V. N. Staroverov, T. A. Keith, R. Kobayashi, J. Normand, 
 K. Raghavachari, A. P. Rendell, J. C. Burant, S. S. Iyengar, 
 J. Tomasi, M. Cossi, J. M. Millam, M. Klene, C. Adamo, R. Cammi, 
 J. W. Ochterski, R. L. Martin, K. Morokuma, O. Farkas, 
 J. B. Foresman, and D. J. Fox, Gaussian, Inc., Wallingford CT, 2019.
 
 ******************************************
 Gaussian 16:  ES64L-G16RevC.01  3-Jul-2019
                12-Jul-2024 
 ******************************************
 %NProcShared=16
 Will use up to   16 processors via shared memory.
 %Mem=32GB
 %chk=12358222_3.chk
 ------------------------------------------------------
 #N OPT FREQ=NORAMAN Integral(Ultrafine) wB97XD def2SVP
 ------------------------------------------------------
 1/18=20,19=15,26=4,38=1/1,3;
 2/9=110,12=2,17=6,18=5,40=1/2;
 3/5=43,7=101,11=2,25=1,30=1,71=1,74=-58,75=-5/1,2,3;
 4//1;
 5/5=2,38=5/2;
 6/7=2,8=2,9=2,10=2,28=1/1;
 7//1,2,3,16;
 1/18=20,19=15,26=4/3(2);
 2/9=110/2;
 99//99;
 2/9=110/2;
 3/5=43,7=101,11=2,25=1,30=1,71=1,74=-58,75=-5/1,2,3;
 4/5=5,16=3,69=1/1;
 5/5=2,38=5/2;
 7//1,2,3,16;
 1/18=20,19=15,26=4/3(-5);
 2/9=110/2;
 6/7=2,8=2,9=2,10=2,19=2,28=1/1;
 99/9=1/99;
 ----------
 12358222_3
 ----------
 Symbolic Z-matrix:
 Charge =  0 Multiplicity = 1
 C                    -3.88685   0.33993   0.14034 
 C                    -2.41295   0.06597   0.01831 
 C                    -1.91608  -1.23435  -0.12523 
 N                    -0.62682  -1.51949  -0.25597 
 C                     0.26235  -0.52516  -0.25428 
 C                    -0.10563   0.81633  -0.07555 
 C                    -1.46787   1.09191   0.05021 
 C                     0.93832   1.9063   -0.00355 
 C                     2.3091    1.35667   0.38448 
 C                     2.67933   0.19038  -0.52597 
 C                     1.71105  -0.97305  -0.36081 
 O                     2.06174  -1.68581   0.80548 
 H                    -4.26351   0.8775   -0.74399 
 H                    -4.10511   0.96296   1.02079 
 H                    -4.46065  -0.5927    0.23409 
 H                    -2.60877  -2.08476  -0.12935 
 H                    -1.79509   2.12759   0.19124 
 H                     1.00829   2.4009   -0.98954 
 H                     0.60826   2.68238   0.70471 
 H                     3.06596   2.1531    0.32651 
 H                     2.28862   1.00133   1.42759 
 H                     3.69328  -0.17933  -0.31533 
 H                     2.6652    0.5229   -1.57803 
 H                     1.7807   -1.63718  -1.24411 
 H                     1.35202  -2.32143   0.9557 
 

 GradGradGradGradGradGradGradGradGradGradGradGradGradGradGradGradGradGrad
 Berny optimization.
 Initialization pass.
                           ----------------------------
                           !    Initial Parameters    !
                           ! (Angstroms and Degrees)  !
 --------------------------                            --------------------------
 ! Name  Definition              Value          Derivative Info.                !
 --------------------------------------------------------------------------------
 ! R1    R(1,2)                  1.5041         estimate D2E/DX2                !
 ! R2    R(1,13)                 1.1013         estimate D2E/DX2                !
 ! R3    R(1,14)                 1.1005         estimate D2E/DX2                !
 ! R4    R(1,15)                 1.099          estimate D2E/DX2                !
 ! R5    R(2,3)                  1.3994         estimate D2E/DX2                !
 ! R6    R(2,7)                  1.3953         estimate D2E/DX2                !
 ! R7    R(3,4)                  1.3269         estimate D2E/DX2                !
 ! R8    R(3,16)                 1.0968         estimate D2E/DX2                !
 ! R9    R(4,5)                  1.3339         estimate D2E/DX2                !
 ! R10   R(5,6)                  1.4025         estimate D2E/DX2                !
 ! R11   R(5,11)                 1.5201         estimate D2E/DX2                !
 ! R12   R(6,7)                  1.3955         estimate D2E/DX2                !
 ! R13   R(6,8)                  1.511          estimate D2E/DX2                !
 ! R14   R(7,17)                 1.0953         estimate D2E/DX2                !
 ! R15   R(8,9)                  1.527          estimate D2E/DX2                !
 ! R16   R(8,18)                 1.1053         estimate D2E/DX2                !
 ! R17   R(8,19)                 1.1013         estimate D2E/DX2                !
 ! R18   R(9,10)                 1.5252         estimate D2E/DX2                !
 ! R19   R(9,20)                 1.1002         estimate D2E/DX2                !
 ! R20   R(9,21)                 1.1022         estimate D2E/DX2                !
 ! R21   R(10,11)                1.5226         estimate D2E/DX2                !
 ! R22   R(10,22)                1.0996         estimate D2E/DX2                !
 ! R23   R(10,23)                1.1034         estimate D2E/DX2                !
 ! R24   R(11,12)                1.4111         estimate D2E/DX2                !
 ! R25   R(11,24)                1.1073         estimate D2E/DX2                !
 ! R26   R(12,25)                0.9645         estimate D2E/DX2                !
 ! A1    A(2,1,13)             111.0327         estimate D2E/DX2                !
 ! A2    A(2,1,14)             111.2468         estimate D2E/DX2                !
 ! A3    A(2,1,15)             111.3445         estimate D2E/DX2                !
 ! A4    A(13,1,14)            107.3532         estimate D2E/DX2                !
 ! A5    A(13,1,15)            107.7071         estimate D2E/DX2                !
 ! A6    A(14,1,15)            107.9774         estimate D2E/DX2                !
 ! A7    A(1,2,3)              121.7018         estimate D2E/DX2                !
 ! A8    A(1,2,7)              121.8681         estimate D2E/DX2                !
 ! A9    A(3,2,7)              116.4291         estimate D2E/DX2                !
 ! A10   A(2,3,4)              123.6958         estimate D2E/DX2                !
 ! A11   A(2,3,16)             119.7748         estimate D2E/DX2                !
 ! A12   A(4,3,16)             116.529          estimate D2E/DX2                !
 ! A13   A(3,4,5)              119.1685         estimate D2E/DX2                !
 ! A14   A(4,5,6)              122.566          estimate D2E/DX2                !
 ! A15   A(4,5,11)             114.5543         estimate D2E/DX2                !
 ! A16   A(6,5,11)             122.7394         estimate D2E/DX2                !
 ! A17   A(5,6,7)              117.1611         estimate D2E/DX2                !
 ! A18   A(5,6,8)              120.9835         estimate D2E/DX2                !
 ! A19   A(7,6,8)              121.8495         estimate D2E/DX2                !
 ! A20   A(2,7,6)              120.9263         estimate D2E/DX2                !
 ! A21   A(2,7,17)             119.728          estimate D2E/DX2                !
 ! A22   A(6,7,17)             119.3389         estimate D2E/DX2                !
 ! A23   A(6,8,9)              111.8815         estimate D2E/DX2                !
 ! A24   A(6,8,18)             108.9066         estimate D2E/DX2                !
 ! A25   A(6,8,19)             109.3854         estimate D2E/DX2                !
 ! A26   A(9,8,18)             109.3247         estimate D2E/DX2                !
 ! A27   A(9,8,19)             111.0551         estimate D2E/DX2                !
 ! A28   A(18,8,19)            106.1006         estimate D2E/DX2                !
 ! A29   A(8,9,10)             109.9659         estimate D2E/DX2                !
 ! A30   A(8,9,20)             110.0961         estimate D2E/DX2                !
 ! A31   A(8,9,21)             109.8686         estimate D2E/DX2                !
 ! A32   A(10,9,20)            110.7995         estimate D2E/DX2                !
 ! A33   A(10,9,21)            108.8403         estimate D2E/DX2                !
 ! A34   A(20,9,21)            107.2192         estimate D2E/DX2                !
 ! A35   A(9,10,11)            111.4181         estimate D2E/DX2                !
 ! A36   A(9,10,22)            111.5051         estimate D2E/DX2                !
 ! A37   A(9,10,23)            109.6089         estimate D2E/DX2                !
 ! A38   A(11,10,22)           107.9812         estimate D2E/DX2                !
 ! A39   A(11,10,23)           108.9977         estimate D2E/DX2                !
 ! A40   A(22,10,23)           107.2033         estimate D2E/DX2                !
 ! A41   A(5,11,10)            112.8626         estimate D2E/DX2                !
 ! A42   A(5,11,12)            109.1324         estimate D2E/DX2                !
 ! A43   A(5,11,24)            107.0118         estimate D2E/DX2                !
 ! A44   A(10,11,12)           108.5152         estimate D2E/DX2                !
 ! A45   A(10,11,24)           109.3751         estimate D2E/DX2                !
 ! A46   A(12,11,24)           109.9209         estimate D2E/DX2                !
 ! A47   A(11,12,25)           106.1841         estimate D2E/DX2                !
 ! D1    D(13,1,2,3)          -112.5104         estimate D2E/DX2                !
 ! D2    D(13,1,2,7)            67.8879         estimate D2E/DX2                !
 ! D3    D(14,1,2,3)           127.9936         estimate D2E/DX2                !
 ! D4    D(14,1,2,7)           -51.6082         estimate D2E/DX2                !
 ! D5    D(15,1,2,3)             7.4976         estimate D2E/DX2                !
 ! D6    D(15,1,2,7)          -172.1042         estimate D2E/DX2                !
 ! D7    D(1,2,3,4)            178.9607         estimate D2E/DX2                !
 ! D8    D(1,2,3,16)            -1.2887         estimate D2E/DX2                !
 ! D9    D(7,2,3,4)             -1.417          estimate D2E/DX2                !
 ! D10   D(7,2,3,16)           178.3337         estimate D2E/DX2                !
 ! D11   D(1,2,7,6)           -179.4805         estimate D2E/DX2                !
 ! D12   D(1,2,7,17)             1.4713         estimate D2E/DX2                !
 ! D13   D(3,2,7,6)              0.8979         estimate D2E/DX2                !
 ! D14   D(3,2,7,17)          -178.1503         estimate D2E/DX2                !
 ! D15   D(2,3,4,5)             -0.0654         estimate D2E/DX2                !
 ! D16   D(16,3,4,5)          -179.8235         estimate D2E/DX2                !
 ! D17   D(3,4,5,6)              2.1304         estimate D2E/DX2                !
 ! D18   D(3,4,5,11)           177.9323         estimate D2E/DX2                !
 ! D19   D(4,5,6,7)             -2.5457         estimate D2E/DX2                !
 ! D20   D(4,5,6,8)            176.5897         estimate D2E/DX2                !
 ! D21   D(11,5,6,7)          -178.0053         estimate D2E/DX2                !
 ! D22   D(11,5,6,8)             1.1301         estimate D2E/DX2                !
 ! D23   D(4,5,11,10)          173.0099         estimate D2E/DX2                !
 ! D24   D(4,5,11,12)          -66.256          estimate D2E/DX2                !
 ! D25   D(4,5,11,24)           52.6443         estimate D2E/DX2                !
 ! D26   D(6,5,11,10)          -11.1964         estimate D2E/DX2                !
 ! D27   D(6,5,11,12)          109.5377         estimate D2E/DX2                !
 ! D28   D(6,5,11,24)         -131.562          estimate D2E/DX2                !
 ! D29   D(5,6,7,2)              0.9446         estimate D2E/DX2                !
 ! D30   D(5,6,7,17)           179.9965         estimate D2E/DX2                !
 ! D31   D(8,6,7,2)           -178.1828         estimate D2E/DX2                !
 ! D32   D(8,6,7,17)             0.8691         estimate D2E/DX2                !
 ! D33   D(5,6,8,9)            -21.6753         estimate D2E/DX2                !
 ! D34   D(5,6,8,18)            99.2893         estimate D2E/DX2                !
 ! D35   D(5,6,8,19)          -145.1621         estimate D2E/DX2                !
 ! D36   D(7,6,8,9)            157.4191         estimate D2E/DX2                !
 ! D37   D(7,6,8,18)           -81.6163         estimate D2E/DX2                !
 ! D38   D(7,6,8,19)            33.9323         estimate D2E/DX2                !
 ! D39   D(6,8,9,10)            51.7797         estimate D2E/DX2                !
 ! D40   D(6,8,9,20)           174.1385         estimate D2E/DX2                !
 ! D41   D(6,8,9,21)           -67.9966         estimate D2E/DX2                !
 ! D42   D(18,8,9,10)          -68.9422         estimate D2E/DX2                !
 ! D43   D(18,8,9,20)           53.4166         estimate D2E/DX2                !
 ! D44   D(18,8,9,21)          171.2815         estimate D2E/DX2                !
 ! D45   D(19,8,9,10)          174.32           estimate D2E/DX2                !
 ! D46   D(19,8,9,20)          -63.3212         estimate D2E/DX2                !
 ! D47   D(19,8,9,21)           54.5437         estimate D2E/DX2                !
 ! D48   D(8,9,10,11)          -63.3132         estimate D2E/DX2                !
 ! D49   D(8,9,10,22)          175.9582         estimate D2E/DX2                !
 ! D50   D(8,9,10,23)           57.4142         estimate D2E/DX2                !
 ! D51   D(20,9,10,11)         174.7453         estimate D2E/DX2                !
 ! D52   D(20,9,10,22)          54.0167         estimate D2E/DX2                !
 ! D53   D(20,9,10,23)         -64.5274         estimate D2E/DX2                !
 ! D54   D(21,9,10,11)          57.0866         estimate D2E/DX2                !
 ! D55   D(21,9,10,22)         -63.642          estimate D2E/DX2                !
 ! D56   D(21,9,10,23)         177.8139         estimate D2E/DX2                !
 ! D57   D(9,10,11,5)           41.7107         estimate D2E/DX2                !
 ! D58   D(9,10,11,12)         -79.3749         estimate D2E/DX2                !
 ! D59   D(9,10,11,24)         160.7136         estimate D2E/DX2                !
 ! D60   D(22,10,11,5)         164.4835         estimate D2E/DX2                !
 ! D61   D(22,10,11,12)         43.3979         estimate D2E/DX2                !
 ! D62   D(22,10,11,24)        -76.5137         estimate D2E/DX2                !
 ! D63   D(23,10,11,5)         -79.3742         estimate D2E/DX2                !
 ! D64   D(23,10,11,12)        159.5402         estimate D2E/DX2                !
 ! D65   D(23,10,11,24)         39.6287         estimate D2E/DX2                !
 ! D66   D(5,11,12,25)          47.8086         estimate D2E/DX2                !
 ! D67   D(10,11,12,25)        171.1663         estimate D2E/DX2                !
 ! D68   D(24,11,12,25)        -69.2633         estimate D2E/DX2                !
 --------------------------------------------------------------------------------
 Trust Radius=3.00D-01 FncErr=1.00D-07 GrdErr=1.00D-06 EigMax=2.50D+02 EigMin=1.00D-04
 Number of steps in this run=    150 maximum allowed number of steps=    150.
 GradGradGradGradGradGradGradGradGradGradGradGradGradGradGradGradGradGrad

                          Input orientation:                          
 ---------------------------------------------------------------------
 Center     Atomic      Atomic             Coordinates (Angstroms)
 Number     Number       Type             X           Y           Z
 ---------------------------------------------------------------------
      1          6           0       -3.886850    0.339930    0.140340
      2          6           0       -2.412950    0.065970    0.018310
      3          6           0       -1.916080   -1.234350   -0.125230
      4          7           0       -0.626820   -1.519490   -0.255970
      5          6           0        0.262350   -0.525160   -0.254280
      6          6           0       -0.105630    0.816330   -0.075550
      7          6           0       -1.467870    1.091910    0.050210
      8          6           0        0.938320    1.906300   -0.003550
      9          6           0        2.309100    1.356670    0.384480
     10          6           0        2.679330    0.190380   -0.525970
     11          6           0        1.711050   -0.973050   -0.360810
     12          8           0        2.061740   -1.685810    0.805480
     13          1           0       -4.263510    0.877500   -0.743990
     14          1           0       -4.105110    0.962960    1.020790
     15          1           0       -4.460650   -0.592700    0.234090
     16          1           0       -2.608770   -2.084760   -0.129350
     17          1           0       -1.795090    2.127590    0.191240
     18          1           0        1.008290    2.400900   -0.989540
     19          1           0        0.608260    2.682380    0.704710
     20          1           0        3.065960    2.153100    0.326510
     21          1           0        2.288620    1.001330    1.427590
     22          1           0        3.693280   -0.179330   -0.315330
     23          1           0        2.665200    0.522900   -1.578030
     24          1           0        1.780700   -1.637180   -1.244110
     25          1           0        1.352020   -2.321430    0.955700
 ---------------------------------------------------------------------
                    Distance matrix (angstroms):
                    1          2          3          4          5
     1  C    0.000000
     2  C    1.504103   0.000000
     3  C    2.536300   1.399398   0.000000
     4  N    3.773897   2.403991   1.326872   0.000000
     5  C    4.256755   2.753356   2.294594   1.333911   0.000000
     6  C    3.817223   2.428081   2.735962   2.400051   1.402480
     7  C    2.534771   1.395259   2.375533   2.760529   2.387738
     8  C    5.075085   3.823389   4.245714   3.774840   2.536099
     9  C    6.283563   4.908945   4.982503   4.159579   2.852803
    10  C    6.601595   5.122796   4.827861   3.731914   2.535272
    11  C    5.771616   4.269739   3.644153   2.403170   1.520094
    12  O    6.319158   4.869417   4.110120   2.895288   2.389143
    13  H    1.101315   2.159689   3.217639   4.382835   4.763473
    14  H    1.100453   2.161704   3.306567   4.459952   4.786963
    15  H    1.099015   2.161824   2.648710   3.974588   4.748663
    16  H    2.754150   2.164668   1.096829   2.064870   3.269754
    17  H    2.752050   2.159151   3.378969   3.855651   3.386537
    18  H    5.430159   4.262927   4.744893   4.310588   3.107871
    19  H    5.100157   4.055176   4.733061   4.483753   3.365654
    20  H    7.187754   5.871078   6.041491   5.240594   3.920539
    21  H    6.342783   4.996572   5.008894   4.205793   3.043785
    22  H    7.611546   6.120256   5.710878   4.523584   3.448856
    23  H    6.776107   5.342723   5.117292   4.093482   2.936738
    24  H    6.160096   4.699056   3.883342   2.605077   2.126438
    25  H    5.932403   4.555588   3.609796   2.455007   2.424462
                    6          7          8          9         10
     6  C    0.000000
     7  C    1.395513   0.000000
     8  C    1.510977   2.540841   0.000000
     9  C    2.516846   3.800965   1.526990   0.000000
    10  C    2.889757   4.282990   2.499684   1.525196   0.000000
    11  C    2.565849   3.812942   3.002566   2.518078   1.522634
    12  O    3.425553   4.554592   3.849657   3.081414   2.382072
    13  H    4.211712   2.914160   5.354037   6.685974   6.980164
    14  H    4.149615   2.813128   5.232146   6.457708   7.001284
    15  H    4.587749   3.439252   5.954020   7.046430   7.222896
    16  H    3.832092   3.380108   5.340996   6.024359   5.770405
    17  H    2.155193   1.095260   2.749262   4.180435   4.928246
    18  H    2.141742   2.987625   1.105306   2.161123   2.809568
    19  H    2.144898   2.695975   1.101305   2.180117   3.466117
    20  H    3.465197   4.664556   2.167188   1.100226   2.174506
    21  H    2.833035   4.002074   2.165743   1.102164   2.150974
    22  H    3.934533   5.327958   3.469418   2.182884   1.099613
    23  H    3.165604   4.478527   2.715676   2.161811   1.103449
    24  H    3.308094   4.435809   3.847706   3.448862   2.159453
    25  H    3.610230   4.519135   4.354883   3.843269   3.204105
                   11         12         13         14         15
    11  C    0.000000
    12  O    1.411114   0.000000
    13  H    6.266317   6.998586   0.000000
    14  H    6.283683   6.715086   1.773934   0.000000
    15  H    6.211960   6.637993   1.776793   1.779152   0.000000
    16  H    4.466578   4.779826   3.448323   3.584753   2.405783
    17  H    4.712934   5.458429   2.920698   2.716746   3.808809
    18  H    3.503243   4.586181   5.492988   5.679433   6.353599
    19  H    3.964044   4.604763   5.393558   5.027143   6.053221
    20  H    3.475774   3.996886   7.516266   7.302240   8.012354
    21  H    2.725828   2.767529   6.903731   6.406773   7.036904
    22  H    2.135719   2.487493   8.038106   7.994056   8.182867
    23  H    2.151719   3.305100   6.987731   7.265302   7.436806
    24  H    1.107311   2.069340   6.565532   6.821529   6.498497
    25  H    1.918392   0.964511   6.682535   6.369594   6.107075
                   16         17         18         19         20
    16  H    0.000000
    17  H    4.302179   0.000000
    18  H    5.826165   3.054158   0.000000
    19  H    5.811244   2.519431   1.763445   0.000000
    20  H    7.097170   4.862999   2.455076   2.542334   0.000000
    21  H    5.994368   4.412903   3.072549   2.484370   1.772910
    22  H    6.586432   5.975006   3.784352   4.329805   2.499144
    23  H    6.059152   5.059598   2.572655   3.755697   2.538786
    24  H    4.550875   5.387021   4.119164   4.881712   4.299414
    25  H    4.113539   5.502952   5.118839   5.065006   4.832690
                   21         22         23         24         25
    21  H    0.000000
    22  H    2.530770   0.000000
    23  H    3.066669   1.773270   0.000000
    24  H    3.789155   2.577968   2.357920   0.000000
    25  H    3.484341   3.418422   4.029199   2.343316   0.000000
 Stoichiometry    C10H13NO
 Framework group  C1[X(C10H13NO)]
 Deg. of freedom    69
 Full point group                 C1      NOp   1
 Largest Abelian subgroup         C1      NOp   1
 Largest concise Abelian subgroup C1      NOp   1
                         Standard orientation:                         
 ---------------------------------------------------------------------
 Center     Atomic      Atomic             Coordinates (Angstroms)
 Number     Number       Type             X           Y           Z
 ---------------------------------------------------------------------
      1          6           0       -3.886850    0.339930    0.140340
      2          6           0       -2.412950    0.065970    0.018310
      3          6           0       -1.916080   -1.234350   -0.125230
      4          7           0       -0.626820   -1.519489   -0.255970
      5          6           0        0.262350   -0.525159   -0.254280
      6          6           0       -0.105630    0.816331   -0.075550
      7          6           0       -1.467870    1.091910    0.050210
      8          6           0        0.938319    1.906301   -0.003550
      9          6           0        2.309100    1.356671    0.384480
     10          6           0        2.679330    0.190382   -0.525970
     11          6           0        1.711050   -0.973049   -0.360810
     12          8           0        2.061741   -1.685809    0.805480
     13          1           0       -4.263510    0.877500   -0.743990
     14          1           0       -4.105110    0.962960    1.020790
     15          1           0       -4.460650   -0.592701    0.234090
     16          1           0       -2.608769   -2.084760   -0.129350
     17          1           0       -1.795091    2.127590    0.191240
     18          1           0        1.008289    2.400901   -0.989540
     19          1           0        0.608259    2.682381    0.704710
     20          1           0        3.065959    2.153102    0.326510
     21          1           0        2.288620    1.001331    1.427590
     22          1           0        3.693280   -0.179328   -0.315330
     23          1           0        2.665200    0.522902   -1.578030
     24          1           0        1.780700   -1.637179   -1.244110
     25          1           0        1.352021   -2.321429    0.955700
 ---------------------------------------------------------------------
 Rotational constants (GHZ):           1.8840813           0.6935923           0.5390470
 Standard basis: def2SVP (5D, 7F)
 There are   245 symmetry adapted cartesian basis functions of A   symmetry.
 There are   233 symmetry adapted basis functions of A   symmetry.
   233 basis functions,   391 primitive gaussians,   245 cartesian basis functions
    44 alpha electrons       44 beta electrons
       nuclear repulsion energy       701.9226222043 Hartrees.
 NAtoms=   25 NActive=   25 NUniq=   25 SFac= 1.00D+00 NAtFMM=   60 NAOKFM=F Big=F
 Integral buffers will be    131072 words long.
 Raffenetti 2 integral format.
 Two-electron integral symmetry is turned on.
 Nuclear repulsion after empirical dispersion term =      701.9062511743 Hartrees.
 One-electron integrals computed using PRISM.
   1 Symmetry operations used in ECPInt.
 ECPInt:  NShTT=    6216 NPrTT=   22140 LenC2=    6050 LenP2D=   16480.
 LDataN:  DoStor=T MaxTD1= 4 Len=   56
 NBasis=   233 RedAO= T EigKep=  5.45D-04  NBF=   233
 NBsUse=   233 1.00D-06 EigRej= -1.00D+00 NBFU=   233
 ExpMin= 1.22D-01 ExpMax= 2.27D+03 ExpMxC= 3.41D+02 IAcc=3 IRadAn=         5 AccDes= 0.00D+00
 Harris functional with IExCor= 4639 and IRadAn=       5 diagonalized for initial guess.
 HarFok:  IExCor= 4639 AccDes= 0.00D+00 IRadAn=         5 IDoV= 1 UseB2=F ITyADJ=14
 ICtDFT=  3500011 ScaDFX=  1.000000  1.000000  1.000000  1.000000
 FoFCou: FMM=F IPFlag=           0 FMFlag=      100000 FMFlg1=           0
         NFxFlg=           0 DoJE=T BraDBF=F KetDBF=T FulRan=T
         wScrn=  0.000000 ICntrl=       500 IOpCl=  0 I1Cent=   200000004 NGrid=           0
         NMat0=    1 NMatS0=      1 NMatT0=    0 NMatD0=    1 NMtDS0=    0 NMtDT0=    0
 Petite list used in FoFCou.
 Requested convergence on RMS density matrix=1.00D-08 within 128 cycles.
 Requested convergence on MAX density matrix=1.00D-06.
 Requested convergence on             energy=1.00D-06.
 No special actions if energy rises.
 Integral accuracy reduced to 1.0D-05 until final iterations.
 Initial convergence to 1.0D-05 achieved.  Increase integral accuracy.
 SCF Done:  E(RwB97XD) =  -518.347191858     A.U. after   15 cycles
            NFock= 15  Conv=0.49D-08     -V/T= 2.0108

 **********************************************************************

            Population analysis using the SCF Density.

 **********************************************************************

 Orbital symmetries:
       Occupied  (A) (A) (A) (A) (A) (A) (A) (A) (A) (A) (A) (A)
                 (A) (A) (A) (A) (A) (A) (A) (A) (A) (A) (A) (A)
                 (A) (A) (A) (A) (A) (A) (A) (A) (A) (A) (A) (A)
                 (A) (A) (A) (A) (A) (A) (A) (A)
       Virtual   (A) (A) (A) (A) (A) (A) (A) (A) (A) (A) (A) (A)
                 (A) (A) (A) (A) (A) (A) (A) (A) (A) (A) (A) (A)
                 (A) (A) (A) (A) (A) (A) (A) (A) (A) (A) (A) (A)
                 (A) (A) (A) (A) (A) (A) (A) (A) (A) (A) (A) (A)
                 (A) (A) (A) (A) (A) (A) (A) (A) (A) (A) (A) (A)
                 (A) (A) (A) (A) (A) (A) (A) (A) (A) (A) (A) (A)
                 (A) (A) (A) (A) (A) (A) (A) (A) (A) (A) (A) (A)
                 (A) (A) (A) (A) (A) (A) (A) (A) (A) (A) (A) (A)
                 (A) (A) (A) (A) (A) (A) (A) (A) (A) (A) (A) (A)
                 (A) (A) (A) (A) (A) (A) (A) (A) (A) (A) (A) (A)
                 (A) (A) (A) (A) (A) (A) (A) (A) (A) (A) (A) (A)
                 (A) (A) (A) (A) (A) (A) (A) (A) (A) (A) (A) (A)
                 (A) (A) (A) (A) (A) (A) (A) (A) (A) (A) (A) (A)
                 (A) (A) (A) (A) (A) (A) (A) (A) (A) (A) (A) (A)
                 (A) (A) (A) (A) (A) (A) (A) (A) (A) (A) (A) (A)
                 (A) (A) (A) (A) (A) (A) (A) (A) (A)
 The electronic state is 1-A.
 Alpha  occ. eigenvalues --  -19.24099 -14.43939 -10.33810 -10.33125 -10.32939
 Alpha  occ. eigenvalues --  -10.31673 -10.31545 -10.31414 -10.30743 -10.30544
 Alpha  occ. eigenvalues --  -10.29383 -10.28995  -1.10604  -1.03850  -0.92677
 Alpha  occ. eigenvalues --   -0.90819  -0.85543  -0.82381  -0.78932  -0.73346
 Alpha  occ. eigenvalues --   -0.70444  -0.69797  -0.64160  -0.61182  -0.59975
 Alpha  occ. eigenvalues --   -0.57517  -0.54289  -0.52796  -0.52407  -0.51350
 Alpha  occ. eigenvalues --   -0.50287  -0.49109  -0.48381  -0.47870  -0.46851
 Alpha  occ. eigenvalues --   -0.45857  -0.43971  -0.42128  -0.41552  -0.39270
 Alpha  occ. eigenvalues --   -0.35797  -0.35249  -0.33112  -0.32228
 Alpha virt. eigenvalues --    0.03648   0.05689   0.13805   0.14663   0.16567
 Alpha virt. eigenvalues --    0.17373   0.18350   0.18514   0.19047   0.19899
 Alpha virt. eigenvalues --    0.21263   0.22621   0.22952   0.23490   0.24127
 Alpha virt. eigenvalues --    0.25974   0.27076   0.29698   0.30993   0.31086
 Alpha virt. eigenvalues --    0.31891   0.33279   0.35512   0.35897   0.38299
 Alpha virt. eigenvalues --    0.39985   0.42898   0.44345   0.47661   0.48625
 Alpha virt. eigenvalues --    0.49053   0.50792   0.51757   0.52465   0.54869
 Alpha virt. eigenvalues --    0.56608   0.57478   0.59146   0.59815   0.62566
 Alpha virt. eigenvalues --    0.65035   0.65913   0.66133   0.67487   0.69172
 Alpha virt. eigenvalues --    0.70827   0.71286   0.71753   0.71862   0.71930
 Alpha virt. eigenvalues --    0.72904   0.73714   0.74447   0.74918   0.76110
 Alpha virt. eigenvalues --    0.76247   0.76377   0.77330   0.77705   0.77766
 Alpha virt. eigenvalues --    0.78632   0.79929   0.80599   0.81251   0.81996
 Alpha virt. eigenvalues --    0.82523   0.84684   0.86814   0.88373   0.89013
 Alpha virt. eigenvalues --    0.90360   0.94554   0.97705   1.00617   1.04501
 Alpha virt. eigenvalues --    1.06793   1.07981   1.11693   1.13351   1.15414
 Alpha virt. eigenvalues --    1.19687   1.21631   1.22785   1.25134   1.26970
 Alpha virt. eigenvalues --    1.28436   1.32125   1.34985   1.35236   1.37844
 Alpha virt. eigenvalues --    1.39976   1.42716   1.43177   1.45136   1.48603
 Alpha virt. eigenvalues --    1.51392   1.52954   1.54814   1.59987   1.61319
 Alpha virt. eigenvalues --    1.63504   1.64104   1.65842   1.67980   1.70246
 Alpha virt. eigenvalues --    1.75408   1.76424   1.77566   1.81018   1.81800
 Alpha virt. eigenvalues --    1.83398   1.85131   1.85323   1.85978   1.87464
 Alpha virt. eigenvalues --    1.87741   1.89053   1.89198   1.91085   1.91292
 Alpha virt. eigenvalues --    1.91909   1.93279   1.94072   1.95658   1.96817
 Alpha virt. eigenvalues --    1.99124   1.99359   2.00355   2.02428   2.03167
 Alpha virt. eigenvalues --    2.04561   2.07225   2.08065   2.08907   2.11111
 Alpha virt. eigenvalues --    2.16375   2.18030   2.20429   2.21560   2.24426
 Alpha virt. eigenvalues --    2.25369   2.28149   2.29969   2.32114   2.33360
 Alpha virt. eigenvalues --    2.34410   2.36898   2.38023   2.40446   2.46682
 Alpha virt. eigenvalues --    2.46888   2.48221   2.48339   2.51562   2.54549
 Alpha virt. eigenvalues --    2.56044   2.58607   2.62336   2.62651   2.65308
 Alpha virt. eigenvalues --    2.67034   2.68701   2.70432   2.72628   2.74982
 Alpha virt. eigenvalues --    2.79791   2.81364   2.86540   2.90773   2.92236
 Alpha virt. eigenvalues --    2.97548   2.99110   3.00319   3.01007   3.01526
 Alpha virt. eigenvalues --    3.05458   3.07058   3.07793   3.10905   3.12273
 Alpha virt. eigenvalues --    3.16020   3.17691   3.20844   3.21833   3.28272
 Alpha virt. eigenvalues --    3.46594   3.48518   3.67102   3.89099
          Condensed to atoms (all electrons):
               1          2          3          4          5          6
     1  C    4.554880   0.384386  -0.053779   0.005291   0.000954   0.009223
     2  C    0.384386   5.137745   0.453636  -0.041151  -0.069257   0.015839
     3  C   -0.053779   0.453636   4.759326   0.549064  -0.068739  -0.069157
     4  N    0.005291  -0.041151   0.549064   6.343026   0.486332  -0.074101
     5  C    0.000954  -0.069257  -0.068739   0.486332   5.289488   0.413109
     6  C    0.009223   0.015839  -0.069157  -0.074101   0.413109   5.198417
     7  C   -0.077012   0.428443  -0.020319  -0.036583  -0.038566   0.469982
     8  C   -0.000098   0.010537   0.000324   0.006147  -0.055186   0.318172
     9  C    0.000002  -0.000687   0.000066  -0.000880  -0.033571  -0.040839
    10  C   -0.000003  -0.000363   0.000029   0.010195  -0.009501  -0.039632
    11  C    0.000065   0.002817   0.004212  -0.070665   0.270702  -0.070049
    12  O   -0.000000  -0.000050  -0.000075  -0.009837  -0.043337   0.002705
    13  H    0.388347  -0.014184  -0.000134  -0.000148   0.000058   0.000202
    14  H    0.390257  -0.016535   0.002389  -0.000160  -0.000017   0.000587
    15  H    0.391216  -0.020436  -0.007032   0.000253   0.000040  -0.000481
    16  H   -0.007286  -0.068720   0.423094  -0.035699   0.006218   0.001504
    17  H   -0.010827  -0.067988   0.009861  -0.000313   0.014376  -0.050601
    18  H    0.000006  -0.000327   0.000059  -0.000187  -0.005333  -0.005958
    19  H   -0.000023   0.000467  -0.000025  -0.000110   0.008235  -0.017118
    20  H   -0.000000   0.000010  -0.000001   0.000020   0.001892   0.006932
    21  H   -0.000001  -0.000011  -0.000025  -0.000513  -0.008056   0.001930
    22  H    0.000000   0.000004   0.000007  -0.000192   0.007262   0.001105
    23  H   -0.000000   0.000008  -0.000008  -0.000234  -0.001681  -0.004366
    24  H   -0.000003   0.000063   0.000155  -0.005962  -0.022343   0.012855
    25  H   -0.000009   0.000011   0.000396   0.023678  -0.012527  -0.000514
               7          8          9         10         11         12
     1  C   -0.077012  -0.000098   0.000002  -0.000003   0.000065  -0.000000
     2  C    0.428443   0.010537  -0.000687  -0.000363   0.002817  -0.000050
     3  C   -0.020319   0.000324   0.000066   0.000029   0.004212  -0.000075
     4  N   -0.036583   0.006147  -0.000880   0.010195  -0.070665  -0.009837
     5  C   -0.038566  -0.055186  -0.033571  -0.009501   0.270702  -0.043337
     6  C    0.469982   0.318172  -0.040839  -0.039632  -0.070049   0.002705
     7  C    4.900136  -0.055053   0.008440   0.001736   0.002011  -0.000080
     8  C   -0.055053   4.691604   0.425488  -0.055437  -0.012946  -0.001159
     9  C    0.008440   0.425488   4.659683   0.391804  -0.041381  -0.001327
    10  C    0.001736  -0.055437   0.391804   4.825682   0.329040  -0.069570
    11  C    0.002011  -0.012946  -0.041381   0.329040   4.707735   0.343410
    12  O   -0.000080  -0.001159  -0.001327  -0.069570   0.343410   7.782303
    13  H   -0.005655   0.000002  -0.000000   0.000000  -0.000002   0.000000
    14  H   -0.006882  -0.000009   0.000001  -0.000000  -0.000001  -0.000000
    15  H    0.008540   0.000008  -0.000000   0.000000   0.000000  -0.000000
    16  H    0.006295   0.000055   0.000000   0.000000  -0.000321   0.000017
    17  H    0.434671  -0.015357   0.000499   0.000074  -0.000446   0.000004
    18  H   -0.004057   0.357331  -0.015113  -0.005079  -0.000884  -0.000037
    19  H   -0.010381   0.368391  -0.021193   0.008038   0.000210   0.000023
    20  H   -0.000372  -0.016904   0.371921  -0.014067   0.005349  -0.000073
    21  H    0.000037  -0.026705   0.388337  -0.043582   0.002744   0.012279
    22  H    0.000028   0.007036  -0.015927   0.353571  -0.004992   0.003402
    23  H   -0.000366   0.001051  -0.037133   0.362304  -0.008988   0.003660
    24  H   -0.000293  -0.001363   0.010199  -0.044648   0.366155  -0.027219
    25  H    0.000296  -0.000387   0.000058   0.011638  -0.031935   0.326569
              13         14         15         16         17         18
     1  C    0.388347   0.390257   0.391216  -0.007286  -0.010827   0.000006
     2  C   -0.014184  -0.016535  -0.020436  -0.068720  -0.067988  -0.000327
     3  C   -0.000134   0.002389  -0.007032   0.423094   0.009861   0.000059
     4  N   -0.000148  -0.000160   0.000253  -0.035699  -0.000313  -0.000187
     5  C    0.000058  -0.000017   0.000040   0.006218   0.014376  -0.005333
     6  C    0.000202   0.000587  -0.000481   0.001504  -0.050601  -0.005958
     7  C   -0.005655  -0.006882   0.008540   0.006295   0.434671  -0.004057
     8  C    0.000002  -0.000009   0.000008   0.000055  -0.015357   0.357331
     9  C   -0.000000   0.000001  -0.000000   0.000000   0.000499  -0.015113
    10  C    0.000000  -0.000000   0.000000   0.000000   0.000074  -0.005079
    11  C   -0.000002  -0.000001   0.000000  -0.000321  -0.000446  -0.000884
    12  O    0.000000  -0.000000  -0.000000   0.000017   0.000004  -0.000037
    13  H    0.611229  -0.019806  -0.019192   0.000112   0.001465  -0.000005
    14  H   -0.019806   0.616059  -0.020589  -0.000007   0.002744   0.000003
    15  H   -0.019192  -0.020589   0.622076   0.006205   0.000001  -0.000000
    16  H    0.000112  -0.000007   0.006205   0.650109  -0.000287  -0.000002
    17  H    0.001465   0.002744   0.000001  -0.000287   0.673711   0.001147
    18  H   -0.000005   0.000003  -0.000000  -0.000002   0.001147   0.654679
    19  H    0.000005  -0.000008  -0.000000  -0.000003   0.005433  -0.021917
    20  H   -0.000000   0.000000   0.000000   0.000000  -0.000007  -0.008576
    21  H   -0.000000   0.000000  -0.000000  -0.000000  -0.000001   0.007292
    22  H   -0.000000  -0.000000  -0.000000  -0.000000  -0.000002  -0.000036
    23  H    0.000000  -0.000000   0.000000  -0.000000  -0.000006   0.005297
    24  H   -0.000000   0.000000  -0.000000  -0.000046   0.000016   0.000083
    25  H    0.000000   0.000000  -0.000000  -0.000169   0.000006   0.000005
              19         20         21         22         23         24
     1  C   -0.000023  -0.000000  -0.000001   0.000000  -0.000000  -0.000003
     2  C    0.000467   0.000010  -0.000011   0.000004   0.000008   0.000063
     3  C   -0.000025  -0.000001  -0.000025   0.000007  -0.000008   0.000155
     4  N   -0.000110   0.000020  -0.000513  -0.000192  -0.000234  -0.005962
     5  C    0.008235   0.001892  -0.008056   0.007262  -0.001681  -0.022343
     6  C   -0.017118   0.006932   0.001930   0.001105  -0.004366   0.012855
     7  C   -0.010381  -0.000372   0.000037   0.000028  -0.000366  -0.000293
     8  C    0.368391  -0.016904  -0.026705   0.007036   0.001051  -0.001363
     9  C   -0.021193   0.371921   0.388337  -0.015927  -0.037133   0.010199
    10  C    0.008038  -0.014067  -0.043582   0.353571   0.362304  -0.044648
    11  C    0.000210   0.005349   0.002744  -0.004992  -0.008988   0.366155
    12  O    0.000023  -0.000073   0.012279   0.003402   0.003660  -0.027219
    13  H    0.000005  -0.000000  -0.000000  -0.000000   0.000000  -0.000000
    14  H   -0.000008   0.000000   0.000000  -0.000000  -0.000000   0.000000
    15  H   -0.000000   0.000000  -0.000000  -0.000000   0.000000  -0.000000
    16  H   -0.000003   0.000000  -0.000000  -0.000000  -0.000000  -0.000046
    17  H    0.005433  -0.000007  -0.000001  -0.000002  -0.000006   0.000016
    18  H   -0.021917  -0.008576   0.007292  -0.000036   0.005297   0.000083
    19  H    0.658581  -0.002968  -0.007895  -0.000356   0.000049   0.000015
    20  H   -0.002968   0.667615  -0.027083  -0.006614  -0.006592  -0.000270
    21  H   -0.007895  -0.027083   0.651026  -0.005083   0.009036   0.000922
    22  H   -0.000356  -0.006614  -0.005083   0.645913  -0.019563  -0.004584
    23  H    0.000049  -0.006592   0.009036  -0.019563   0.680392  -0.005152
    24  H    0.000015  -0.000270   0.000922  -0.004584  -0.005152   0.702448
    25  H    0.000008   0.000039  -0.000860  -0.000477  -0.000544  -0.000821
              25
     1  C   -0.000009
     2  C    0.000011
     3  C    0.000396
     4  N    0.023678
     5  C   -0.012527
     6  C   -0.000514
     7  C    0.000296
     8  C   -0.000387
     9  C    0.000058
    10  C    0.011638
    11  C   -0.031935
    12  O    0.326569
    13  H    0.000000
    14  H    0.000000
    15  H   -0.000000
    16  H   -0.000169
    17  H    0.000006
    18  H    0.000005
    19  H    0.000008
    20  H    0.000039
    21  H   -0.000860
    22  H   -0.000477
    23  H   -0.000544
    24  H   -0.000821
    25  H    0.512195
 Mulliken charges:
               1
     1  C    0.024412
     2  C   -0.134258
     3  C    0.016677
     4  N   -0.147273
     5  C   -0.130553
     6  C   -0.079746
     7  C   -0.004997
     8  C    0.054458
     9  C   -0.048447
    10  C   -0.012230
    11  C    0.208160
    12  O   -0.321609
    13  H    0.057707
    14  H    0.051975
    15  H    0.039391
    16  H    0.018931
    17  H    0.001829
    18  H    0.041606
    19  H    0.032541
    20  H    0.029750
    21  H    0.046212
    22  H    0.039496
    23  H    0.022833
    24  H    0.019791
    25  H    0.173343
 Sum of Mulliken charges =  -0.00000
 Mulliken charges with hydrogens summed into heavy atoms:
               1
     1  C    0.173485
     2  C   -0.134258
     3  C    0.035608
     4  N   -0.147273
     5  C   -0.130553
     6  C   -0.079746
     7  C   -0.003168
     8  C    0.128604
     9  C    0.027515
    10  C    0.050099
    11  C    0.227952
    12  O   -0.148266
 Electronic spatial extent (au):  <R**2>=           2158.3740
 Charge=              0.0000 electrons
 Dipole moment (field-independent basis, Debye):
    X=             -2.0135    Y=              2.1356    Z=             -0.4215  Tot=              2.9652
 Quadrupole moment (field-independent basis, Debye-Ang):
   XX=            -67.4076   YY=            -69.8614   ZZ=            -73.0636
   XY=              2.2451   XZ=             -3.3051   YZ=             -0.1143
 Traceless Quadrupole moment (field-independent basis, Debye-Ang):
   XX=              2.7033   YY=              0.2494   ZZ=             -2.9527
   XY=              2.2451   XZ=             -3.3051   YZ=             -0.1143
 Octapole moment (field-independent basis, Debye-Ang**2):
  XXX=            -22.9674  YYY=             -5.0809  ZZZ=              3.2043  XYY=             -2.8503
  XXY=              5.9010  XXZ=             -5.6614  XZZ=              3.3356  YZZ=             -2.3285
  YYZ=              5.5413  XYZ=              2.8019
 Hexadecapole moment (field-independent basis, Debye-Ang**3):
 XXXX=          -1944.5685 YYYY=           -692.2582 ZZZZ=           -161.3293 XXXY=             20.0243
 XXXZ=            -11.3589 YYYX=            -14.7463 YYYZ=            -17.6517 ZZZX=              3.4141
 ZZZY=             -7.7626 XXYY=           -447.5348 XXZZ=           -370.6929 YYZZ=           -142.1051
 XXYZ=              9.8924 YYXZ=             -2.9512 ZZXY=             -6.0996
 N-N= 7.019062511743D+02 E-N=-2.606886045891D+03  KE= 5.127914552192D+02
   1 Symmetry operations used in ECPInt.
 ECPInt:  NShTT=    6216 NPrTT=   22140 LenC2=    6050 LenP2D=   16480.
 LDataN:  DoStor=T MaxTD1= 5 Len=  102
 Calling FoFJK, ICntrl=      2127 FMM=F ISym2X=0 I1Cent= 0 IOpClX= 0 NMat=1 NMatS=1 NMatT=0.
 ***** Axes restored to original set *****
 -------------------------------------------------------------------
 Center     Atomic                   Forces (Hartrees/Bohr)
 Number     Number              X              Y              Z
 -------------------------------------------------------------------
      1        6          -0.000001019    0.000008736    0.000000105
      2        6           0.000001859   -0.000020115   -0.000003315
      3        6          -0.000004823    0.000005395    0.000003049
      4        7          -0.000007065   -0.000001057    0.000000367
      5        6           0.000004440    0.000006774   -0.000002023
      6        6          -0.000003691   -0.000001160    0.000001814
      7        6          -0.000000786    0.000009457   -0.000003196
      8        6           0.000000188    0.000002832    0.000003502
      9        6           0.000001149   -0.000002169   -0.000000245
     10        6          -0.000001051    0.000004255   -0.000003651
     11        6           0.000007823   -0.000011204    0.000007619
     12        8          -0.000006576    0.000002142   -0.000009290
     13        1           0.000003146   -0.000001975    0.000003238
     14        1          -0.000001383    0.000000997   -0.000002087
     15        1          -0.000000650    0.000000547   -0.000002070
     16        1           0.000002235    0.000002593    0.000000225
     17        1           0.000001888   -0.000003039    0.000002180
     18        1           0.000001680    0.000000451    0.000000587
     19        1           0.000001669   -0.000002989   -0.000002013
     20        1           0.000001295    0.000000324    0.000001447
     21        1          -0.000000382    0.000000160   -0.000000905
     22        1          -0.000001094   -0.000001387    0.000000331
     23        1          -0.000000504   -0.000000653    0.000002231
     24        1           0.000000686    0.000000929    0.000001877
     25        1           0.000000964    0.000000156    0.000000224
 -------------------------------------------------------------------
 Cartesian Forces:  Max     0.000020115 RMS     0.000004227

 GradGradGradGradGradGradGradGradGradGradGradGradGradGradGradGradGradGrad
 Berny optimization.
 FormGI is forming the generalized inverse of G from B-inverse, IUseBI=4.
 Internal  Forces:  Max     0.000009981 RMS     0.000002033
 Search for a local minimum.
 Step number   1 out of a maximum of  150
 All quantities printed in internal units (Hartrees-Bohrs-Radians)
 Mixed Optimization -- En-DIIS/RFO-DIIS
 Second derivative matrix not updated -- first step.
 ITU=  0
     Eigenvalues ---    0.00562   0.00712   0.00715   0.01105   0.01276
     Eigenvalues ---    0.01526   0.01545   0.01647   0.02141   0.02150
     Eigenvalues ---    0.02278   0.02467   0.02988   0.03111   0.04349
     Eigenvalues ---    0.04720   0.04971   0.05323   0.05951   0.06279
     Eigenvalues ---    0.07132   0.07196   0.07266   0.07901   0.07968
     Eigenvalues ---    0.08168   0.09345   0.10048   0.11969   0.14950
     Eigenvalues ---    0.15998   0.16000   0.16000   0.16000   0.16000
     Eigenvalues ---    0.16000   0.18270   0.19136   0.23299   0.23470
     Eigenvalues ---    0.23954   0.24940   0.24999   0.28594   0.28651
     Eigenvalues ---    0.29130   0.30161   0.30912   0.31951   0.32886
     Eigenvalues ---    0.33102   0.33304   0.33444   0.33537   0.33538
     Eigenvalues ---    0.33632   0.33657   0.33725   0.33791   0.34035
     Eigenvalues ---    0.34212   0.40562   0.43827   0.44143   0.44993
     Eigenvalues ---    0.46232   0.54514   0.56692   0.58819
 RFO step:  Lambda= 0.00000000D+00 EMin= 5.62231083D-03
 Linear search not attempted -- first point.
 Iteration  1 RMS(Cart)=  0.00005913 RMS(Int)=  0.00000000
 Iteration  2 RMS(Cart)=  0.00000000 RMS(Int)=  0.00000000
 Variable       Old X    -DE/DX   Delta X   Delta X   Delta X     New X
                                 (Linear)    (Quad)   (Total)
    R1        2.84234   0.00000   0.00000   0.00000   0.00000   2.84235
    R2        2.08118  -0.00001   0.00000  -0.00002  -0.00002   2.08117
    R3        2.07955  -0.00000   0.00000  -0.00000  -0.00000   2.07955
    R4        2.07684   0.00000   0.00000   0.00000   0.00000   2.07684
    R5        2.64448  -0.00001   0.00000  -0.00002  -0.00002   2.64446
    R6        2.63666   0.00001   0.00000   0.00001   0.00001   2.63667
    R7        2.50742  -0.00000   0.00000  -0.00000  -0.00000   2.50742
    R8        2.07271  -0.00000   0.00000  -0.00001  -0.00001   2.07270
    R9        2.52073   0.00001   0.00000   0.00001   0.00001   2.52074
   R10        2.65030  -0.00000   0.00000   0.00000   0.00000   2.65030
   R11        2.87256   0.00000   0.00000   0.00001   0.00001   2.87257
   R12        2.63714  -0.00000   0.00000   0.00000   0.00000   2.63714
   R13        2.85533   0.00000   0.00000   0.00001   0.00001   2.85534
   R14        2.06974  -0.00000   0.00000  -0.00001  -0.00001   2.06973
   R15        2.88559  -0.00000   0.00000  -0.00000  -0.00000   2.88559
   R16        2.08873   0.00000   0.00000   0.00000   0.00000   2.08873
   R17        2.08116  -0.00000   0.00000  -0.00001  -0.00001   2.08115
   R18        2.88220  -0.00000   0.00000  -0.00000  -0.00000   2.88220
   R19        2.07913   0.00000   0.00000   0.00000   0.00000   2.07913
   R20        2.08279  -0.00000   0.00000  -0.00000  -0.00000   2.08278
   R21        2.87736   0.00000   0.00000   0.00001   0.00001   2.87737
   R22        2.07797  -0.00000   0.00000  -0.00000  -0.00000   2.07797
   R23        2.08522  -0.00000   0.00000  -0.00001  -0.00001   2.08521
   R24        2.66662  -0.00001   0.00000  -0.00002  -0.00002   2.66660
   R25        2.09252  -0.00000   0.00000  -0.00001  -0.00001   2.09251
   R26        1.82266  -0.00000   0.00000  -0.00000  -0.00000   1.82266
    A1        1.93789  -0.00000   0.00000  -0.00003  -0.00003   1.93786
    A2        1.94162   0.00000   0.00000   0.00003   0.00003   1.94165
    A3        1.94333   0.00000   0.00000   0.00000   0.00000   1.94333
    A4        1.87367  -0.00000   0.00000  -0.00000  -0.00000   1.87366
    A5        1.87984  -0.00000   0.00000  -0.00001  -0.00001   1.87983
    A6        1.88456  -0.00000   0.00000   0.00001   0.00001   1.88457
    A7        2.12410   0.00001   0.00000   0.00002   0.00002   2.12412
    A8        2.12700  -0.00001   0.00000  -0.00003  -0.00003   2.12697
    A9        2.03207   0.00000   0.00000   0.00001   0.00001   2.03208
   A10        2.15890  -0.00000   0.00000  -0.00001  -0.00001   2.15889
   A11        2.09046   0.00000   0.00000   0.00001   0.00001   2.09047
   A12        2.03381  -0.00000   0.00000  -0.00000  -0.00000   2.03381
   A13        2.07988   0.00000   0.00000   0.00001   0.00001   2.07989
   A14        2.13918  -0.00000   0.00000  -0.00001  -0.00001   2.13917
   A15        1.99935   0.00000   0.00000   0.00000   0.00000   1.99935
   A16        2.14221   0.00000   0.00000   0.00001   0.00001   2.14221
   A17        2.04485  -0.00000   0.00000  -0.00000  -0.00000   2.04485
   A18        2.11156  -0.00000   0.00000  -0.00000  -0.00000   2.11156
   A19        2.12668   0.00000   0.00000   0.00001   0.00001   2.12668
   A20        2.11056  -0.00000   0.00000  -0.00000  -0.00000   2.11056
   A21        2.08965   0.00000   0.00000   0.00000   0.00000   2.08965
   A22        2.08286  -0.00000   0.00000  -0.00000  -0.00000   2.08285
   A23        1.95270   0.00000   0.00000   0.00000   0.00000   1.95270
   A24        1.90078   0.00000   0.00000   0.00001   0.00001   1.90079
   A25        1.90914  -0.00000   0.00000   0.00000   0.00000   1.90914
   A26        1.90808  -0.00000   0.00000  -0.00001  -0.00001   1.90807
   A27        1.93828   0.00000   0.00000   0.00000   0.00000   1.93828
   A28        1.85181   0.00000   0.00000  -0.00000  -0.00000   1.85180
   A29        1.91927  -0.00000   0.00000  -0.00001  -0.00001   1.91926
   A30        1.92154  -0.00000   0.00000   0.00000   0.00000   1.92154
   A31        1.91757  -0.00000   0.00000  -0.00001  -0.00001   1.91756
   A32        1.93382   0.00000   0.00000   0.00001   0.00001   1.93383
   A33        1.89962   0.00000   0.00000   0.00000   0.00000   1.89962
   A34        1.87133  -0.00000   0.00000  -0.00000  -0.00000   1.87133
   A35        1.94461   0.00000   0.00000   0.00000   0.00000   1.94461
   A36        1.94613  -0.00000   0.00000   0.00000   0.00000   1.94613
   A37        1.91304  -0.00000   0.00000   0.00000   0.00000   1.91304
   A38        1.88463  -0.00000   0.00000  -0.00001  -0.00001   1.88462
   A39        1.90237   0.00000   0.00000   0.00000   0.00000   1.90237
   A40        1.87105   0.00000   0.00000   0.00001   0.00001   1.87106
   A41        1.96982  -0.00000   0.00000  -0.00002  -0.00002   1.96980
   A42        1.90472  -0.00000   0.00000  -0.00000  -0.00000   1.90472
   A43        1.86771   0.00000   0.00000   0.00001   0.00001   1.86772
   A44        1.89395   0.00000   0.00000   0.00002   0.00002   1.89397
   A45        1.90896   0.00000   0.00000  -0.00000  -0.00000   1.90895
   A46        1.91848  -0.00000   0.00000  -0.00001  -0.00001   1.91848
   A47        1.85326   0.00000   0.00000   0.00001   0.00001   1.85327
    D1       -1.96368   0.00000   0.00000   0.00001   0.00001  -1.96366
    D2        1.18487   0.00000   0.00000  -0.00001  -0.00001   1.18486
    D3        2.23391   0.00000   0.00000   0.00002   0.00002   2.23393
    D4       -0.90073   0.00000   0.00000  -0.00000  -0.00000  -0.90073
    D5        0.13086  -0.00000   0.00000  -0.00002  -0.00002   0.13084
    D6       -3.00378  -0.00000   0.00000  -0.00004  -0.00004  -3.00382
    D7        3.12345  -0.00000   0.00000  -0.00010  -0.00010   3.12336
    D8       -0.02249  -0.00000   0.00000  -0.00005  -0.00005  -0.02254
    D9       -0.02473  -0.00000   0.00000  -0.00008  -0.00008  -0.02481
   D10        3.11251  -0.00000   0.00000  -0.00003  -0.00003   3.11248
   D11       -3.13252   0.00000   0.00000   0.00005   0.00005  -3.13247
   D12        0.02568   0.00000   0.00000   0.00010   0.00010   0.02578
   D13        0.01567   0.00000   0.00000   0.00003   0.00003   0.01571
   D14       -3.10931   0.00000   0.00000   0.00008   0.00008  -3.10923
   D15       -0.00114   0.00000   0.00000   0.00004   0.00004  -0.00110
   D16       -3.13851  -0.00000   0.00000  -0.00001  -0.00001  -3.13852
   D17        0.03718   0.00000   0.00000   0.00004   0.00004   0.03722
   D18        3.10550   0.00000   0.00000   0.00001   0.00001   3.10551
   D19       -0.04443  -0.00000   0.00000  -0.00008  -0.00008  -0.04451
   D20        3.08207  -0.00000   0.00000  -0.00007  -0.00007   3.08200
   D21       -3.10678  -0.00000   0.00000  -0.00004  -0.00004  -3.10682
   D22        0.01972  -0.00000   0.00000  -0.00003  -0.00003   0.01969
   D23        3.01959   0.00000   0.00000   0.00004   0.00004   3.01963
   D24       -1.15638   0.00000   0.00000   0.00005   0.00005  -1.15634
   D25        0.91882   0.00000   0.00000   0.00005   0.00005   0.91886
   D26       -0.19541  -0.00000   0.00000   0.00000   0.00000  -0.19541
   D27        1.91179   0.00000   0.00000   0.00001   0.00001   1.91181
   D28       -2.29619   0.00000   0.00000   0.00001   0.00001  -2.29618
   D29        0.01649   0.00000   0.00000   0.00004   0.00004   0.01652
   D30        3.14153  -0.00000   0.00000  -0.00001  -0.00001   3.14152
   D31       -3.10988   0.00000   0.00000   0.00003   0.00003  -3.10985
   D32        0.01517  -0.00000   0.00000  -0.00002  -0.00002   0.01515
   D33       -0.37831   0.00000   0.00000   0.00003   0.00003  -0.37827
   D34        1.73293  -0.00000   0.00000   0.00003   0.00003   1.73295
   D35       -2.53356   0.00000   0.00000   0.00003   0.00003  -2.53353
   D36        2.74748   0.00000   0.00000   0.00004   0.00004   2.74753
   D37       -1.42447   0.00000   0.00000   0.00004   0.00004  -1.42444
   D38        0.59223   0.00000   0.00000   0.00004   0.00004   0.59227
   D39        0.90373  -0.00000   0.00000  -0.00000  -0.00000   0.90372
   D40        3.03929   0.00000   0.00000   0.00000   0.00000   3.03930
   D41       -1.18676  -0.00000   0.00000  -0.00000  -0.00000  -1.18676
   D42       -1.20327  -0.00000   0.00000  -0.00001  -0.00001  -1.20328
   D43        0.93230  -0.00000   0.00000  -0.00000  -0.00000   0.93230
   D44        2.98943  -0.00000   0.00000  -0.00001  -0.00001   2.98942
   D45        3.04246  -0.00000   0.00000  -0.00000  -0.00000   3.04245
   D46       -1.10516   0.00000   0.00000   0.00001   0.00001  -1.10516
   D47        0.95197   0.00000   0.00000   0.00000   0.00000   0.95197
   D48       -1.10502  -0.00000   0.00000  -0.00003  -0.00003  -1.10505
   D49        3.07105   0.00000   0.00000  -0.00002  -0.00002   3.07103
   D50        1.00207  -0.00000   0.00000  -0.00003  -0.00003   1.00204
   D51        3.04988  -0.00000   0.00000  -0.00004  -0.00004   3.04984
   D52        0.94277   0.00000   0.00000  -0.00003  -0.00003   0.94274
   D53       -1.12621  -0.00000   0.00000  -0.00004  -0.00004  -1.12625
   D54        0.99635  -0.00000   0.00000  -0.00004  -0.00004   0.99631
   D55       -1.11076   0.00000   0.00000  -0.00003  -0.00003  -1.11079
   D56        3.10344  -0.00000   0.00000  -0.00004  -0.00004   3.10340
   D57        0.72799   0.00000   0.00000   0.00003   0.00003   0.72802
   D58       -1.38535   0.00000   0.00000   0.00003   0.00003  -1.38533
   D59        2.80498   0.00000   0.00000   0.00003   0.00003   2.80501
   D60        2.87078   0.00000   0.00000   0.00002   0.00002   2.87080
   D61        0.75744   0.00000   0.00000   0.00002   0.00002   0.75746
   D62       -1.33542   0.00000   0.00000   0.00002   0.00002  -1.33539
   D63       -1.38534   0.00000   0.00000   0.00003   0.00003  -1.38531
   D64        2.78450   0.00000   0.00000   0.00003   0.00003   2.78453
   D65        0.69165   0.00000   0.00000   0.00002   0.00002   0.69167
   D66        0.83442   0.00000   0.00000   0.00001   0.00001   0.83443
   D67        2.98741  -0.00000   0.00000  -0.00000  -0.00000   2.98741
   D68       -1.20887   0.00000   0.00000   0.00000   0.00000  -1.20887
         Item               Value     Threshold  Converged?
 Maximum Force            0.000010     0.000450     YES
 RMS     Force            0.000002     0.000300     YES
 Maximum Displacement     0.000293     0.001800     YES
 RMS     Displacement     0.000059     0.001200     YES
 Predicted change in Energy=-1.690919D-09
 Optimization completed.
    -- Stationary point found.
                           ----------------------------
                           !   Optimized Parameters   !
                           ! (Angstroms and Degrees)  !
 --------------------------                            --------------------------
 ! Name  Definition              Value          Derivative Info.                !
 --------------------------------------------------------------------------------
 ! R1    R(1,2)                  1.5041         -DE/DX =    0.0                 !
 ! R2    R(1,13)                 1.1013         -DE/DX =    0.0                 !
 ! R3    R(1,14)                 1.1005         -DE/DX =    0.0                 !
 ! R4    R(1,15)                 1.099          -DE/DX =    0.0                 !
 ! R5    R(2,3)                  1.3994         -DE/DX =    0.0                 !
 ! R6    R(2,7)                  1.3953         -DE/DX =    0.0                 !
 ! R7    R(3,4)                  1.3269         -DE/DX =    0.0                 !
 ! R8    R(3,16)                 1.0968         -DE/DX =    0.0                 !
 ! R9    R(4,5)                  1.3339         -DE/DX =    0.0                 !
 ! R10   R(5,6)                  1.4025         -DE/DX =    0.0                 !
 ! R11   R(5,11)                 1.5201         -DE/DX =    0.0                 !
 ! R12   R(6,7)                  1.3955         -DE/DX =    0.0                 !
 ! R13   R(6,8)                  1.511          -DE/DX =    0.0                 !
 ! R14   R(7,17)                 1.0953         -DE/DX =    0.0                 !
 ! R15   R(8,9)                  1.527          -DE/DX =    0.0                 !
 ! R16   R(8,18)                 1.1053         -DE/DX =    0.0                 !
 ! R17   R(8,19)                 1.1013         -DE/DX =    0.0                 !
 ! R18   R(9,10)                 1.5252         -DE/DX =    0.0                 !
 ! R19   R(9,20)                 1.1002         -DE/DX =    0.0                 !
 ! R20   R(9,21)                 1.1022         -DE/DX =    0.0                 !
 ! R21   R(10,11)                1.5226         -DE/DX =    0.0                 !
 ! R22   R(10,22)                1.0996         -DE/DX =    0.0                 !
 ! R23   R(10,23)                1.1034         -DE/DX =    0.0                 !
 ! R24   R(11,12)                1.4111         -DE/DX =    0.0                 !
 ! R25   R(11,24)                1.1073         -DE/DX =    0.0                 !
 ! R26   R(12,25)                0.9645         -DE/DX =    0.0                 !
 ! A1    A(2,1,13)             111.0327         -DE/DX =    0.0                 !
 ! A2    A(2,1,14)             111.2468         -DE/DX =    0.0                 !
 ! A3    A(2,1,15)             111.3445         -DE/DX =    0.0                 !
 ! A4    A(13,1,14)            107.3532         -DE/DX =    0.0                 !
 ! A5    A(13,1,15)            107.7071         -DE/DX =    0.0                 !
 ! A6    A(14,1,15)            107.9774         -DE/DX =    0.0                 !
 ! A7    A(1,2,3)              121.7018         -DE/DX =    0.0                 !
 ! A8    A(1,2,7)              121.8681         -DE/DX =    0.0                 !
 ! A9    A(3,2,7)              116.4291         -DE/DX =    0.0                 !
 ! A10   A(2,3,4)              123.6958         -DE/DX =    0.0                 !
 ! A11   A(2,3,16)             119.7748         -DE/DX =    0.0                 !
 ! A12   A(4,3,16)             116.529          -DE/DX =    0.0                 !
 ! A13   A(3,4,5)              119.1685         -DE/DX =    0.0                 !
 ! A14   A(4,5,6)              122.566          -DE/DX =    0.0                 !
 ! A15   A(4,5,11)             114.5543         -DE/DX =    0.0                 !
 ! A16   A(6,5,11)             122.7394         -DE/DX =    0.0                 !
 ! A17   A(5,6,7)              117.1611         -DE/DX =    0.0                 !
 ! A18   A(5,6,8)              120.9835         -DE/DX =    0.0                 !
 ! A19   A(7,6,8)              121.8495         -DE/DX =    0.0                 !
 ! A20   A(2,7,6)              120.9263         -DE/DX =    0.0                 !
 ! A21   A(2,7,17)             119.728          -DE/DX =    0.0                 !
 ! A22   A(6,7,17)             119.3389         -DE/DX =    0.0                 !
 ! A23   A(6,8,9)              111.8815         -DE/DX =    0.0                 !
 ! A24   A(6,8,18)             108.9066         -DE/DX =    0.0                 !
 ! A25   A(6,8,19)             109.3854         -DE/DX =    0.0                 !
 ! A26   A(9,8,18)             109.3247         -DE/DX =    0.0                 !
 ! A27   A(9,8,19)             111.0551         -DE/DX =    0.0                 !
 ! A28   A(18,8,19)            106.1006         -DE/DX =    0.0                 !
 ! A29   A(8,9,10)             109.9659         -DE/DX =    0.0                 !
 ! A30   A(8,9,20)             110.0961         -DE/DX =    0.0                 !
 ! A31   A(8,9,21)             109.8686         -DE/DX =    0.0                 !
 ! A32   A(10,9,20)            110.7995         -DE/DX =    0.0                 !
 ! A33   A(10,9,21)            108.8403         -DE/DX =    0.0                 !
 ! A34   A(20,9,21)            107.2192         -DE/DX =    0.0                 !
 ! A35   A(9,10,11)            111.4181         -DE/DX =    0.0                 !
 ! A36   A(9,10,22)            111.5051         -DE/DX =    0.0                 !
 ! A37   A(9,10,23)            109.6089         -DE/DX =    0.0                 !
 ! A38   A(11,10,22)           107.9812         -DE/DX =    0.0                 !
 ! A39   A(11,10,23)           108.9977         -DE/DX =    0.0                 !
 ! A40   A(22,10,23)           107.2033         -DE/DX =    0.0                 !
 ! A41   A(5,11,10)            112.8626         -DE/DX =    0.0                 !
 ! A42   A(5,11,12)            109.1324         -DE/DX =    0.0                 !
 ! A43   A(5,11,24)            107.0118         -DE/DX =    0.0                 !
 ! A44   A(10,11,12)           108.5152         -DE/DX =    0.0                 !
 ! A45   A(10,11,24)           109.3751         -DE/DX =    0.0                 !
 ! A46   A(12,11,24)           109.9209         -DE/DX =    0.0                 !
 ! A47   A(11,12,25)           106.1841         -DE/DX =    0.0                 !
 ! D1    D(13,1,2,3)          -112.5104         -DE/DX =    0.0                 !
 ! D2    D(13,1,2,7)            67.8879         -DE/DX =    0.0                 !
 ! D3    D(14,1,2,3)           127.9936         -DE/DX =    0.0                 !
 ! D4    D(14,1,2,7)           -51.6082         -DE/DX =    0.0                 !
 ! D5    D(15,1,2,3)             7.4976         -DE/DX =    0.0                 !
 ! D6    D(15,1,2,7)          -172.1042         -DE/DX =    0.0                 !
 ! D7    D(1,2,3,4)            178.9607         -DE/DX =    0.0                 !
 ! D8    D(1,2,3,16)            -1.2887         -DE/DX =    0.0                 !
 ! D9    D(7,2,3,4)             -1.417          -DE/DX =    0.0                 !
 ! D10   D(7,2,3,16)           178.3337         -DE/DX =    0.0                 !
 ! D11   D(1,2,7,6)           -179.4805         -DE/DX =    0.0                 !
 ! D12   D(1,2,7,17)             1.4713         -DE/DX =    0.0                 !
 ! D13   D(3,2,7,6)              0.8979         -DE/DX =    0.0                 !
 ! D14   D(3,2,7,17)          -178.1503         -DE/DX =    0.0                 !
 ! D15   D(2,3,4,5)             -0.0654         -DE/DX =    0.0                 !
 ! D16   D(16,3,4,5)          -179.8235         -DE/DX =    0.0                 !
 ! D17   D(3,4,5,6)              2.1304         -DE/DX =    0.0                 !
 ! D18   D(3,4,5,11)           177.9323         -DE/DX =    0.0                 !
 ! D19   D(4,5,6,7)             -2.5457         -DE/DX =    0.0                 !
 ! D20   D(4,5,6,8)            176.5897         -DE/DX =    0.0                 !
 ! D21   D(11,5,6,7)          -178.0053         -DE/DX =    0.0                 !
 ! D22   D(11,5,6,8)             1.1301         -DE/DX =    0.0                 !
 ! D23   D(4,5,11,10)          173.0099         -DE/DX =    0.0                 !
 ! D24   D(4,5,11,12)          -66.256          -DE/DX =    0.0                 !
 ! D25   D(4,5,11,24)           52.6443         -DE/DX =    0.0                 !
 ! D26   D(6,5,11,10)          -11.1964         -DE/DX =    0.0                 !
 ! D27   D(6,5,11,12)          109.5377         -DE/DX =    0.0                 !
 ! D28   D(6,5,11,24)         -131.562          -DE/DX =    0.0                 !
 ! D29   D(5,6,7,2)              0.9446         -DE/DX =    0.0                 !
 ! D30   D(5,6,7,17)           179.9965         -DE/DX =    0.0                 !
 ! D31   D(8,6,7,2)           -178.1828         -DE/DX =    0.0                 !
 ! D32   D(8,6,7,17)             0.8691         -DE/DX =    0.0                 !
 ! D33   D(5,6,8,9)            -21.6753         -DE/DX =    0.0                 !
 ! D34   D(5,6,8,18)            99.2893         -DE/DX =    0.0                 !
 ! D35   D(5,6,8,19)          -145.1621         -DE/DX =    0.0                 !
 ! D36   D(7,6,8,9)            157.4191         -DE/DX =    0.0                 !
 ! D37   D(7,6,8,18)           -81.6163         -DE/DX =    0.0                 !
 ! D38   D(7,6,8,19)            33.9323         -DE/DX =    0.0                 !
 ! D39   D(6,8,9,10)            51.7797         -DE/DX =    0.0                 !
 ! D40   D(6,8,9,20)           174.1385         -DE/DX =    0.0                 !
 ! D41   D(6,8,9,21)           -67.9966         -DE/DX =    0.0                 !
 ! D42   D(18,8,9,10)          -68.9422         -DE/DX =    0.0                 !
 ! D43   D(18,8,9,20)           53.4166         -DE/DX =    0.0                 !
 ! D44   D(18,8,9,21)          171.2815         -DE/DX =    0.0                 !
 ! D45   D(19,8,9,10)          174.32           -DE/DX =    0.0                 !
 ! D46   D(19,8,9,20)          -63.3212         -DE/DX =    0.0                 !
 ! D47   D(19,8,9,21)           54.5437         -DE/DX =    0.0                 !
 ! D48   D(8,9,10,11)          -63.3132         -DE/DX =    0.0                 !
 ! D49   D(8,9,10,22)          175.9582         -DE/DX =    0.0                 !
 ! D50   D(8,9,10,23)           57.4142         -DE/DX =    0.0                 !
 ! D51   D(20,9,10,11)         174.7453         -DE/DX =    0.0                 !
 ! D52   D(20,9,10,22)          54.0167         -DE/DX =    0.0                 !
 ! D53   D(20,9,10,23)         -64.5274         -DE/DX =    0.0                 !
 ! D54   D(21,9,10,11)          57.0866         -DE/DX =    0.0                 !
 ! D55   D(21,9,10,22)         -63.642          -DE/DX =    0.0                 !
 ! D56   D(21,9,10,23)         177.8139         -DE/DX =    0.0                 !
 ! D57   D(9,10,11,5)           41.7107         -DE/DX =    0.0                 !
 ! D58   D(9,10,11,12)         -79.3749         -DE/DX =    0.0                 !
 ! D59   D(9,10,11,24)         160.7136         -DE/DX =    0.0                 !
 ! D60   D(22,10,11,5)         164.4835         -DE/DX =    0.0                 !
 ! D61   D(22,10,11,12)         43.3979         -DE/DX =    0.0                 !
 ! D62   D(22,10,11,24)        -76.5137         -DE/DX =    0.0                 !
 ! D63   D(23,10,11,5)         -79.3742         -DE/DX =    0.0                 !
 ! D64   D(23,10,11,12)        159.5402         -DE/DX =    0.0                 !
 ! D65   D(23,10,11,24)         39.6287         -DE/DX =    0.0                 !
 ! D66   D(5,11,12,25)          47.8086         -DE/DX =    0.0                 !
 ! D67   D(10,11,12,25)        171.1663         -DE/DX =    0.0                 !
 ! D68   D(24,11,12,25)        -69.2633         -DE/DX =    0.0                 !
 --------------------------------------------------------------------------------
 GradGradGradGradGradGradGradGradGradGradGradGradGradGradGradGradGradGrad

                          Input orientation:                          
 ---------------------------------------------------------------------
 Center     Atomic      Atomic             Coordinates (Angstroms)
 Number     Number       Type             X           Y           Z
 ---------------------------------------------------------------------
      1          6           0       -3.886850    0.339930    0.140340
      2          6           0       -2.412950    0.065970    0.018310
      3          6           0       -1.916080   -1.234350   -0.125230
      4          7           0       -0.626820   -1.519490   -0.255970
      5          6           0        0.262350   -0.525160   -0.254280
      6          6           0       -0.105630    0.816330   -0.075550
      7          6           0       -1.467870    1.091910    0.050210
      8          6           0        0.938320    1.906300   -0.003550
      9          6           0        2.309100    1.356670    0.384480
     10          6           0        2.679330    0.190380   -0.525970
     11          6           0        1.711050   -0.973050   -0.360810
     12          8           0        2.061740   -1.685810    0.805480
     13          1           0       -4.263510    0.877500   -0.743990
     14          1           0       -4.105110    0.962960    1.020790
     15          1           0       -4.460650   -0.592700    0.234090
     16          1           0       -2.608770   -2.084760   -0.129350
     17          1           0       -1.795090    2.127590    0.191240
     18          1           0        1.008290    2.400900   -0.989540
     19          1           0        0.608260    2.682380    0.704710
     20          1           0        3.065960    2.153100    0.326510
     21          1           0        2.288620    1.001330    1.427590
     22          1           0        3.693280   -0.179330   -0.315330
     23          1           0        2.665200    0.522900   -1.578030
     24          1           0        1.780700   -1.637180   -1.244110
     25          1           0        1.352020   -2.321430    0.955700
 ---------------------------------------------------------------------
                    Distance matrix (angstroms):
                    1          2          3          4          5
     1  C    0.000000
     2  C    1.504103   0.000000
     3  C    2.536300   1.399398   0.000000
     4  N    3.773897   2.403991   1.326872   0.000000
     5  C    4.256755   2.753356   2.294594   1.333911   0.000000
     6  C    3.817223   2.428081   2.735962   2.400051   1.402480
     7  C    2.534771   1.395259   2.375533   2.760529   2.387738
     8  C    5.075085   3.823389   4.245714   3.774840   2.536099
     9  C    6.283563   4.908945   4.982503   4.159579   2.852803
    10  C    6.601595   5.122796   4.827861   3.731914   2.535272
    11  C    5.771616   4.269739   3.644153   2.403170   1.520094
    12  O    6.319158   4.869417   4.110120   2.895288   2.389143
    13  H    1.101315   2.159689   3.217639   4.382835   4.763473
    14  H    1.100453   2.161704   3.306567   4.459952   4.786963
    15  H    1.099015   2.161824   2.648710   3.974588   4.748663
    16  H    2.754150   2.164668   1.096829   2.064870   3.269754
    17  H    2.752050   2.159151   3.378969   3.855651   3.386537
    18  H    5.430159   4.262927   4.744893   4.310588   3.107871
    19  H    5.100157   4.055176   4.733061   4.483753   3.365654
    20  H    7.187754   5.871078   6.041491   5.240594   3.920539
    21  H    6.342783   4.996572   5.008894   4.205793   3.043785
    22  H    7.611546   6.120256   5.710878   4.523584   3.448856
    23  H    6.776107   5.342723   5.117292   4.093482   2.936738
    24  H    6.160096   4.699056   3.883342   2.605077   2.126438
    25  H    5.932403   4.555588   3.609796   2.455007   2.424462
                    6          7          8          9         10
     6  C    0.000000
     7  C    1.395513   0.000000
     8  C    1.510977   2.540841   0.000000
     9  C    2.516846   3.800965   1.526990   0.000000
    10  C    2.889757   4.282990   2.499684   1.525196   0.000000
    11  C    2.565849   3.812942   3.002566   2.518078   1.522634
    12  O    3.425553   4.554592   3.849657   3.081414   2.382072
    13  H    4.211712   2.914160   5.354037   6.685974   6.980164
    14  H    4.149615   2.813128   5.232146   6.457708   7.001284
    15  H    4.587749   3.439252   5.954020   7.046430   7.222896
    16  H    3.832092   3.380108   5.340996   6.024359   5.770405
    17  H    2.155193   1.095260   2.749262   4.180435   4.928246
    18  H    2.141742   2.987625   1.105306   2.161123   2.809568
    19  H    2.144898   2.695975   1.101305   2.180117   3.466117
    20  H    3.465197   4.664556   2.167188   1.100226   2.174506
    21  H    2.833035   4.002074   2.165743   1.102164   2.150974
    22  H    3.934533   5.327958   3.469418   2.182884   1.099613
    23  H    3.165604   4.478527   2.715676   2.161811   1.103449
    24  H    3.308094   4.435809   3.847706   3.448862   2.159453
    25  H    3.610230   4.519135   4.354883   3.843269   3.204105
                   11         12         13         14         15
    11  C    0.000000
    12  O    1.411114   0.000000
    13  H    6.266317   6.998586   0.000000
    14  H    6.283683   6.715086   1.773934   0.000000
    15  H    6.211960   6.637993   1.776793   1.779152   0.000000
    16  H    4.466578   4.779826   3.448323   3.584753   2.405783
    17  H    4.712934   5.458429   2.920698   2.716746   3.808809
    18  H    3.503243   4.586181   5.492988   5.679433   6.353599
    19  H    3.964044   4.604763   5.393558   5.027143   6.053221
    20  H    3.475774   3.996886   7.516266   7.302240   8.012354
    21  H    2.725828   2.767529   6.903731   6.406773   7.036904
    22  H    2.135719   2.487493   8.038106   7.994056   8.182867
    23  H    2.151719   3.305100   6.987731   7.265302   7.436806
    24  H    1.107311   2.069340   6.565532   6.821529   6.498497
    25  H    1.918392   0.964511   6.682535   6.369594   6.107075
                   16         17         18         19         20
    16  H    0.000000
    17  H    4.302179   0.000000
    18  H    5.826165   3.054158   0.000000
    19  H    5.811244   2.519431   1.763445   0.000000
    20  H    7.097170   4.862999   2.455076   2.542334   0.000000
    21  H    5.994368   4.412903   3.072549   2.484370   1.772910
    22  H    6.586432   5.975006   3.784352   4.329805   2.499144
    23  H    6.059152   5.059598   2.572655   3.755697   2.538786
    24  H    4.550875   5.387021   4.119164   4.881712   4.299414
    25  H    4.113539   5.502952   5.118839   5.065006   4.832690
                   21         22         23         24         25
    21  H    0.000000
[...]
 Alpha virt. eigenvalues --    3.19690   3.20790   3.21576   3.22634   3.23935
 Alpha virt. eigenvalues --    3.24655   3.25507   3.27433   3.28181   3.30864
 Alpha virt. eigenvalues --    3.31524   3.32445   3.33153   3.34353   3.35021
 Alpha virt. eigenvalues --    3.36002   3.37084   3.37282   3.38098   3.39264
 Alpha virt. eigenvalues --    3.40235   3.41575   3.42174   3.43024   3.43975
 Alpha virt. eigenvalues --    3.44657   3.46628   3.47597   3.49232   3.50227
 Alpha virt. eigenvalues --    3.51975   3.52910   3.55136   3.56456   3.57458
 Alpha virt. eigenvalues --    3.58549   3.59979   3.62217   3.62712   3.64994
 Alpha virt. eigenvalues --    3.65892   3.67571   3.69337   3.71157   3.73436
 Alpha virt. eigenvalues --    3.75308   3.77989   3.79071   3.80897   3.82110
 Alpha virt. eigenvalues --    3.82711   3.83001   3.83743   3.85955   3.89545
 Alpha virt. eigenvalues --    3.90982   3.94171   3.95643   3.98128   3.99542
 Alpha virt. eigenvalues --    4.01738   4.04707   4.05373   4.07540   4.08221
 Alpha virt. eigenvalues --    4.10968   4.12244   4.13134   4.14333   4.17310
 Alpha virt. eigenvalues --    4.19567   4.20688   4.23991   4.25120   4.26553
 Alpha virt. eigenvalues --    4.28013   4.30177   4.30734   4.33644   4.34764
 Alpha virt. eigenvalues --    4.39417   4.40996   4.43496   4.44777   4.47649
 Alpha virt. eigenvalues --    4.48485   4.52864   4.57238   4.57838   4.61041
 Alpha virt. eigenvalues --    4.64584   4.67718   4.68436   4.69297   4.71010
 Alpha virt. eigenvalues --    4.74804   4.77289   4.77968   4.81467   4.89392
 Alpha virt. eigenvalues --    4.93111   4.95067   4.99314   5.00907   5.03971
 Alpha virt. eigenvalues --    5.05659   5.08819   5.13867   5.17153   5.19089
 Alpha virt. eigenvalues --    5.29530   5.31451   5.35820   5.37270   5.39884
 Alpha virt. eigenvalues --    5.42349   5.46251   5.52790   5.55449   5.59706
 Alpha virt. eigenvalues --    5.65896   5.75935   5.86478   5.88778   5.90071
 Alpha virt. eigenvalues --    5.98256   6.07685   6.28855   6.39986   6.60549
 Alpha virt. eigenvalues --    6.86215   6.91569   7.10523   7.29330  22.48068
 Alpha virt. eigenvalues --   22.56700  22.61048  22.62972  22.68900  22.82545
 Alpha virt. eigenvalues --   22.94240  23.02632  23.15633  23.45734  32.68439
 Alpha virt. eigenvalues --   44.21717
          Condensed to atoms (all electrons):
               1          2          3          4          5          6
     1  C    4.957800   0.282779  -0.046591   0.010040  -0.002451   0.014178
     2  C    0.282779   5.092287   0.487093  -0.050498  -0.075064   0.030481
     3  C   -0.046591   0.487093   4.781606   0.570638  -0.098537  -0.048652
     4  N    0.010040  -0.050498   0.570638   6.607427   0.390005  -0.079611
     5  C   -0.002451  -0.075064  -0.098537   0.390005   5.286164   0.355692
     6  C    0.014178   0.030481  -0.048652  -0.079611   0.355692   5.237416
     7  C   -0.091148   0.372152  -0.002688  -0.068695  -0.001456   0.379827
     8  C    0.000056   0.013562  -0.003607   0.008259  -0.055479   0.279931
     9  C    0.000006  -0.001048   0.000694   0.000343  -0.011510  -0.044444
    10  C   -0.000049  -0.002002   0.002098   0.015678   0.017003  -0.048689
    11  C    0.000044   0.002933  -0.002288  -0.048721   0.267972  -0.016319
    12  O    0.000005  -0.000098  -0.000250  -0.018427  -0.050410   0.020201
    13  H    0.403684  -0.028123  -0.003241  -0.000305   0.000176  -0.000934
    14  H    0.417656  -0.042423  -0.000588  -0.000264  -0.000183   0.001407
    15  H    0.425812  -0.062681  -0.001563   0.000175   0.000597  -0.001081
    16  H   -0.004567  -0.089218   0.442061  -0.027630   0.007455  -0.002350
    17  H   -0.004019  -0.055866   0.005847  -0.002118   0.013494  -0.060387
    18  H   -0.000015  -0.001066   0.000359  -0.000310  -0.008990  -0.041715
    19  H   -0.000074  -0.000814   0.000396  -0.000294   0.007530  -0.054036
    20  H    0.000000   0.000025  -0.000015   0.000030   0.000890   0.012552
    21  H   -0.000001   0.000180  -0.000150  -0.000705  -0.011676   0.004990
    22  H    0.000000   0.000033   0.000016  -0.000157   0.015383  -0.002850
    23  H    0.000000   0.000110  -0.000116  -0.000444  -0.003226  -0.003717
    24  H   -0.000006   0.000928  -0.000954  -0.007669  -0.074850   0.025759
    25  H   -0.000027  -0.000636   0.002354   0.021082  -0.015867  -0.001994
               7          8          9         10         11         12
     1  C   -0.091148   0.000056   0.000006  -0.000049   0.000044   0.000005
     2  C    0.372152   0.013562  -0.001048  -0.002002   0.002933  -0.000098
     3  C   -0.002688  -0.003607   0.000694   0.002098  -0.002288  -0.000250
     4  N   -0.068695   0.008259   0.000343   0.015678  -0.048721  -0.018427
     5  C   -0.001456  -0.055479  -0.011510   0.017003   0.267972  -0.050410
     6  C    0.379827   0.279931  -0.044444  -0.048689  -0.016319   0.020201
     7  C    5.285044  -0.079748   0.006338   0.004658  -0.006101   0.001943
     8  C   -0.079748   4.965626   0.332859  -0.034937   0.003343  -0.000835
     9  C    0.006338   0.332859   4.902547   0.308119  -0.006992  -0.012712
    10  C    0.004658  -0.034937   0.308119   5.045112   0.257584  -0.047426
    11  C   -0.006101   0.003343  -0.006992   0.257584   4.714347   0.305147
    12  O    0.001943  -0.000835  -0.012712  -0.047426   0.305147   8.011082
    13  H   -0.006213  -0.000021  -0.000004   0.000001   0.000012   0.000000
    14  H   -0.005418  -0.000038   0.000007   0.000000  -0.000018  -0.000001
    15  H    0.013307  -0.000002  -0.000000   0.000000  -0.000003   0.000000
    16  H    0.009555   0.000152  -0.000006  -0.000003  -0.000263   0.000053
    17  H    0.445933  -0.006111   0.000456   0.000061  -0.000283   0.000023
    18  H    0.002900   0.407530  -0.024678  -0.005286  -0.002491  -0.000103
    19  H    0.003941   0.414659  -0.031227   0.009996  -0.001734  -0.000012
    20  H   -0.000690  -0.048900   0.422093  -0.032925   0.005869  -0.000013
    21  H    0.001069  -0.025575   0.413722  -0.046441   0.006070   0.010710
    22  H   -0.000156   0.009175  -0.030042   0.414468  -0.042707   0.002699
    23  H   -0.000046   0.005695  -0.046843   0.407291  -0.025036   0.003100
    24  H   -0.000418  -0.002711   0.007330  -0.085713   0.465722  -0.048145
    25  H    0.001395  -0.000602   0.000182   0.013353  -0.036365   0.301526
              13         14         15         16         17         18
     1  C    0.403684   0.417656   0.425812  -0.004567  -0.004019  -0.000015
     2  C   -0.028123  -0.042423  -0.062681  -0.089218  -0.055866  -0.001066
     3  C   -0.003241  -0.000588  -0.001563   0.442061   0.005847   0.000359
     4  N   -0.000305  -0.000264   0.000175  -0.027630  -0.002118  -0.000310
     5  C    0.000176  -0.000183   0.000597   0.007455   0.013494  -0.008990
     6  C   -0.000934   0.001407  -0.001081  -0.002350  -0.060387  -0.041715
     7  C   -0.006213  -0.005418   0.013307   0.009555   0.445933   0.002900
     8  C   -0.000021  -0.000038  -0.000002   0.000152  -0.006111   0.407530
     9  C   -0.000004   0.000007  -0.000000  -0.000006   0.000456  -0.024678
    10  C    0.000001   0.000000   0.000000  -0.000003   0.000061  -0.005286
    11  C    0.000012  -0.000018  -0.000003  -0.000263  -0.000283  -0.002491
    12  O    0.000000  -0.000001   0.000000   0.000053   0.000023  -0.000103
    13  H    0.553163  -0.031460  -0.020477  -0.000005   0.000042  -0.000004
    14  H   -0.031460   0.551181  -0.021221  -0.000101   0.000315   0.000007
    15  H   -0.020477  -0.021221   0.539492   0.003088   0.000199  -0.000000
    16  H   -0.000005  -0.000101   0.003088   0.545708  -0.000216  -0.000001
    17  H    0.000042   0.000315   0.000199  -0.000216   0.536788   0.000276
    18  H   -0.000004   0.000007  -0.000000  -0.000001   0.000276   0.590309
    19  H    0.000007  -0.000013   0.000002  -0.000002   0.003586  -0.029020
    20  H   -0.000000   0.000000   0.000000   0.000000  -0.000023  -0.004585
    21  H    0.000000   0.000000  -0.000000  -0.000002  -0.000013   0.005649
    22  H    0.000000  -0.000000  -0.000000  -0.000001  -0.000004   0.000152
    23  H   -0.000000   0.000000   0.000000  -0.000001  -0.000008   0.002316
    24  H   -0.000001   0.000001   0.000000  -0.000158   0.000025   0.000186
    25  H    0.000000   0.000001   0.000000  -0.000100   0.000016   0.000012
              19         20         21         22         23         24
     1  C   -0.000074   0.000000  -0.000001   0.000000   0.000000  -0.000006
     2  C   -0.000814   0.000025   0.000180   0.000033   0.000110   0.000928
     3  C    0.000396  -0.000015  -0.000150   0.000016  -0.000116  -0.000954
     4  N   -0.000294   0.000030  -0.000705  -0.000157  -0.000444  -0.007669
     5  C    0.007530   0.000890  -0.011676   0.015383  -0.003226  -0.074850
     6  C   -0.054036   0.012552   0.004990  -0.002850  -0.003717   0.025759
     7  C    0.003941  -0.000690   0.001069  -0.000156  -0.000046  -0.000418
     8  C    0.414659  -0.048900  -0.025575   0.009175   0.005695  -0.002711
     9  C   -0.031227   0.422093   0.413722  -0.030042  -0.046843   0.007330
    10  C    0.009996  -0.032925  -0.046441   0.414468   0.407291  -0.085713
    11  C   -0.001734   0.005869   0.006070  -0.042707  -0.025036   0.465722
    12  O   -0.000012  -0.000013   0.010710   0.002699   0.003100  -0.048145
    13  H    0.000007  -0.000000   0.000000   0.000000  -0.000000  -0.000001
    14  H   -0.000013   0.000000   0.000000  -0.000000   0.000000   0.000001
    15  H    0.000002   0.000000  -0.000000  -0.000000   0.000000   0.000000
    16  H   -0.000002   0.000000  -0.000002  -0.000001  -0.000001  -0.000158
    17  H    0.003586  -0.000023  -0.000013  -0.000004  -0.000008   0.000025
    18  H   -0.029020  -0.004585   0.005649   0.000152   0.002316   0.000186
    19  H    0.570127  -0.003550  -0.005007  -0.000289   0.000160   0.000027
    20  H   -0.003550   0.576348  -0.025667  -0.004823  -0.003910  -0.000263
    21  H   -0.005007  -0.025667   0.553957  -0.002528   0.006389   0.001264
    22  H   -0.000289  -0.004823  -0.002528   0.547360  -0.020501  -0.003090
    23  H    0.000160  -0.003910   0.006389  -0.020501   0.584900  -0.002642
    24  H    0.000027  -0.000263   0.001264  -0.003090  -0.002642   0.647275
    25  H    0.000006   0.000040  -0.000827  -0.000499  -0.000693  -0.003582
              25
     1  C   -0.000027
     2  C   -0.000636
     3  C    0.002354
     4  N    0.021082
     5  C   -0.015867
     6  C   -0.001994
     7  C    0.001395
     8  C   -0.000602
     9  C    0.000182
    10  C    0.013353
    11  C   -0.036365
    12  O    0.301526
    13  H    0.000000
    14  H    0.000001
    15  H    0.000000
    16  H   -0.000100
    17  H    0.000016
    18  H    0.000012
    19  H    0.000006
    20  H    0.000040
    21  H   -0.000827
    22  H   -0.000499
    23  H   -0.000693
    24  H   -0.003582
    25  H    0.403874
 Mulliken charges:
               1
     1  C   -0.363112
     2  C    0.126975
     3  C   -0.083921
     4  N   -0.317828
     5  C    0.047338
     6  C    0.044345
     7  C   -0.265283
     8  C   -0.182281
     9  C   -0.185190
    10  C   -0.191953
    11  C    0.160280
    12  O   -0.478057
    13  H    0.133704
    14  H    0.131151
    15  H    0.124356
    16  H    0.116554
    17  H    0.121988
    18  H    0.108571
    19  H    0.115635
    20  H    0.107516
    21  H    0.114592
    22  H    0.118362
    23  H    0.097221
    24  H    0.081685
    25  H    0.317351
 Sum of Mulliken charges =  -0.00000
 Mulliken charges with hydrogens summed into heavy atoms:
               1
     1  C    0.026098
     2  C    0.126975
     3  C    0.032633
     4  N   -0.317828
     5  C    0.047338
     6  C    0.044345
     7  C   -0.143295
     8  C    0.041925
     9  C    0.036919
    10  C    0.023631
    11  C    0.241966
    12  O   -0.160706
 Electronic spatial extent (au):  <R**2>=           2159.1502
 Charge=              0.0000 electrons
 Dipole moment (field-independent basis, Debye):
    X=             -1.9604    Y=              2.2577    Z=             -0.4550  Tot=              3.0244
 Quadrupole moment (field-independent basis, Debye-Ang):
   XX=            -67.5754   YY=            -70.4186   ZZ=            -73.3827
   XY=              2.6225   XZ=             -3.4768   YZ=             -0.0360
 Traceless Quadrupole moment (field-independent basis, Debye-Ang):
   XX=              2.8835   YY=              0.0403   ZZ=             -2.9238
   XY=              2.6225   XZ=             -3.4768   YZ=             -0.0360
 Octapole moment (field-independent basis, Debye-Ang**2):
  XXX=            -22.0403  YYY=             -3.2668  ZZZ=              2.5711  XYY=             -3.5447
  XXY=              6.1258  XXZ=             -6.0665  XZZ=              3.4124  YZZ=             -1.5382
  YYZ=              5.6128  XYZ=              2.9864
 Hexadecapole moment (field-independent basis, Debye-Ang**3):
 XXXX=          -1965.5068 YYYY=           -706.3008 ZZZZ=           -166.4483 XXXY=             27.4193
 XXXZ=            -13.0508 YYYX=            -10.3594 YYYZ=            -16.9966 ZZZX=              1.9150
 ZZZY=             -7.3240 XXYY=           -452.5233 XXZZ=           -374.6454 YYZZ=           -144.6821
 XXYZ=             10.4363 YYXZ=             -3.9449 ZZXY=             -6.1024
 N-N= 7.019062511743D+02 E-N=-2.611227731615D+03  KE= 5.161023915659D+02
 Breneman (CHELPG) radii used.
 Read replacement radii for each type of atom:
 Atom Element Radius
    1     6    1.50
    2     6    1.50
    3     6    1.50
    4     7    1.70
    5     6    1.50
    6     6    1.50
    7     6    1.50
    8     6    1.50
    9     6    1.50
   10     6    1.50
   11     6    1.50
   12     8    1.70
   13     1    1.45
   14     1    1.45
   15     1    1.45
   16     1    1.45
   17     1    1.45
   18     1    1.45
   19     1    1.45
   20     1    1.45
   21     1    1.45
   22     1    1.45
   23     1    1.45
   24     1    1.45
   25     1    1.45
 Generate Potential Derived Charges using the Breneman model, NDens= 1.
 Grid spacing= 0.300 Box extension= 2.800
 NStep X,Y,Z=   46     37     30   Total possible points=       51060
 Number of Points to Fit=   15094

 **********************************************************************

            Electrostatic Properties Using The SCF Density.

 **********************************************************************

       Atomic Center    1 is at  -3.886850  0.339930  0.140340
       Atomic Center    2 is at  -2.412950  0.065970  0.018310
       Atomic Center    3 is at  -1.916080 -1.234350 -0.125230
       Atomic Center    4 is at  -0.626820 -1.519489 -0.255970
       Atomic Center    5 is at   0.262350 -0.525159 -0.254280
       Atomic Center    6 is at  -0.105630  0.816331 -0.075550
       Atomic Center    7 is at  -1.467870  1.091910  0.050210
       Atomic Center    8 is at   0.938319  1.906301 -0.003550
       Atomic Center    9 is at   2.309100  1.356671  0.384480
       Atomic Center   10 is at   2.679330  0.190382 -0.525970
       Atomic Center   11 is at   1.711050 -0.973049 -0.360810
       Atomic Center   12 is at   2.061741 -1.685809  0.805480
       Atomic Center   13 is at  -4.263510  0.877500 -0.743990
       Atomic Center   14 is at  -4.105110  0.962960  1.020790
       Atomic Center   15 is at  -4.460650 -0.592701  0.234090
       Atomic Center   16 is at  -2.608769 -2.084760 -0.129350
       Atomic Center   17 is at  -1.795091  2.127590  0.191240
       Atomic Center   18 is at   1.008289  2.400901 -0.989540
       Atomic Center   19 is at   0.608259  2.682381  0.704710
       Atomic Center   20 is at   3.065959  2.153102  0.326510
       Atomic Center   21 is at   2.288620  1.001331  1.427590
       Atomic Center   22 is at   3.693280 -0.179328 -0.315330
       Atomic Center   23 is at   2.665200  0.522902 -1.578030
       Atomic Center   24 is at   1.780700 -1.637179 -1.244110
       Atomic Center   25 is at   1.352021 -2.321429  0.955700
   15094 points will be used for fitting atomic charges
 Fitting point charges to electrostatic potential
 Charges from ESP fit, RMS=   0.00286 RRMS=   0.24159:
 ESP charges:
               1
     1  C   -0.293897
     2  C    0.040937
     3  C    0.207980
     4  N   -0.585635
     5  C    0.317442
     6  C   -0.080282
     7  C   -0.115266
     8  C   -0.049638
     9  C    0.102098
    10  C   -0.064865
    11  C    0.199555
    12  O   -0.595308
    13  H    0.090542
    14  H    0.094579
    15  H    0.084487
    16  H    0.059390
    17  H    0.117904
    18  H    0.025704
    19  H    0.030661
    20  H   -0.020048
    21  H   -0.006923
    22  H    0.058844
    23  H   -0.001575
    24  H    0.006428
    25  H    0.376888
 Sum of ESP charges =   0.00000
 ESP charges with hydrogens summed into heavy atoms:
               1
     1  C   -0.024290
     2  C    0.040937
     3  C    0.267370
     4  N   -0.585635
     5  C    0.317442
     6  C   -0.080282
     7  C    0.002638
     8  C    0.006727
     9  C    0.075127
    10  C   -0.007597
    11  C    0.205982
    12  O   -0.218420
 Charge=   0.00000 Dipole=    -1.9875     2.2254    -0.4580 Tot=     3.0186
 -----------------------------------------------------------------

              Electrostatic Properties (Atomic Units)

 -----------------------------------------------------------------
    Center     Electric         -------- Electric Field --------
               Potential          X             Y             Z
 -----------------------------------------------------------------
    1 Atom    -14.760604
    2 Atom    -14.751989
    3 Atom    -14.741024
    4 Atom    -18.400310
    5 Atom    -14.739936
    6 Atom    -14.754421
    7 Atom    -14.757179
    8 Atom    -14.760049
    9 Atom    -14.771400
   10 Atom    -14.775117
   11 Atom    -14.721649
   12 Atom    -22.370848
   13 Atom     -1.105488
   14 Atom     -1.105675
   15 Atom     -1.107184
   16 Atom     -1.107182
   17 Atom     -1.093361
   18 Atom     -1.114527
   19 Atom     -1.115535
   20 Atom     -1.127393
   21 Atom     -1.131663
   22 Atom     -1.128110
   23 Atom     -1.124563
   24 Atom     -1.134004
   25 Atom     -1.018767
 -----------------------------------------------------------------
 Unable to Open any file for archive entry.
 1\1\GINC-NOTCH404\SP\RwB97XD\def2TZVP\C10H13N1O1\U6053008\12-Jul-2024\
 0\\#N Guess=Read Geom=Check Integral(Ultrafine) Density Pop=(ChelpG,Re
 adRadii) NMR wB97XD def2TZVP\\12358222_3\\0,1\C,0,-3.88685,0.33993,0.1
 4034\C,0,-2.41295,0.06597,0.01831\C,0,-1.91608,-1.23435,-0.12523\N,0,-
 0.62682,-1.51949,-0.25597\C,0,0.26235,-0.52516,-0.25428\C,0,-0.10563,0
 .81633,-0.07555\C,0,-1.46787,1.09191,0.05021\C,0,0.93832,1.9063,-0.003
 55\C,0,2.3091,1.35667,0.38448\C,0,2.67933,0.19038,-0.52597\C,0,1.71105
 ,-0.97305,-0.36081\O,0,2.06174,-1.68581,0.80548\H,0,-4.26351,0.8775,-0
 .74399\H,0,-4.10511,0.96296,1.02079\H,0,-4.46065,-0.5927,0.23409\H,0,-
 2.60877,-2.08476,-0.12935\H,0,-1.79509,2.12759,0.19124\H,0,1.00829,2.4
 009,-0.98954\H,0,0.60826,2.68238,0.70471\H,0,3.06596,2.1531,0.32651\H,
 0,2.28862,1.00133,1.42759\H,0,3.69328,-0.17933,-0.31533\H,0,2.6652,0.5
 229,-1.57803\H,0,1.7807,-1.63718,-1.24411\H,0,1.35202,-2.32143,0.9557\
 \Version=ES64L-G16RevC.01\State=1-A\HF=-518.9027235\RMSD=2.548e-09\Dip
 ole=-0.7712628,0.8882546,-0.1790012\Quadrupole=2.1438,0.0299661,-2.173
 7661,1.9497993,-2.58489,-0.0267858\PG=C01 [X(C10H13N1O1)]\\@
 The archive entry for this job was punched.


 I do not feel obliged to believe that the same God who
 has endowed us with sense, reason, and intellect has
 intended us to forgo their use.
                   --Galileo Galilei
 Job cpu time:       0 days  0 hours 44 minutes 36.6 seconds.
 Elapsed time:       0 days  0 hours  2 minutes 56.0 seconds.
 File lengths (MBytes):  RWF=    130 Int=      0 D2E=      0 Chk=     20 Scr=      2
 Normal termination of Gaussian 16 at Fri Jul 12 13:24:12 2024.
