 Entering Gaussian System, Link 0=g16
 Input=12356206_2.com
 Output=12356206_2.log
 Initial command:
 /uufs/chpc.utah.edu/sys/installdir/gaussian16/C01/AVX/g16/l1.exe "/scratch/general/vast/u6053008/1287155-notchpeak.peaks/Gau-3539328.inp" -scrdir="/scratch/general/vast/u6053008/1287155-notchpeak.peaks/"
 Entering Link 1 = /uufs/chpc.utah.edu/sys/installdir/gaussian16/C01/AVX/g16/l1.exe PID=   3539329.
  
 Copyright (c) 1988-2019, Gaussian, Inc.  All Rights Reserved.
  
 This is part of the Gaussian(R) 16 program.  It is based on
 the Gaussian(R) 09 system (copyright 2009, Gaussian, Inc.),
 the Gaussian(R) 03 system (copyright 2003, Gaussian, Inc.),
 the Gaussian(R) 98 system (copyright 1998, Gaussian, Inc.),
 the Gaussian(R) 94 system (copyright 1995, Gaussian, Inc.),
 the Gaussian 92(TM) system (copyright 1992, Gaussian, Inc.),
 the Gaussian 90(TM) system (copyright 1990, Gaussian, Inc.),
 the Gaussian 88(TM) system (copyright 1988, Gaussian, Inc.),
 the Gaussian 86(TM) system (copyright 1986, Carnegie Mellon
 University), and the Gaussian 82(TM) system (copyright 1983,
 Carnegie Mellon University). Gaussian is a federally registered
 trademark of Gaussian, Inc.
  
 This software contains proprietary and confidential information,
 including trade secrets, belonging to Gaussian, Inc.
  
 This software is provided under written license and may be
 used, copied, transmitted, or stored only in accord with that
 written license.
  
 The following legend is applicable only to US Government
 contracts under FAR:
  
                    RESTRICTED RIGHTS LEGEND
  
 Use, reproduction and disclosure by the US Government is
 subject to restrictions as set forth in subparagraphs (a)
 and (c) of the Commercial Computer Software - Restricted
 Rights clause in FAR 52.227-19.
  
 Gaussian, Inc.
 340 Quinnipiac St., Bldg. 40, Wallingford CT 06492
  
  
 ---------------------------------------------------------------
 Warning -- This program may not be used in any manner that
 competes with the business of Gaussian, Inc. or will provide
 assistance to any competitor of Gaussian, Inc.  The licensee
 of this program is prohibited from giving any competitor of
 Gaussian, Inc. access to this program.  By using this program,
 the user acknowledges that Gaussian, Inc. is engaged in the
 business of creating and licensing software in the field of
 computational chemistry and represents and warrants to the
 licensee that it is not a competitor of Gaussian, Inc. and that
 it will not use this program in any manner prohibited above.
 ---------------------------------------------------------------
  

 Cite this work as:
 Gaussian 16, Revision C.01,
 M. J. Frisch, G. W. Trucks, H. B. Schlegel, G. E. Scuseria, 
 M. A. Robb, J. R. Cheeseman, G. Scalmani, V. Barone, 
 G. A. Petersson, H. Nakatsuji, X. Li, M. Caricato, A. V. Marenich, 
 J. Bloino, B. G. Janesko, R. Gomperts, B. Mennucci, H. P. Hratchian, 
 J. V. Ortiz, A. F. Izmaylov, J. L. Sonnenberg, D. Williams-Young, 
 F. Ding, F. Lipparini, F. Egidi, J. Goings, B. Peng, A. Petrone, 
 T. Henderson, D. Ranasinghe, V. G. Zakrzewski, J. Gao, N. Rega, 
 G. Zheng, W. Liang, M. Hada, M. Ehara, K. Toyota, R. Fukuda, 
 J. Hasegawa, M. Ishida, T. Nakajima, Y. Honda, O. Kitao, H. Nakai, 
 T. Vreven, K. Throssell, J. A. Montgomery, Jr., J. E. Peralta, 
 F. Ogliaro, M. J. Bearpark, J. J. Heyd, E. N. Brothers, K. N. Kudin, 
 V. N. Staroverov, T. A. Keith, R. Kobayashi, J. Normand, 
 K. Raghavachari, A. P. Rendell, J. C. Burant, S. S. Iyengar, 
 J. Tomasi, M. Cossi, J. M. Millam, M. Klene, C. Adamo, R. Cammi, 
 J. W. Ochterski, R. L. Martin, K. Morokuma, O. Farkas, 
 J. B. Foresman, and D. J. Fox, Gaussian, Inc., Wallingford CT, 2019.
 
 ******************************************
 Gaussian 16:  ES64L-G16RevC.01  3-Jul-2019
                12-Jul-2024 
 ******************************************
 %NProcShared=16
 Will use up to   16 processors via shared memory.
 %Mem=32GB
 %chk=12356206_2.chk
 ------------------------------------------------------
 #N OPT FREQ=NORAMAN Integral(Ultrafine) wB97XD def2SVP
 ------------------------------------------------------
 1/18=20,19=15,26=4,38=1/1,3;
 2/9=110,12=2,17=6,18=5,40=1/2;
 3/5=43,7=101,11=2,25=1,30=1,71=1,74=-58,75=-5/1,2,3;
 4//1;
 5/5=2,38=5/2;
 6/7=2,8=2,9=2,10=2,28=1/1;
 7//1,2,3,16;
 1/18=20,19=15,26=4/3(2);
 2/9=110/2;
 99//99;
 2/9=110/2;
 3/5=43,7=101,11=2,25=1,30=1,71=1,74=-58,75=-5/1,2,3;
 4/5=5,16=3,69=1/1;
 5/5=2,38=5/2;
 7//1,2,3,16;
 1/18=20,19=15,26=4/3(-5);
 2/9=110/2;
 6/7=2,8=2,9=2,10=2,19=2,28=1/1;
 99/9=1/99;
 ----------
 12356206_2
 ----------
 Symbolic Z-matrix:
 Charge =  0 Multiplicity = 1
 C                     3.45249  -1.9659   -0.00012 
 O                     2.11471  -1.49905  -0.0003 
 C                     1.95133  -0.16965   0.00011 
 O                     2.88291   0.59461   0.00052 
 C                     0.50797   0.21852   0.00001 
 C                    -0.46817  -0.7745    0.00003 
 C                    -1.81746  -0.42215   0. 
 O                    -2.71832  -1.42383   0.00003 
 C                    -4.08437  -1.10298   0.00012 
 C                    -2.12271   0.94208  -0.00007 
 N                    -1.18948   1.88999  -0.00012 
 C                     0.10485   1.57754  -0.00008 
 C                     1.06228   2.7369   -0.00013 
 H                     3.99018  -1.61313   0.89176 
 H                     3.39491  -3.05994   0.00003 
 H                     3.99031  -1.61343  -0.89205 
 H                    -0.19143  -1.82839   0.00008 
 H                    -4.36959  -0.52764   0.89808 
 H                    -4.63019  -2.05399   0.00023 
 H                    -4.36973  -0.52777  -0.89788 
 H                    -3.15973   1.29125  -0.0001 
 H                     1.72262   2.71339  -0.87813 
 H                     0.47503   3.66296  -0.00043 
 H                     1.72224   2.71373   0.87816 
 

 GradGradGradGradGradGradGradGradGradGradGradGradGradGradGradGradGradGrad
 Berny optimization.
 Initialization pass.
                           ----------------------------
                           !    Initial Parameters    !
                           ! (Angstroms and Degrees)  !
 --------------------------                            --------------------------
 ! Name  Definition              Value          Derivative Info.                !
 --------------------------------------------------------------------------------
 ! R1    R(1,2)                  1.4169         estimate D2E/DX2                !
 ! R2    R(1,14)                 1.0995         estimate D2E/DX2                !
 ! R3    R(1,15)                 1.0956         estimate D2E/DX2                !
 ! R4    R(1,16)                 1.0996         estimate D2E/DX2                !
 ! R5    R(2,3)                  1.3394         estimate D2E/DX2                !
 ! R6    R(3,4)                  1.205          estimate D2E/DX2                !
 ! R7    R(3,5)                  1.4946         estimate D2E/DX2                !
 ! R8    R(5,6)                  1.3925         estimate D2E/DX2                !
 ! R9    R(5,12)                 1.4175         estimate D2E/DX2                !
 ! R10   R(6,7)                  1.3945         estimate D2E/DX2                !
 ! R11   R(6,17)                 1.0896         estimate D2E/DX2                !
 ! R12   R(7,8)                  1.3472         estimate D2E/DX2                !
 ! R13   R(7,10)                 1.398          estimate D2E/DX2                !
 ! R14   R(8,9)                  1.4032         estimate D2E/DX2                !
 ! R15   R(9,18)                 1.1039         estimate D2E/DX2                !
 ! R16   R(9,19)                 1.0965         estimate D2E/DX2                !
 ! R17   R(9,20)                 1.1039         estimate D2E/DX2                !
 ! R18   R(10,11)                1.3302         estimate D2E/DX2                !
 ! R19   R(10,21)                1.0942         estimate D2E/DX2                !
 ! R20   R(11,12)                1.3315         estimate D2E/DX2                !
 ! R21   R(12,13)                1.5036         estimate D2E/DX2                !
 ! R22   R(13,22)                1.0989         estimate D2E/DX2                !
 ! R23   R(13,23)                1.0966         estimate D2E/DX2                !
 ! R24   R(13,24)                1.0989         estimate D2E/DX2                !
 ! A1    A(2,1,14)             110.8607         estimate D2E/DX2                !
 ! A2    A(2,1,15)             106.2249         estimate D2E/DX2                !
 ! A3    A(2,1,16)             110.8602         estimate D2E/DX2                !
 ! A4    A(14,1,15)            110.2415         estimate D2E/DX2                !
 ! A5    A(14,1,16)            108.4174         estimate D2E/DX2                !
 ! A6    A(15,1,16)            110.2387         estimate D2E/DX2                !
 ! A7    A(1,2,3)              116.244          estimate D2E/DX2                !
 ! A8    A(2,3,4)              122.3588         estimate D2E/DX2                !
 ! A9    A(2,3,5)              112.0591         estimate D2E/DX2                !
 ! A10   A(4,3,5)              125.5822         estimate D2E/DX2                !
 ! A11   A(3,5,6)              119.4562         estimate D2E/DX2                !
 ! A12   A(3,5,12)             121.5744         estimate D2E/DX2                !
 ! A13   A(6,5,12)             118.9694         estimate D2E/DX2                !
 ! A14   A(5,6,7)              119.8736         estimate D2E/DX2                !
 ! A15   A(5,6,17)             120.7781         estimate D2E/DX2                !
 ! A16   A(7,6,17)             119.3483         estimate D2E/DX2                !
 ! A17   A(6,7,8)              117.3314         estimate D2E/DX2                !
 ! A18   A(6,7,10)             117.2476         estimate D2E/DX2                !
 ! A19   A(8,7,10)             125.4211         estimate D2E/DX2                !
 ! A20   A(7,8,9)              118.7489         estimate D2E/DX2                !
 ! A21   A(8,9,18)             111.7611         estimate D2E/DX2                !
 ! A22   A(8,9,19)             106.6354         estimate D2E/DX2                !
 ! A23   A(8,9,20)             111.7606         estimate D2E/DX2                !
 ! A24   A(18,9,19)            108.8638         estimate D2E/DX2                !
 ! A25   A(18,9,20)            108.8641         estimate D2E/DX2                !
 ! A26   A(19,9,20)            108.8637         estimate D2E/DX2                !
 ! A27   A(7,10,11)            122.8348         estimate D2E/DX2                !
 ! A28   A(7,10,21)            121.221          estimate D2E/DX2                !
 ! A29   A(11,10,21)           115.9442         estimate D2E/DX2                !
 ! A30   A(10,11,12)           120.9814         estimate D2E/DX2                !
 ! A31   A(5,12,11)            120.0932         estimate D2E/DX2                !
 ! A32   A(5,12,13)            123.9275         estimate D2E/DX2                !
 ! A33   A(11,12,13)           115.9793         estimate D2E/DX2                !
 ! A34   A(12,13,22)           111.4803         estimate D2E/DX2                !
 ! A35   A(12,13,23)           108.0689         estimate D2E/DX2                !
 ! A36   A(12,13,24)           111.4783         estimate D2E/DX2                !
 ! A37   A(22,13,23)           109.8569         estimate D2E/DX2                !
 ! A38   A(22,13,24)           106.0972         estimate D2E/DX2                !
 ! A39   A(23,13,24)           109.8564         estimate D2E/DX2                !
 ! D1    D(14,1,2,3)            60.2022         estimate D2E/DX2                !
 ! D2    D(15,1,2,3)           179.9708         estimate D2E/DX2                !
 ! D3    D(16,1,2,3)           -60.2642         estimate D2E/DX2                !
 ! D4    D(1,2,3,4)              0.0048         estimate D2E/DX2                !
 ! D5    D(1,2,3,5)           -179.9945         estimate D2E/DX2                !
 ! D6    D(2,3,5,6)              0.0236         estimate D2E/DX2                !
 ! D7    D(2,3,5,12)          -179.9776         estimate D2E/DX2                !
 ! D8    D(4,3,5,6)           -179.9757         estimate D2E/DX2                !
 ! D9    D(4,3,5,12)             0.0231         estimate D2E/DX2                !
 ! D10   D(3,5,6,7)            179.997          estimate D2E/DX2                !
 ! D11   D(3,5,6,17)            -0.0023         estimate D2E/DX2                !
 ! D12   D(12,5,6,7)            -0.0018         estimate D2E/DX2                !
 ! D13   D(12,5,6,17)          179.9989         estimate D2E/DX2                !
 ! D14   D(3,5,12,11)         -179.9976         estimate D2E/DX2                !
 ! D15   D(3,5,12,13)            0.0021         estimate D2E/DX2                !
 ! D16   D(6,5,12,11)            0.0012         estimate D2E/DX2                !
 ! D17   D(6,5,12,13)         -179.9991         estimate D2E/DX2                !
 ! D18   D(5,6,7,8)           -179.9996         estimate D2E/DX2                !
 ! D19   D(5,6,7,10)             0.0009         estimate D2E/DX2                !
 ! D20   D(17,6,7,8)            -0.0002         estimate D2E/DX2                !
 ! D21   D(17,6,7,10)         -179.9997         estimate D2E/DX2                !
 ! D22   D(6,7,8,9)            179.9945         estimate D2E/DX2                !
 ! D23   D(10,7,8,9)            -0.0061         estimate D2E/DX2                !
 ! D24   D(6,7,10,11)            0.0006         estimate D2E/DX2                !
 ! D25   D(6,7,10,21)          179.9998         estimate D2E/DX2                !
 ! D26   D(8,7,10,11)         -179.9988         estimate D2E/DX2                !
 ! D27   D(8,7,10,21)            0.0004         estimate D2E/DX2                !
 ! D28   D(7,8,9,18)           -61.1388         estimate D2E/DX2                !
 ! D29   D(7,8,9,19)          -179.9945         estimate D2E/DX2                !
 ! D30   D(7,8,9,20)            61.1501         estimate D2E/DX2                !
 ! D31   D(7,10,11,12)          -0.0013         estimate D2E/DX2                !
 ! D32   D(21,10,11,12)        179.9995         estimate D2E/DX2                !
 ! D33   D(10,11,12,5)           0.0003         estimate D2E/DX2                !
 ! D34   D(10,11,12,13)       -179.9994         estimate D2E/DX2                !
 ! D35   D(5,12,13,22)          59.1671         estimate D2E/DX2                !
 ! D36   D(5,12,13,23)         179.9872         estimate D2E/DX2                !
 ! D37   D(5,12,13,24)         -59.1945         estimate D2E/DX2                !
 ! D38   D(11,12,13,22)       -120.8331         estimate D2E/DX2                !
 ! D39   D(11,12,13,23)         -0.013          estimate D2E/DX2                !
 ! D40   D(11,12,13,24)        120.8052         estimate D2E/DX2                !
 --------------------------------------------------------------------------------
 Trust Radius=3.00D-01 FncErr=1.00D-07 GrdErr=1.00D-06 EigMax=2.50D+02 EigMin=1.00D-04
 Number of steps in this run=    113 maximum allowed number of steps=    144.
 GradGradGradGradGradGradGradGradGradGradGradGradGradGradGradGradGradGrad

                          Input orientation:                          
 ---------------------------------------------------------------------
 Center     Atomic      Atomic             Coordinates (Angstroms)
 Number     Number       Type             X           Y           Z
 ---------------------------------------------------------------------
      1          6           0        3.452490   -1.965900   -0.000120
      2          8           0        2.114710   -1.499050   -0.000300
      3          6           0        1.951330   -0.169650    0.000110
      4          8           0        2.882910    0.594610    0.000520
      5          6           0        0.507970    0.218520    0.000010
      6          6           0       -0.468170   -0.774500    0.000030
      7          6           0       -1.817460   -0.422150    0.000000
      8          8           0       -2.718320   -1.423830    0.000030
      9          6           0       -4.084370   -1.102980    0.000120
     10          6           0       -2.122710    0.942080   -0.000070
     11          7           0       -1.189480    1.889990   -0.000120
     12          6           0        0.104850    1.577540   -0.000080
     13          6           0        1.062280    2.736900   -0.000130
     14          1           0        3.990180   -1.613130    0.891760
     15          1           0        3.394910   -3.059940    0.000030
     16          1           0        3.990310   -1.613430   -0.892050
     17          1           0       -0.191430   -1.828390    0.000080
     18          1           0       -4.369590   -0.527640    0.898080
     19          1           0       -4.630190   -2.053990    0.000230
     20          1           0       -4.369730   -0.527770   -0.897880
     21          1           0       -3.159730    1.291250   -0.000100
     22          1           0        1.722620    2.713390   -0.878130
     23          1           0        0.475030    3.662960   -0.000430
     24          1           0        1.722240    2.713730    0.878160
 ---------------------------------------------------------------------
                    Distance matrix (angstroms):
                    1          2          3          4          5
     1  C    0.000000
     2  O    1.416900   0.000000
     3  C    2.340939   1.339402   0.000000
     4  O    2.623096   2.230144   1.204963   0.000000
     5  C    3.666318   2.351948   1.494645   2.404534   0.000000
     6  C    4.097683   2.682581   2.493957   3.619972   1.392458
     7  C    5.491406   4.076969   3.777239   4.809083   2.412070
     8  O    6.194573   4.833615   4.835142   5.953812   3.620257
     9  C    7.586098   6.211720   6.107436   7.171109   4.778697
    10  C    6.288021   4.890281   4.223002   5.017666   2.728372
    11  N    6.034548   4.733209   3.755903   4.273449   2.382257
    12  C    4.874696   3.674907   2.542078   2.946824   1.417548
    13  C    5.275361   4.364732   3.039481   2.811423   2.578662
    14  H    1.099549   2.079945   2.652467   2.625733   4.034346
    15  H    1.095554   2.018735   3.230743   3.690241   4.368378
    16  H    1.099557   2.079946   2.652902   2.626491   4.034663
    17  H    3.646514   2.329538   2.709767   3.914396   2.163100
    18  H    8.003767   6.617920   6.394414   7.393498   5.015364
    19  H    8.083160   6.767690   6.845958   7.966289   5.618273
    20  H    8.003831   6.617930   6.394563   7.393757   5.015487
    21  H    7.370921   5.967034   5.315747   6.082664   3.821357
    22  H    5.065482   4.320760   3.022504   2.570511   2.910478
    23  H    6.367836   5.416170   4.107111   3.900341   3.444598
    24  H    5.065973   4.321254   3.022802   2.570618   2.910614
                    6          7          8          9         10
     6  C    0.000000
     7  C    1.394537   0.000000
     8  O    2.341966   1.347187   0.000000
     9  C    3.631088   2.366941   1.403224   0.000000
    10  C    2.384145   1.397963   2.439730   2.833793   0.000000
    11  N    2.760398   2.395903   3.649487   4.163923   1.330207
    12  C    2.420835   2.773813   4.120499   4.973404   2.316427
    13  C    3.830432   4.274634   5.621798   6.421268   3.655891
    14  H    4.623350   5.995194   6.770154   8.139633   6.685199
    15  H    4.488499   5.841809   6.328383   7.731062   6.816179
    16  H    4.623598   5.995423   6.770338   8.139839   6.685452
    17  H    1.089619   2.149764   2.559071   3.959950   3.377180
    18  H    4.011049   2.707590   2.082389   1.103947   2.831116
    19  H    4.354251   3.251823   2.013045   1.096512   3.906903
    20  H    4.011146   2.707661   2.082383   1.103948   2.831187
    21  H    3.392907   2.176563   2.750728   2.566573   1.094226
    22  H    4.211425   4.809874   6.132675   7.004080   4.323782
    23  H    4.536593   4.684403   6.006073   6.595628   3.761840
    24  H    4.211503   4.809822   6.132625   7.003924   4.323618
                   11         12         13         14         15
    11  N    0.000000
    12  C    1.331509   0.000000
    13  C    2.405760   1.503592   0.000000
    14  H    6.316342   5.106030   5.318912   0.000000
    15  H    6.746735   5.686011   6.248561   1.800774   0.000000
    16  H    6.316622   5.106339   5.319234   1.783810   1.800750
    17  H    3.849994   3.418792   4.734307   4.281039   3.791906
    18  H    4.094484   5.025842   6.400720   8.429952   8.216234
    19  H    5.233877   5.967295   7.440218   8.677555   8.087902
    20  H    4.094573   5.025957   6.400840   8.617941   8.216311
    21  H    2.059217   3.277109   4.462653   7.768658   7.867411
    22  H    3.151066   2.162939   1.098857   5.195490   6.074459
    23  H    2.431875   2.118020   1.096563   6.402297   7.329603
    24  H    3.150879   2.162911   1.098853   4.885228   6.074883
                   16         17         18         19         20
    16  H    0.000000
    17  H    4.281244   0.000000
    18  H    8.618088   4.467144   0.000000
    19  H    8.677746   4.444489   1.789914   0.000000
    20  H    8.430241   4.467229   1.795960   1.789913   0.000000
    21  H    7.768900   4.306154   2.361959   3.654160   2.361979
    22  H    4.885078   5.006257   7.125603   7.991096   6.900887
    23  H    6.402536   5.531645   6.468291   7.664645   6.468333
    24  H    5.196354   5.006397   6.900527   7.990950   7.125569
                   21         22         23         24
    21  H    0.000000
    22  H    5.160500   0.000000
    23  H    4.340102   1.796809   0.000000
    24  H    5.160273   1.756290   1.796800   0.000000
 Stoichiometry    C9H11NO3
 Framework group  C1[X(C9H11NO3)]
 Deg. of freedom    66
 Full point group                 C1      NOp   1
 Largest Abelian subgroup         C1      NOp   1
 Largest concise Abelian subgroup C1      NOp   1
                         Standard orientation:                         
 ---------------------------------------------------------------------
 Center     Atomic      Atomic             Coordinates (Angstroms)
 Number     Number       Type             X           Y           Z
 ---------------------------------------------------------------------
      1          6           0       -3.452491   -1.965900    0.000121
      2          8           0       -2.114711   -1.499050    0.000301
      3          6           0       -1.951331   -0.169650   -0.000109
      4          8           0       -2.882911    0.594610   -0.000519
      5          6           0       -0.507971    0.218520   -0.000009
      6          6           0        0.468169   -0.774500   -0.000029
      7          6           0        1.817459   -0.422150    0.000001
      8          8           0        2.718319   -1.423829   -0.000029
      9          6           0        4.084369   -1.102979   -0.000119
     10          6           0        2.122709    0.942080    0.000071
     11          7           0        1.189479    1.889990    0.000121
     12          6           0       -0.104851    1.577540    0.000081
     13          6           0       -1.062281    2.736900    0.000131
     14          1           0       -3.990181   -1.613130   -0.891759
     15          1           0       -3.394911   -3.059940   -0.000029
     16          1           0       -3.990311   -1.613430    0.892051
     17          1           0        0.191429   -1.828390   -0.000079
     18          1           0        4.369589   -0.527639   -0.898079
     19          1           0        4.630189   -2.053989   -0.000229
     20          1           0        4.369729   -0.527769    0.897881
     21          1           0        3.159729    1.291251    0.000101
     22          1           0       -1.722621    2.713390    0.878131
     23          1           0       -0.475031    3.662960    0.000431
     24          1           0       -1.722241    2.713730   -0.878159
 ---------------------------------------------------------------------
 Rotational constants (GHZ):           1.3182876           0.5213444           0.3762583
 Standard basis: def2SVP (5D, 7F)
 There are   250 symmetry adapted cartesian basis functions of A   symmetry.
 There are   237 symmetry adapted basis functions of A   symmetry.
   237 basis functions,   402 primitive gaussians,   250 cartesian basis functions
    48 alpha electrons       48 beta electrons
       nuclear repulsion energy       787.0947015473 Hartrees.
 NAtoms=   24 NActive=   24 NUniq=   24 SFac= 1.00D+00 NAtFMM=   60 NAOKFM=F Big=F
 Integral buffers will be    131072 words long.
 Raffenetti 2 integral format.
 Two-electron integral symmetry is turned on.
 Nuclear repulsion after empirical dispersion term =      787.0822121003 Hartrees.
 One-electron integrals computed using PRISM.
   1 Symmetry operations used in ECPInt.
 ECPInt:  NShTT=    6216 NPrTT=   22568 LenC2=    5829 LenP2D=   15590.
 LDataN:  DoStor=T MaxTD1= 4 Len=   56
 NBasis=   237 RedAO= T EigKep=  5.33D-04  NBF=   237
 NBsUse=   237 1.00D-06 EigRej= -1.00D+00 NBFU=   237
 ExpMin= 1.22D-01 ExpMax= 2.27D+03 ExpMxC= 3.41D+02 IAcc=3 IRadAn=         5 AccDes= 0.00D+00
 Harris functional with IExCor= 4639 and IRadAn=       5 diagonalized for initial guess.
 HarFok:  IExCor= 4639 AccDes= 0.00D+00 IRadAn=         5 IDoV= 1 UseB2=F ITyADJ=14
 ICtDFT=  3500011 ScaDFX=  1.000000  1.000000  1.000000  1.000000
 FoFCou: FMM=F IPFlag=           0 FMFlag=      100000 FMFlg1=           0
         NFxFlg=           0 DoJE=T BraDBF=F KetDBF=T FulRan=T
         wScrn=  0.000000 ICntrl=       500 IOpCl=  0 I1Cent=   200000004 NGrid=           0
         NMat0=    1 NMatS0=      1 NMatT0=    0 NMatD0=    1 NMtDS0=    0 NMtDT0=    0
 Petite list used in FoFCou.
 Requested convergence on RMS density matrix=1.00D-08 within 128 cycles.
 Requested convergence on MAX density matrix=1.00D-06.
 Requested convergence on             energy=1.00D-06.
 No special actions if energy rises.
 Integral accuracy reduced to 1.0D-05 until final iterations.
 Initial convergence to 1.0D-05 achieved.  Increase integral accuracy.
 SCF Done:  E(RwB97XD) =  -629.339861097     A.U. after   15 cycles
            NFock= 15  Conv=0.92D-08     -V/T= 2.0096

 **********************************************************************

            Population analysis using the SCF Density.

 **********************************************************************

 Orbital symmetries:
       Occupied  (A) (A) (A) (A) (A) (A) (A) (A) (A) (A) (A) (A)
                 (A) (A) (A) (A) (A) (A) (A) (A) (A) (A) (A) (A)
                 (A) (A) (A) (A) (A) (A) (A) (A) (A) (A) (A) (A)
                 (A) (A) (A) (A) (A) (A) (A) (A) (A) (A) (A) (A)
       Virtual   (A) (A) (A) (A) (A) (A) (A) (A) (A) (A) (A) (A)
                 (A) (A) (A) (A) (A) (A) (A) (A) (A) (A) (A) (A)
                 (A) (A) (A) (A) (A) (A) (A) (A) (A) (A) (A) (A)
                 (A) (A) (A) (A) (A) (A) (A) (A) (A) (A) (A) (A)
                 (A) (A) (A) (A) (A) (A) (A) (A) (A) (A) (A) (A)
                 (A) (A) (A) (A) (A) (A) (A) (A) (A) (A) (A) (A)
                 (A) (A) (A) (A) (A) (A) (A) (A) (A) (A) (A) (A)
                 (A) (A) (A) (A) (A) (A) (A) (A) (A) (A) (A) (A)
                 (A) (A) (A) (A) (A) (A) (A) (A) (A) (A) (A) (A)
                 (A) (A) (A) (A) (A) (A) (A) (A) (A) (A) (A) (A)
                 (A) (A) (A) (A) (A) (A) (A) (A) (A) (A) (A) (A)
                 (A) (A) (A) (A) (A) (A) (A) (A) (A) (A) (A) (A)
                 (A) (A) (A) (A) (A) (A) (A) (A) (A) (A) (A) (A)
                 (A) (A) (A) (A) (A) (A) (A) (A) (A) (A) (A) (A)
                 (A) (A) (A) (A) (A) (A) (A) (A) (A) (A) (A) (A)
                 (A) (A) (A) (A) (A) (A) (A) (A) (A)
 The electronic state is 1-A.
 Alpha  occ. eigenvalues --  -19.30724 -19.29953 -19.24708 -14.44023 -10.43327
 Alpha  occ. eigenvalues --  -10.37137 -10.36407 -10.35833 -10.34456 -10.33928
 Alpha  occ. eigenvalues --  -10.32314 -10.32149 -10.28145  -1.21021  -1.17859
 Alpha  occ. eigenvalues --   -1.11333  -1.04370  -0.91553  -0.88574  -0.83845
 Alpha  occ. eigenvalues --   -0.81332  -0.77459  -0.74206  -0.69917  -0.66539
 Alpha  occ. eigenvalues --   -0.64164  -0.61328  -0.59393  -0.58483  -0.57370
 Alpha  occ. eigenvalues --   -0.56875  -0.55881  -0.52790  -0.52073  -0.51437
 Alpha  occ. eigenvalues --   -0.49646  -0.48461  -0.47193  -0.46821  -0.45625
 Alpha  occ. eigenvalues --   -0.44468  -0.43979  -0.42449  -0.39387  -0.36607
 Alpha  occ. eigenvalues --   -0.36538  -0.33587  -0.30984
 Alpha virt. eigenvalues --    0.01134   0.05437   0.12988   0.14163   0.15417
 Alpha virt. eigenvalues --    0.17747   0.18427   0.19090   0.20015   0.20251
 Alpha virt. eigenvalues --    0.20744   0.21453   0.21771   0.22140   0.22393
 Alpha virt. eigenvalues --    0.23908   0.27210   0.29350   0.30856   0.32250
 Alpha virt. eigenvalues --    0.33106   0.34754   0.36870   0.38300   0.41304
 Alpha virt. eigenvalues --    0.42708   0.43832   0.48489   0.50429   0.52019
 Alpha virt. eigenvalues --    0.52308   0.53004   0.54413   0.54675   0.54686
 Alpha virt. eigenvalues --    0.56229   0.56298   0.57264   0.57738   0.59491
 Alpha virt. eigenvalues --    0.62903   0.64200   0.66705   0.68707   0.68804
 Alpha virt. eigenvalues --    0.69908   0.71023   0.71629   0.72005   0.72406
 Alpha virt. eigenvalues --    0.73457   0.73681   0.74462   0.74978   0.75277
 Alpha virt. eigenvalues --    0.75811   0.76109   0.76996   0.77910   0.79677
 Alpha virt. eigenvalues --    0.80251   0.80842   0.82240   0.83951   0.85308
 Alpha virt. eigenvalues --    0.87457   0.90120   0.90803   0.92339   0.98045
 Alpha virt. eigenvalues --    1.00571   1.02157   1.05208   1.08296   1.08491
 Alpha virt. eigenvalues --    1.09346   1.13421   1.16411   1.17658   1.19981
 Alpha virt. eigenvalues --    1.23938   1.27925   1.28164   1.28520   1.29184
 Alpha virt. eigenvalues --    1.32434   1.33926   1.36206   1.37686   1.38913
 Alpha virt. eigenvalues --    1.42041   1.43218   1.46328   1.49160   1.50001
 Alpha virt. eigenvalues --    1.56460   1.58686   1.59133   1.60187   1.60576
 Alpha virt. eigenvalues --    1.63617   1.64251   1.66468   1.67750   1.68664
 Alpha virt. eigenvalues --    1.71700   1.75056   1.75569   1.77758   1.79043
 Alpha virt. eigenvalues --    1.80022   1.82524   1.84432   1.85256   1.86012
 Alpha virt. eigenvalues --    1.88654   1.88733   1.89686   1.90005   1.90727
 Alpha virt. eigenvalues --    1.92094   1.93076   1.95470   1.96555   1.97618
 Alpha virt. eigenvalues --    1.99288   2.01958   2.03850   2.04365   2.05133
 Alpha virt. eigenvalues --    2.06979   2.11334   2.13481   2.15178   2.19026
 Alpha virt. eigenvalues --    2.23047   2.25946   2.28188   2.28947   2.29392
 Alpha virt. eigenvalues --    2.32320   2.34815   2.38887   2.38942   2.39134
 Alpha virt. eigenvalues --    2.42830   2.43370   2.46743   2.47621   2.48724
 Alpha virt. eigenvalues --    2.51862   2.52756   2.55664   2.61628   2.66675
 Alpha virt. eigenvalues --    2.71417   2.72589   2.73268   2.74141   2.75065
 Alpha virt. eigenvalues --    2.76948   2.80891   2.82556   2.86397   2.88066
 Alpha virt. eigenvalues --    2.88199   2.89637   2.96970   2.97162   2.97858
 Alpha virt. eigenvalues --    2.98436   3.01344   3.04804   3.05033   3.06535
 Alpha virt. eigenvalues --    3.06890   3.13474   3.17022   3.17585   3.19465
 Alpha virt. eigenvalues --    3.27294   3.30680   3.39979   3.48584   3.54308
 Alpha virt. eigenvalues --    3.58609   3.71643   3.77505   3.81744
          Condensed to atoms (all electrons):
               1          2          3          4          5          6
     1  C    4.406966   0.266014  -0.033165   0.001442   0.011909  -0.000671
     2  O    0.266014   7.935649   0.421824  -0.083766  -0.162858   0.020643
     3  C   -0.033165   0.421824   4.580848   0.715993   0.171359  -0.071005
     4  O    0.001442  -0.083766   0.715993   7.687269  -0.101796   0.004084
     5  C    0.011909  -0.162858   0.171359  -0.101796   5.625463   0.363480
     6  C   -0.000671   0.020643  -0.071005   0.004084   0.363480   5.065669
     7  C    0.000019   0.000779   0.016390  -0.000066   0.034804   0.364113
     8  O   -0.000000  -0.000001  -0.000014   0.000000   0.003883  -0.080569
     9  C    0.000000  -0.000000   0.000007  -0.000000  -0.000149   0.006364
    10  C    0.000000   0.000023  -0.000409   0.000021  -0.057817  -0.038259
    11  N    0.000002  -0.000019   0.006913   0.000033  -0.060637  -0.051736
    12  C   -0.000023  -0.001388  -0.050535  -0.010343   0.409861  -0.036082
    13  C    0.000013   0.000147  -0.004527  -0.000131  -0.089432   0.000992
    14  H    0.405779  -0.026592  -0.004367   0.006968   0.000348   0.000090
    15  H    0.398886  -0.022552   0.004180   0.000761   0.000533  -0.000319
    16  H    0.405791  -0.026590  -0.004359   0.006946   0.000343   0.000091
    17  H   -0.000399   0.014416  -0.020047   0.000272  -0.045965   0.433919
    18  H    0.000000  -0.000000   0.000000  -0.000000   0.000016  -0.000050
    19  H   -0.000000   0.000000  -0.000000   0.000000   0.000008  -0.000104
    20  H    0.000000  -0.000000   0.000000  -0.000000   0.000017  -0.000050
    21  H    0.000000  -0.000000   0.000064   0.000000   0.001202   0.004531
    22  H   -0.000000   0.000026   0.001888   0.004878  -0.010066   0.000179
    23  H   -0.000001   0.000008   0.000238   0.000957   0.013866   0.000006
    24  H   -0.000000   0.000026   0.001886   0.004882  -0.010056   0.000178
               7          8          9         10         11         12
     1  C    0.000019  -0.000000   0.000000   0.000000   0.000002  -0.000023
     2  O    0.000779  -0.000001  -0.000000   0.000023  -0.000019  -0.001388
     3  C    0.016390  -0.000014   0.000007  -0.000409   0.006913  -0.050535
     4  O   -0.000066   0.000000  -0.000000   0.000021   0.000033  -0.010343
     5  C    0.034804   0.003883  -0.000149  -0.057817  -0.060637   0.409861
     6  C    0.364113  -0.080569   0.006364  -0.038259  -0.051736  -0.036082
     7  C    4.923930   0.384743  -0.061070   0.368814  -0.017730  -0.063233
     8  O    0.384743   7.870182   0.302135  -0.064917   0.002077   0.000436
     9  C   -0.061070   0.302135   4.420937   0.003254   0.000332   0.000025
    10  C    0.368814  -0.064917   0.003254   4.942909   0.510090  -0.069875
    11  N   -0.017730   0.002077   0.000332   0.510090   6.232656   0.591528
    12  C   -0.063233   0.000436   0.000025  -0.069875   0.591528   4.966424
    13  C    0.002196   0.000007  -0.000000   0.004786  -0.076291   0.422955
    14  H    0.000006  -0.000000   0.000000  -0.000000  -0.000000  -0.000017
    15  H   -0.000011  -0.000000   0.000000  -0.000000  -0.000000   0.000024
    16  H    0.000006  -0.000000   0.000000  -0.000000  -0.000000  -0.000016
    17  H   -0.058224   0.002577  -0.000304   0.012678  -0.000472   0.009603
    18  H   -0.006809  -0.029554   0.399913   0.006360   0.000036  -0.000054
    19  H    0.004023  -0.022465   0.400293   0.000105  -0.000002   0.000003
    20  H   -0.006811  -0.029554   0.399917   0.006359   0.000036  -0.000054
    21  H   -0.076768  -0.004056   0.007948   0.430840  -0.030506   0.004469
    22  H   -0.000034  -0.000000  -0.000000  -0.000149   0.002076  -0.001293
    23  H    0.000058  -0.000001  -0.000000   0.001128   0.010151  -0.017264
    24  H   -0.000034  -0.000000  -0.000000  -0.000149   0.002073  -0.001296
              13         14         15         16         17         18
     1  C    0.000013   0.405779   0.398886   0.405791  -0.000399   0.000000
     2  O    0.000147  -0.026592  -0.022552  -0.026590   0.014416  -0.000000
     3  C   -0.004527  -0.004367   0.004180  -0.004359  -0.020047   0.000000
     4  O   -0.000131   0.006968   0.000761   0.006946   0.000272  -0.000000
     5  C   -0.089432   0.000348   0.000533   0.000343  -0.045965   0.000016
     6  C    0.000992   0.000090  -0.000319   0.000091   0.433919  -0.000050
     7  C    0.002196   0.000006  -0.000011   0.000006  -0.058224  -0.006809
     8  O    0.000007  -0.000000  -0.000000  -0.000000   0.002577  -0.029554
     9  C   -0.000000   0.000000   0.000000   0.000000  -0.000304   0.399913
    10  C    0.004786  -0.000000  -0.000000  -0.000000   0.012678   0.006360
    11  N   -0.076291  -0.000000  -0.000000  -0.000000  -0.000472   0.000036
    12  C    0.422955  -0.000017   0.000024  -0.000016   0.009603  -0.000054
    13  C    4.542748  -0.000001  -0.000001  -0.000001  -0.000169   0.000000
    14  H   -0.000001   0.618140  -0.023710  -0.029846   0.000101  -0.000000
    15  H   -0.000001  -0.023710   0.611813  -0.023717  -0.000327   0.000000
    16  H   -0.000001  -0.029846  -0.023717   0.618159   0.000101  -0.000000
    17  H   -0.000169   0.000101  -0.000327   0.000101   0.609774   0.000075
    18  H    0.000000  -0.000000   0.000000  -0.000000   0.000075   0.649726
    19  H    0.000000  -0.000000  -0.000000  -0.000000  -0.000115  -0.022481
    20  H    0.000000  -0.000000   0.000000  -0.000000   0.000075  -0.042980
    21  H   -0.000220   0.000000  -0.000000   0.000000  -0.000208   0.000695
    22  H    0.377255  -0.000011   0.000000   0.000021   0.000004  -0.000000
    23  H    0.358550  -0.000000  -0.000000  -0.000000   0.000006   0.000000
    24  H    0.377255   0.000021   0.000000  -0.000011   0.000004   0.000000
              19         20         21         22         23         24
     1  C   -0.000000   0.000000   0.000000  -0.000000  -0.000001  -0.000000
     2  O    0.000000  -0.000000  -0.000000   0.000026   0.000008   0.000026
     3  C   -0.000000   0.000000   0.000064   0.001888   0.000238   0.001886
     4  O    0.000000  -0.000000   0.000000   0.004878   0.000957   0.004882
     5  C    0.000008   0.000017   0.001202  -0.010066   0.013866  -0.010056
     6  C   -0.000104  -0.000050   0.004531   0.000179   0.000006   0.000178
     7  C    0.004023  -0.006811  -0.076768  -0.000034   0.000058  -0.000034
     8  O   -0.022465  -0.029554  -0.004056  -0.000000  -0.000001  -0.000000
     9  C    0.400293   0.399917   0.007948  -0.000000  -0.000000  -0.000000
    10  C    0.000105   0.006359   0.430840  -0.000149   0.001128  -0.000149
    11  N   -0.000002   0.000036  -0.030506   0.002076   0.010151   0.002073
    12  C    0.000003  -0.000054   0.004469  -0.001293  -0.017264  -0.001296
    13  C    0.000000   0.000000  -0.000220   0.377255   0.358550   0.377255
    14  H   -0.000000  -0.000000   0.000000  -0.000011  -0.000000   0.000021
    15  H   -0.000000   0.000000  -0.000000   0.000000  -0.000000   0.000000
    16  H   -0.000000  -0.000000   0.000000   0.000021  -0.000000  -0.000011
    17  H   -0.000115   0.000075  -0.000208   0.000004   0.000006   0.000004
    18  H   -0.022481  -0.042980   0.000695  -0.000000   0.000000   0.000000
    19  H    0.601176  -0.022483  -0.000155   0.000000  -0.000000   0.000000
    20  H   -0.022483   0.649726   0.000696   0.000000   0.000000  -0.000000
    21  H   -0.000155   0.000696   0.634522   0.000008  -0.000192   0.000008
    22  H    0.000000   0.000000   0.000008   0.608936  -0.016060  -0.019438
    23  H   -0.000000   0.000000  -0.000192  -0.016060   0.627225  -0.016054
    24  H    0.000000  -0.000000   0.000008  -0.019438  -0.016054   0.608908
 Mulliken charges:
               1
     1  C    0.137438
     2  O   -0.335791
     3  C    0.266836
     4  O   -0.238403
     5  C   -0.098316
     6  C    0.014506
     7  C    0.190907
     8  O   -0.334909
     9  C    0.120400
    10  C   -0.055792
    11  N   -0.120612
    12  C   -0.153855
    13  C    0.083868
    14  H    0.053092
    15  H    0.054438
    16  H    0.053083
    17  H    0.042623
    18  H    0.045104
    19  H    0.062197
    20  H    0.045104
    21  H    0.027122
    22  H    0.051781
    23  H    0.037379
    24  H    0.051798
 Sum of Mulliken charges =  -0.00000
 Mulliken charges with hydrogens summed into heavy atoms:
               1
     1  C    0.298051
     2  O   -0.335791
     3  C    0.266836
     4  O   -0.238403
     5  C   -0.098316
     6  C    0.057129
     7  C    0.190907
     8  O   -0.334909
     9  C    0.272806
    10  C   -0.028670
    11  N   -0.120612
    12  C   -0.153855
    13  C    0.224826
 Electronic spatial extent (au):  <R**2>=           2878.8817
 Charge=             -0.0000 electrons
 Dipole moment (field-independent basis, Debye):
    X=              1.5253    Y=             -2.7113    Z=              0.0002  Tot=              3.1109
 Quadrupole moment (field-independent basis, Debye-Ang):
   XX=            -61.4433   YY=            -77.2039   ZZ=            -75.6204
   XY=              3.9956   XZ=             -0.0029   YZ=              0.0012
 Traceless Quadrupole moment (field-independent basis, Debye-Ang):
   XX=              9.9793   YY=             -5.7814   ZZ=             -4.1979
   XY=              3.9956   XZ=             -0.0029   YZ=              0.0012
 Octapole moment (field-independent basis, Debye-Ang**2):
  XXX=             50.0617  YYY=            -27.1040  ZZZ=             -0.0015  XYY=            -22.6439
  XXY=            -43.7300  XXZ=              0.0066  XZZ=             -6.9206  YZZ=             -3.4204
  YYZ=             -0.0023  XYZ=             -0.0023
 Hexadecapole moment (field-independent basis, Debye-Ang**3):
 XXXX=          -2185.6656 YYYY=          -1066.8119 ZZZZ=            -92.5953 XXXY=             52.6590
 XXXZ=             -0.0378 YYYX=             -3.9058 YYYZ=             -0.0017 ZZZX=              0.0020
 ZZZY=             -0.0050 XXYY=           -553.0558 XXZZ=           -425.6918 YYZZ=           -197.6502
 XXYZ=              0.0077 YYXZ=             -0.0012 ZZXY=             -2.7214
 N-N= 7.870822121003D+02 E-N=-3.041143279090D+03  KE= 6.233574381319D+02
   1 Symmetry operations used in ECPInt.
 ECPInt:  NShTT=    6216 NPrTT=   22568 LenC2=    5829 LenP2D=   15590.
 LDataN:  DoStor=T MaxTD1= 5 Len=  102
 Calling FoFJK, ICntrl=      2127 FMM=F ISym2X=0 I1Cent= 0 IOpClX= 0 NMat=1 NMatS=1 NMatT=0.
 ***** Axes restored to original set *****
 -------------------------------------------------------------------
 Center     Atomic                   Forces (Hartrees/Bohr)
 Number     Number              X              Y              Z
 -------------------------------------------------------------------
      1        6          -0.000003101    0.000001905   -0.000004095
      2        8           0.000004629   -0.000003640    0.000002881
      3        6          -0.000005109    0.000002362   -0.000001800
      4        8           0.000000552   -0.000001885   -0.000000313
      5        6           0.000002904   -0.000013343   -0.000000699
      6        6           0.000007576    0.000007250    0.000000192
      7        6          -0.000002867    0.000009322   -0.000000964
      8        8           0.000002655   -0.000004024    0.000002094
      9        6          -0.000003662    0.000004863   -0.000001976
     10        6          -0.000016519   -0.000016421   -0.000000708
     11        7           0.000019108    0.000003668   -0.000000220
     12        6          -0.000010315    0.000017726    0.000001178
     13        6           0.000006938   -0.000002985   -0.000002805
     14        1           0.000000396   -0.000002334    0.000001695
     15        1          -0.000001151   -0.000001412    0.000000547
     16        1          -0.000001168   -0.000000561    0.000001253
     17        1          -0.000001626   -0.000003139   -0.000000037
     18        1           0.000000256   -0.000000062   -0.000000838
     19        1          -0.000001071    0.000000628   -0.000000122
     20        1          -0.000000502    0.000000060    0.000001649
     21        1           0.000003223    0.000001988    0.000000210
     22        1          -0.000002322   -0.000000303    0.000002985
     23        1           0.000000715    0.000000761    0.000000486
     24        1           0.000000461   -0.000000423   -0.000000594
 -------------------------------------------------------------------
 Cartesian Forces:  Max     0.000019108 RMS     0.000005331

 GradGradGradGradGradGradGradGradGradGradGradGradGradGradGradGradGradGrad
 Berny optimization.
 FormGI is forming the generalized inverse of G from B-inverse, IUseBI=4.
 Internal  Forces:  Max     0.000016437 RMS     0.000002649
 Search for a local minimum.
 Step number   1 out of a maximum of  113
 All quantities printed in internal units (Hartrees-Bohrs-Radians)
 Mixed Optimization -- En-DIIS/RFO-DIIS
 Second derivative matrix not updated -- first step.
 ITU=  0
     Eigenvalues ---    0.00718   0.00837   0.01361   0.01459   0.01468
     Eigenvalues ---    0.01649   0.01662   0.02017   0.02151   0.02175
     Eigenvalues ---    0.02199   0.02276   0.02390   0.02493   0.02495
     Eigenvalues ---    0.07231   0.07440   0.10075   0.10221   0.10632
     Eigenvalues ---    0.10639   0.16000   0.16000   0.16000   0.16000
     Eigenvalues ---    0.16000   0.16000   0.16000   0.16000   0.16000
     Eigenvalues ---    0.16000   0.16000   0.23301   0.23486   0.25000
     Eigenvalues ---    0.25000   0.25000   0.25000   0.25000   0.25000
     Eigenvalues ---    0.25000   0.25000   0.32003   0.32946   0.33249
     Eigenvalues ---    0.33249   0.33731   0.33732   0.33809   0.33809
     Eigenvalues ---    0.34065   0.34071   0.34179   0.34329   0.34857
     Eigenvalues ---    0.40837   0.42931   0.44449   0.44806   0.45090
     Eigenvalues ---    0.46538   0.55624   0.56878   0.57339   0.58473
     Eigenvalues ---    1.02369
 RFO step:  Lambda= 0.00000000D+00 EMin= 7.18437027D-03
 Linear search not attempted -- first point.
 Iteration  1 RMS(Cart)=  0.00003605 RMS(Int)=  0.00000000
 Iteration  2 RMS(Cart)=  0.00000000 RMS(Int)=  0.00000000
 Variable       Old X    -DE/DX   Delta X   Delta X   Delta X     New X
                                 (Linear)    (Quad)   (Total)
    R1        2.67755  -0.00000   0.00000  -0.00001  -0.00001   2.67754
    R2        2.07785   0.00000   0.00000   0.00000   0.00000   2.07785
    R3        2.07030   0.00000   0.00000   0.00000   0.00000   2.07030
    R4        2.07786  -0.00000   0.00000  -0.00000  -0.00000   2.07786
    R5        2.53110   0.00000   0.00000   0.00000   0.00000   2.53111
    R6        2.27705  -0.00000   0.00000  -0.00000  -0.00000   2.27705
    R7        2.82447  -0.00000   0.00000  -0.00001  -0.00001   2.82446
    R8        2.63136  -0.00000   0.00000  -0.00001  -0.00001   2.63135
    R9        2.67878   0.00001   0.00000   0.00002   0.00002   2.67880
   R10        2.63529   0.00000   0.00000   0.00001   0.00001   2.63530
   R11        2.05908   0.00000   0.00000   0.00001   0.00001   2.05909
   R12        2.54581   0.00000   0.00000   0.00001   0.00001   2.54582
   R13        2.64177  -0.00001   0.00000  -0.00001  -0.00001   2.64176
   R14        2.65171   0.00000   0.00000   0.00001   0.00001   2.65172
   R15        2.08616  -0.00000   0.00000  -0.00000  -0.00000   2.08615
   R16        2.07211   0.00000   0.00000   0.00000   0.00000   2.07211
   R17        2.08616  -0.00000   0.00000  -0.00001  -0.00001   2.08615
   R18        2.51373   0.00002   0.00000   0.00003   0.00003   2.51376
   R19        2.06779  -0.00000   0.00000  -0.00001  -0.00001   2.06778
   R20        2.51619  -0.00001   0.00000  -0.00001  -0.00001   2.51618
   R21        2.84138   0.00000   0.00000   0.00000   0.00000   2.84138
   R22        2.07654  -0.00000   0.00000  -0.00001  -0.00001   2.07653
   R23        2.07220   0.00000   0.00000   0.00000   0.00000   2.07221
   R24        2.07653  -0.00000   0.00000  -0.00000  -0.00000   2.07653
    A1        1.93488   0.00000   0.00000   0.00001   0.00001   1.93489
    A2        1.85397  -0.00000   0.00000  -0.00001  -0.00001   1.85397
    A3        1.93488  -0.00000   0.00000  -0.00000  -0.00000   1.93488
    A4        1.92408  -0.00000   0.00000  -0.00001  -0.00001   1.92407
    A5        1.89224   0.00000   0.00000   0.00000   0.00000   1.89224
    A6        1.92403   0.00000   0.00000   0.00001   0.00001   1.92403
    A7        2.02884   0.00000   0.00000   0.00000   0.00000   2.02884
    A8        2.13556  -0.00000   0.00000  -0.00001  -0.00001   2.13555
    A9        1.95580   0.00000   0.00000   0.00001   0.00001   1.95581
   A10        2.19182   0.00000   0.00000   0.00000   0.00000   2.19182
   A11        2.08490  -0.00000   0.00000   0.00000   0.00000   2.08490
   A12        2.12187  -0.00000   0.00000   0.00000   0.00000   2.12187
   A13        2.07641   0.00000   0.00000  -0.00000  -0.00000   2.07641
   A14        2.09219   0.00000   0.00000   0.00001   0.00001   2.09220
   A15        2.10797   0.00000   0.00000   0.00001   0.00001   2.10798
   A16        2.08302  -0.00000   0.00000  -0.00002  -0.00002   2.08300
   A17        2.04782  -0.00000   0.00000  -0.00001  -0.00001   2.04781
   A18        2.04636   0.00000   0.00000   0.00000   0.00000   2.04636
   A19        2.18901   0.00000   0.00000   0.00001   0.00001   2.18902
   A20        2.07256   0.00000   0.00000   0.00000   0.00000   2.07256
   A21        1.95060  -0.00000   0.00000  -0.00000  -0.00000   1.95060
   A22        1.86114  -0.00000   0.00000  -0.00000  -0.00000   1.86114
   A23        1.95059   0.00000   0.00000   0.00001   0.00001   1.95060
   A24        1.90003  -0.00000   0.00000  -0.00000  -0.00000   1.90003
   A25        1.90004  -0.00000   0.00000   0.00000   0.00000   1.90004
   A26        1.90003  -0.00000   0.00000  -0.00000  -0.00000   1.90003
   A27        2.14387  -0.00000   0.00000  -0.00001  -0.00001   2.14386
   A28        2.11571   0.00000   0.00000   0.00002   0.00002   2.11572
   A29        2.02361  -0.00000   0.00000  -0.00001  -0.00001   2.02360
   A30        2.11152   0.00000   0.00000   0.00002   0.00002   2.11154
   A31        2.09602  -0.00000   0.00000  -0.00001  -0.00001   2.09601
   A32        2.16294  -0.00000   0.00000  -0.00001  -0.00001   2.16293
   A33        2.02422   0.00001   0.00000   0.00003   0.00003   2.02425
   A34        1.94570  -0.00000   0.00000  -0.00000  -0.00000   1.94570
   A35        1.88616   0.00000   0.00000   0.00000   0.00000   1.88616
   A36        1.94566   0.00000   0.00000   0.00000   0.00000   1.94566
   A37        1.91736  -0.00000   0.00000  -0.00000  -0.00000   1.91736
   A38        1.85175   0.00000   0.00000   0.00000   0.00000   1.85175
   A39        1.91736  -0.00000   0.00000  -0.00000  -0.00000   1.91735
    D1        1.05073   0.00000   0.00000   0.00009   0.00009   1.05082
    D2        3.14108   0.00000   0.00000   0.00008   0.00008   3.14116
    D3       -1.05181   0.00000   0.00000   0.00008   0.00008  -1.05173
    D4        0.00008  -0.00000   0.00000  -0.00002  -0.00002   0.00007
    D5       -3.14150  -0.00000   0.00000  -0.00001  -0.00001  -3.14151
    D6        0.00041  -0.00000   0.00000  -0.00006  -0.00006   0.00035
    D7       -3.14120  -0.00000   0.00000  -0.00007  -0.00007  -3.14127
    D8       -3.14117  -0.00000   0.00000  -0.00005  -0.00005  -3.14122
    D9        0.00040  -0.00000   0.00000  -0.00006  -0.00006   0.00034
   D10        3.14154   0.00000   0.00000   0.00001   0.00001   3.14155
   D11       -0.00004  -0.00000   0.00000  -0.00000  -0.00000  -0.00004
   D12       -0.00003   0.00000   0.00000   0.00002   0.00002  -0.00001
   D13        3.14157   0.00000   0.00000   0.00001   0.00001   3.14158
   D14       -3.14155  -0.00000   0.00000  -0.00001  -0.00001  -3.14156
   D15        0.00004   0.00000   0.00000   0.00001   0.00001   0.00005
   D16        0.00002  -0.00000   0.00000  -0.00002  -0.00002   0.00000
   D17       -3.14158  -0.00000   0.00000  -0.00000  -0.00000  -3.14158
   D18       -3.14159  -0.00000   0.00000  -0.00000  -0.00000  -3.14159
   D19        0.00002  -0.00000   0.00000  -0.00001  -0.00001   0.00001
   D20       -0.00000   0.00000   0.00000   0.00001   0.00001   0.00000
   D21       -3.14159   0.00000   0.00000   0.00000   0.00000  -3.14158
   D22        3.14150   0.00000   0.00000   0.00002   0.00002   3.14151
   D23       -0.00011   0.00000   0.00000   0.00002   0.00002  -0.00009
   D24        0.00001  -0.00000   0.00000  -0.00001  -0.00001   0.00000
   D25        3.14159   0.00000   0.00000   0.00001   0.00001  -3.14159
   D26       -3.14157  -0.00000   0.00000  -0.00001  -0.00001  -3.14159
   D27        0.00001   0.00000   0.00000   0.00000   0.00000   0.00001
   D28       -1.06707  -0.00000   0.00000  -0.00002  -0.00002  -1.06710
   D29       -3.14150  -0.00000   0.00000  -0.00002  -0.00002  -3.14151
   D30        1.06727  -0.00000   0.00000  -0.00002  -0.00002   1.06726
   D31       -0.00002   0.00000   0.00000   0.00001   0.00001  -0.00001
   D32        3.14158  -0.00000   0.00000  -0.00000  -0.00000   3.14158
   D33        0.00001  -0.00000   0.00000   0.00000   0.00000   0.00001
   D34       -3.14158  -0.00000   0.00000  -0.00001  -0.00001   3.14159
   D35        1.03266   0.00000   0.00000   0.00005   0.00005   1.03271
   D36        3.14137   0.00000   0.00000   0.00005   0.00005   3.14141
   D37       -1.03314   0.00000   0.00000   0.00004   0.00004  -1.03309
   D38       -2.10894   0.00000   0.00000   0.00006   0.00006  -2.10888
   D39       -0.00023   0.00000   0.00000   0.00006   0.00006  -0.00017
   D40        2.10845   0.00000   0.00000   0.00006   0.00006   2.10851
         Item               Value     Threshold  Converged?
 Maximum Force            0.000016     0.000450     YES
 RMS     Force            0.000003     0.000300     YES
 Maximum Displacement     0.000169     0.001800     YES
 RMS     Displacement     0.000036     0.001200     YES
 Predicted change in Energy=-1.217722D-09
 Optimization completed.
    -- Stationary point found.
                           ----------------------------
                           !   Optimized Parameters   !
                           ! (Angstroms and Degrees)  !
 --------------------------                            --------------------------
 ! Name  Definition              Value          Derivative Info.                !
 --------------------------------------------------------------------------------
 ! R1    R(1,2)                  1.4169         -DE/DX =    0.0                 !
 ! R2    R(1,14)                 1.0995         -DE/DX =    0.0                 !
 ! R3    R(1,15)                 1.0956         -DE/DX =    0.0                 !
 ! R4    R(1,16)                 1.0996         -DE/DX =    0.0                 !
 ! R5    R(2,3)                  1.3394         -DE/DX =    0.0                 !
 ! R6    R(3,4)                  1.205          -DE/DX =    0.0                 !
 ! R7    R(3,5)                  1.4946         -DE/DX =    0.0                 !
 ! R8    R(5,6)                  1.3925         -DE/DX =    0.0                 !
 ! R9    R(5,12)                 1.4175         -DE/DX =    0.0                 !
 ! R10   R(6,7)                  1.3945         -DE/DX =    0.0                 !
 ! R11   R(6,17)                 1.0896         -DE/DX =    0.0                 !
 ! R12   R(7,8)                  1.3472         -DE/DX =    0.0                 !
 ! R13   R(7,10)                 1.398          -DE/DX =    0.0                 !
 ! R14   R(8,9)                  1.4032         -DE/DX =    0.0                 !
 ! R15   R(9,18)                 1.1039         -DE/DX =    0.0                 !
 ! R16   R(9,19)                 1.0965         -DE/DX =    0.0                 !
 ! R17   R(9,20)                 1.1039         -DE/DX =    0.0                 !
 ! R18   R(10,11)                1.3302         -DE/DX =    0.0                 !
 ! R19   R(10,21)                1.0942         -DE/DX =    0.0                 !
 ! R20   R(11,12)                1.3315         -DE/DX =    0.0                 !
 ! R21   R(12,13)                1.5036         -DE/DX =    0.0                 !
 ! R22   R(13,22)                1.0989         -DE/DX =    0.0                 !
 ! R23   R(13,23)                1.0966         -DE/DX =    0.0                 !
 ! R24   R(13,24)                1.0989         -DE/DX =    0.0                 !
 ! A1    A(2,1,14)             110.8607         -DE/DX =    0.0                 !
 ! A2    A(2,1,15)             106.2249         -DE/DX =    0.0                 !
 ! A3    A(2,1,16)             110.8602         -DE/DX =    0.0                 !
 ! A4    A(14,1,15)            110.2415         -DE/DX =    0.0                 !
 ! A5    A(14,1,16)            108.4174         -DE/DX =    0.0                 !
 ! A6    A(15,1,16)            110.2387         -DE/DX =    0.0                 !
 ! A7    A(1,2,3)              116.244          -DE/DX =    0.0                 !
 ! A8    A(2,3,4)              122.3588         -DE/DX =    0.0                 !
 ! A9    A(2,3,5)              112.0591         -DE/DX =    0.0                 !
 ! A10   A(4,3,5)              125.5822         -DE/DX =    0.0                 !
 ! A11   A(3,5,6)              119.4562         -DE/DX =    0.0                 !
 ! A12   A(3,5,12)             121.5744         -DE/DX =    0.0                 !
 ! A13   A(6,5,12)             118.9694         -DE/DX =    0.0                 !
 ! A14   A(5,6,7)              119.8736         -DE/DX =    0.0                 !
 ! A15   A(5,6,17)             120.7781         -DE/DX =    0.0                 !
 ! A16   A(7,6,17)             119.3483         -DE/DX =    0.0                 !
 ! A17   A(6,7,8)              117.3314         -DE/DX =    0.0                 !
 ! A18   A(6,7,10)             117.2476         -DE/DX =    0.0                 !
 ! A19   A(8,7,10)             125.4211         -DE/DX =    0.0                 !
 ! A20   A(7,8,9)              118.7489         -DE/DX =    0.0                 !
 ! A21   A(8,9,18)             111.7611         -DE/DX =    0.0                 !
 ! A22   A(8,9,19)             106.6354         -DE/DX =    0.0                 !
 ! A23   A(8,9,20)             111.7606         -DE/DX =    0.0                 !
 ! A24   A(18,9,19)            108.8638         -DE/DX =    0.0                 !
 ! A25   A(18,9,20)            108.8641         -DE/DX =    0.0                 !
 ! A26   A(19,9,20)            108.8637         -DE/DX =    0.0                 !
 ! A27   A(7,10,11)            122.8348         -DE/DX =    0.0                 !
 ! A28   A(7,10,21)            121.221          -DE/DX =    0.0                 !
 ! A29   A(11,10,21)           115.9442         -DE/DX =    0.0                 !
 ! A30   A(10,11,12)           120.9814         -DE/DX =    0.0                 !
 ! A31   A(5,12,11)            120.0932         -DE/DX =    0.0                 !
 ! A32   A(5,12,13)            123.9275         -DE/DX =    0.0                 !
 ! A33   A(11,12,13)           115.9793         -DE/DX =    0.0                 !
 ! A34   A(12,13,22)           111.4803         -DE/DX =    0.0                 !
 ! A35   A(12,13,23)           108.0689         -DE/DX =    0.0                 !
 ! A36   A(12,13,24)           111.4783         -DE/DX =    0.0                 !
 ! A37   A(22,13,23)           109.8569         -DE/DX =    0.0                 !
 ! A38   A(22,13,24)           106.0972         -DE/DX =    0.0                 !
 ! A39   A(23,13,24)           109.8564         -DE/DX =    0.0                 !
 ! D1    D(14,1,2,3)            60.2022         -DE/DX =    0.0                 !
 ! D2    D(15,1,2,3)           179.9708         -DE/DX =    0.0                 !
 ! D3    D(16,1,2,3)           -60.2642         -DE/DX =    0.0                 !
 ! D4    D(1,2,3,4)              0.0048         -DE/DX =    0.0                 !
 ! D5    D(1,2,3,5)           -179.9945         -DE/DX =    0.0                 !
 ! D6    D(2,3,5,6)              0.0236         -DE/DX =    0.0                 !
 ! D7    D(2,3,5,12)          -179.9776         -DE/DX =    0.0                 !
 ! D8    D(4,3,5,6)           -179.9757         -DE/DX =    0.0                 !
 ! D9    D(4,3,5,12)             0.0231         -DE/DX =    0.0                 !
 ! D10   D(3,5,6,7)            179.997          -DE/DX =    0.0                 !
 ! D11   D(3,5,6,17)            -0.0023         -DE/DX =    0.0                 !
 ! D12   D(12,5,6,7)            -0.0018         -DE/DX =    0.0                 !
 ! D13   D(12,5,6,17)          179.9989         -DE/DX =    0.0                 !
 ! D14   D(3,5,12,11)         -179.9976         -DE/DX =    0.0                 !
 ! D15   D(3,5,12,13)            0.0021         -DE/DX =    0.0                 !
 ! D16   D(6,5,12,11)            0.0012         -DE/DX =    0.0                 !
 ! D17   D(6,5,12,13)         -179.9991         -DE/DX =    0.0                 !
 ! D18   D(5,6,7,8)           -179.9996         -DE/DX =    0.0                 !
 ! D19   D(5,6,7,10)             0.0009         -DE/DX =    0.0                 !
 ! D20   D(17,6,7,8)            -0.0002         -DE/DX =    0.0                 !
 ! D21   D(17,6,7,10)         -179.9997         -DE/DX =    0.0                 !
 ! D22   D(6,7,8,9)            179.9945         -DE/DX =    0.0                 !
 ! D23   D(10,7,8,9)            -0.0061         -DE/DX =    0.0                 !
 ! D24   D(6,7,10,11)            0.0006         -DE/DX =    0.0                 !
 ! D25   D(6,7,10,21)         -180.0002         -DE/DX =    0.0                 !
 ! D26   D(8,7,10,11)         -179.9988         -DE/DX =    0.0                 !
 ! D27   D(8,7,10,21)            0.0004         -DE/DX =    0.0                 !
 ! D28   D(7,8,9,18)           -61.1388         -DE/DX =    0.0                 !
 ! D29   D(7,8,9,19)          -179.9945         -DE/DX =    0.0                 !
 ! D30   D(7,8,9,20)            61.1501         -DE/DX =    0.0                 !
 ! D31   D(7,10,11,12)          -0.0013         -DE/DX =    0.0                 !
 ! D32   D(21,10,11,12)        179.9995         -DE/DX =    0.0                 !
 ! D33   D(10,11,12,5)           0.0003         -DE/DX =    0.0                 !
 ! D34   D(10,11,12,13)        180.0006         -DE/DX =    0.0                 !
 ! D35   D(5,12,13,22)          59.1671         -DE/DX =    0.0                 !
 ! D36   D(5,12,13,23)         179.9872         -DE/DX =    0.0                 !
 ! D37   D(5,12,13,24)         -59.1945         -DE/DX =    0.0                 !
 ! D38   D(11,12,13,22)       -120.8331         -DE/DX =    0.0                 !
 ! D39   D(11,12,13,23)         -0.013          -DE/DX =    0.0                 !
 ! D40   D(11,12,13,24)        120.8052         -DE/DX =    0.0                 !
 --------------------------------------------------------------------------------
 GradGradGradGradGradGradGradGradGradGradGradGradGradGradGradGradGradGrad

                          Input orientation:                          
 ---------------------------------------------------------------------
 Center     Atomic      Atomic             Coordinates (Angstroms)
 Number     Number       Type             X           Y           Z
 ---------------------------------------------------------------------
      1          6           0        3.452490   -1.965900   -0.000120
      2          8           0        2.114710   -1.499050   -0.000300
      3          6           0        1.951330   -0.169650    0.000110
      4          8           0        2.882910    0.594610    0.000520
      5          6           0        0.507970    0.218520    0.000010
      6          6           0       -0.468170   -0.774500    0.000030
      7          6           0       -1.817460   -0.422150    0.000000
      8          8           0       -2.718320   -1.423830    0.000030
      9          6           0       -4.084370   -1.102980    0.000120
     10          6           0       -2.122710    0.942080   -0.000070
     11          7           0       -1.189480    1.889990   -0.000120
     12          6           0        0.104850    1.577540   -0.000080
     13          6           0        1.062280    2.736900   -0.000130
     14          1           0        3.990180   -1.613130    0.891760
     15          1           0        3.394910   -3.059940    0.000030
     16          1           0        3.990310   -1.613430   -0.892050
     17          1           0       -0.191430   -1.828390    0.000080
     18          1           0       -4.369590   -0.527640    0.898080
     19          1           0       -4.630190   -2.053990    0.000230
     20          1           0       -4.369730   -0.527770   -0.897880
     21          1           0       -3.159730    1.291250   -0.000100
     22          1           0        1.722620    2.713390   -0.878130
     23          1           0        0.475030    3.662960   -0.000430
     24          1           0        1.722240    2.713730    0.878160
 ---------------------------------------------------------------------
                    Distance matrix (angstroms):
                    1          2          3          4          5
     1  C    0.000000
     2  O    1.416900   0.000000
     3  C    2.340939   1.339402   0.000000
     4  O    2.623096   2.230144   1.204963   0.000000
     5  C    3.666318   2.351948   1.494645   2.404534   0.000000
     6  C    4.097683   2.682581   2.493957   3.619972   1.392458
     7  C    5.491406   4.076969   3.777239   4.809083   2.412070
     8  O    6.194573   4.833615   4.835142   5.953812   3.620257
     9  C    7.586098   6.211720   6.107436   7.171109   4.778697
    10  C    6.288021   4.890281   4.223002   5.017666   2.728372
    11  N    6.034548   4.733209   3.755903   4.273449   2.382257
    12  C    4.874696   3.674907   2.542078   2.946824   1.417548
    13  C    5.275361   4.364732   3.039481   2.811423   2.578662
    14  H    1.099549   2.079945   2.652467   2.625733   4.034346
    15  H    1.095554   2.018735   3.230743   3.690241   4.368378
    16  H    1.099557   2.079946   2.652902   2.626491   4.034663
    17  H    3.646514   2.329538   2.709767   3.914396   2.163100
    18  H    8.003767   6.617920   6.394414   7.393498   5.015364
    19  H    8.083160   6.767690   6.845958   7.966289   5.618273
    20  H    8.003831   6.617930   6.394563   7.393757   5.015487
    21  H    7.370921   5.967034   5.315747   6.082664   3.821357
    22  H    5.065482   4.320760   3.022504   2.570511   2.910478
    23  H    6.367836   5.416170   4.107111   3.900341   3.444598
    24  H    5.065973   4.321254   3.022802   2.570618   2.910614
                    6          7          8          9         10
     6  C    0.000000
     7  C    1.394537   0.000000
     8  O    2.341966   1.347187   0.000000
     9  C    3.631088   2.366941   1.403224   0.000000
    10  C    2.384145   1.397963   2.439730   2.833793   0.000000
    11  N    2.760398   2.395903   3.649487   4.163923   1.330207
    12  C    2.420835   2.773813   4.120499   4.973404   2.316427
    13  C    3.830432   4.274634   5.621798   6.421268   3.655891
    14  H    4.623350   5.995194   6.770154   8.139633   6.685199
    15  H    4.488499   5.841809   6.328383   7.731062   6.816179
    16  H    4.623598   5.995423   6.770338   8.139839   6.685452
    17  H    1.089619   2.149764   2.559071   3.959950   3.377180
    18  H    4.011049   2.707590   2.082389   1.103947   2.831116
    19  H    4.354251   3.251823   2.013045   1.096512   3.906903
    20  H    4.011146   2.707661   2.082383   1.103948   2.831187
    21  H    3.392907   2.176563   2.750728   2.566573   1.094226
    22  H    4.211425   4.809874   6.132675   7.004080   4.323782
    23  H    4.536593   4.684403   6.006073   6.595628   3.761840
    24  H    4.211503   4.809822   6.132625   7.003924   4.323618
                   11         12         13         14         15
    11  N    0.000000
    12  C    1.331509   0.000000
    13  C    2.405760   1.503592   0.000000
    14  H    6.316342   5.106030   5.318912   0.000000
    15  H    6.746735   5.686011   6.248561   1.800774   0.000000
    16  H    6.316622   5.106339   5.319234   1.783810   1.800750
    17  H    3.849994   3.418792   4.734307   4.281039   3.791906
    18  H    4.094484   5.025842   6.400720   8.429952   8.216234
    19  H    5.233877   5.967295   7.440218   8.677555   8.087902
    20  H    4.094573   5.025957   6.400840   8.617941   8.216311
    21  H    2.059217   3.277109   4.462653   7.768658   7.867411
    22  H    3.151066   2.162939   1.098857   5.195490   6.074459
    23  H    2.431875   2.118020   1.096563   6.402297   7.329603
    24  H    3.150879   2.162911   1.098853   4.885228   6.074883
                   16         17         18         19         20
    16  H    0.000000
    17  H    4.281244   0.000000
    18  H    8.618088   4.467144   0.000000
    19  H    8.677746   4.444489   1.789914   0.000000
    20  H    8.430241   4.467229   1.795960   1.789913   0.000000
    21  H    7.768900   4.306154   2.361959   3.654160   2.361979
    22  H    4.885078   5.006257   7.125603   7.991096   6.900887
    23  H    6.402536   5.531645   6.468291   7.664645   6.468333
    24  H    5.196354   5.006397   6.900527   7.990950   7.125569
                   21         22         23         24
    21  H    0.000000
    22  H    5.160500   0.000000
    23  H    4.340102   1.796809   0.000000
    24  H    5.160273   1.756290   1.796800   0.000000
 Stoichiometry    C9H11NO3
 Framework group  C1[X(C9H11NO3)]
 Deg. of freedom    66
 Full point group                 C1      NOp   1
 Largest Abelian subgroup         C1      NOp   1
 Largest concise Abelian subgroup C1      NOp   1
                         Standard orientation:                         
 ---------------------------------------------------------------------
 Center     Atomic      Atomic             Coordinates (Angstroms)
 Number     Number       Type             X           Y           Z
 ---------------------------------------------------------------------
      1          6           0       -3.452491   -1.965900    0.000121
      2          8           0       -2.114711   -1.499050    0.000301
      3          6           0       -1.951331   -0.169650   -0.000109
      4          8           0       -2.882911    0.594610   -0.000519
      5          6           0       -0.507971    0.218520   -0.000009
      6          6           0        0.468169   -0.774500   -0.000029
      7          6           0        1.817459   -0.422150    0.000001
      8          8           0        2.718319   -1.423829   -0.000029
      9          6           0        4.084369   -1.102979   -0.000119
     10          6           0        2.122709    0.942080    0.000071
     11          7           0        1.189479    1.889990    0.000121
     12          6           0       -0.104851    1.577540    0.000081
     13          6           0       -1.062281    2.736900    0.000131
     14          1           0       -3.990181   -1.613130   -0.891759
     15          1           0       -3.394911   -3.059940   -0.000029
     16          1           0       -3.990311   -1.613430    0.892051
     17          1           0        0.191429   -1.828390   -0.000079
     18          1           0        4.369589   -0.527639   -0.898079
     19          1           0        4.630189   -2.053989   -0.000229
     20          1           0        4.369729   -0.527769    0.897881
     21          1           0        3.159729    1.291251    0.000101
     22          1           0       -1.722621    2.713390    0.878131
     23          1           0       -0.475031    3.662960    0.000431
     24          1           0       -1.722241    2.713730   -0.878159
 ---------------------------------------------------------------------
 Rotational constants (GHZ):           1.3182876           0.5213444           0.3762583
 Unable to Open any file for archive entry.
 1\1\GINC-NOTCH378\FOpt\RwB97XD\def2SVP\C9H11N1O3\U6053008\12-Jul-2024\
 0\\#N OPT FREQ=NORAMAN Integral(Ultrafine) wB97XD def2SVP\\12356206_2\
 \0,1\C,3.45249,-1.9659,-0.00012\O,2.11471,-1.49905,-0.0003\C,1.95133,-
 0.16965,0.00011\O,2.88291,0.59461,0.00052\C,0.50797,0.21852,0.00001\C,
 -0.46817,-0.7745,0.00003\C,-1.81746,-0.42215,0.\O,-2.71832,-1.42383,0.
 00003\C,-4.08437,-1.10298,0.00012\C,-2.12271,0.94208,-0.00007\N,-1.189
 48,1.88999,-0.00012\C,0.10485,1.57754,-0.00008\C,1.06228,2.7369,-0.000
 13\H,3.99018,-1.61313,0.89176\H,3.39491,-3.05994,0.00003\H,3.99031,-1.
 61343,-0.89205\H,-0.19143,-1.82839,0.00008\H,-4.36959,-0.52764,0.89808
 \H,-4.63019,-2.05399,0.00023\H,-4.36973,-0.52777,-0.89788\H,-3.15973,1
 .29125,-0.0001\H,1.72262,2.71339,-0.87813\H,0.47503,3.66296,-0.00043\H
 ,1.72224,2.71373,0.87816\\Version=ES64L-G16RevC.01\State=1-A\HF=-629.3
 398611\RMSD=9.231e-09\RMSF=5.331e-06\Dipole=-0.6001015,-1.0667032,-0.0
 000717\Quadrupole=7.4193556,-4.2983217,-3.1210339,-2.9706491,-0.002124
 2,-0.0009151\PG=C01 [X(C9H11N1O3)]\\@
 The archive entry for this job was punched.


 Sorry, no quote for you today!
 Job cpu time:       0 days  0 hours  9 minutes 44.1 seconds.
 Elapsed time:       0 days  0 hours  0 minutes 37.3 seconds.
 File lengths (MBytes):  RWF=     49 Int=      0 D2E=      0 Chk=      6 Scr=      2
 Normal termination of Gaussian 16 at Fri Jul 12 13:10:09 2024.
 Link1:  Proceeding to internal job step number  2.
 --------------------------------------------------------------------
 #N Geom=AllCheck Guess=TCheck SCRF=Check GenChk RwB97XD/def2SVP Freq
 --------------------------------------------------------------------
 1/10=4,29=7,30=1,38=1,40=1/1,3;
 2/12=2,40=1/2;
 3/5=43,7=101,11=2,14=-4,25=1,30=1,70=2,71=2,74=-58,75=-5,116=1,140=1/1,2,3;
 4/5=101/1;
 5/5=2,38=6,98=1/2;
 8/6=4,10=90,11=11/1;
 11/6=1,8=1,9=11,15=111,16=1/1,2,10;
 10/6=1/2;
 6/7=2,8=2,9=2,10=2,28=1/1;
 7/8=1,10=1,25=1/1,2,3,16;
 1/10=4,30=1/3;
 99//99;
 Structure from the checkpoint file:  "12356206_2.chk"
 ----------
 12356206_2
 ----------
 Charge =  0 Multiplicity = 1
 Redundant internal coordinates found in file.  (old form).
 C,0,3.45249,-1.9659,-0.00012
 O,0,2.11471,-1.49905,-0.0003
 C,0,1.95133,-0.16965,0.00011
 O,0,2.88291,0.59461,0.00052
 C,0,0.50797,0.21852,0.00001
 C,0,-0.46817,-0.7745,0.00003
 C,0,-1.81746,-0.42215,0.
 O,0,-2.71832,-1.42383,0.00003
 C,0,-4.08437,-1.10298,0.00012
 C,0,-2.12271,0.94208,-0.00007
 N,0,-1.18948,1.88999,-0.00012
 C,0,0.10485,1.57754,-0.00008
 C,0,1.06228,2.7369,-0.00013
 H,0,3.99018,-1.61313,0.89176
 H,0,3.39491,-3.05994,0.00003
 H,0,3.99031,-1.61343,-0.89205
 H,0,-0.19143,-1.82839,0.00008
 H,0,-4.36959,-0.52764,0.89808
 H,0,-4.63019,-2.05399,0.00023
 H,0,-4.36973,-0.52777,-0.89788
 H,0,-3.15973,1.29125,-0.0001
 H,0,1.72262,2.71339,-0.87813
 H,0,0.47503,3.66296,-0.00043
 H,0,1.72224,2.71373,0.87816
 Recover connectivity data from disk.

 GradGradGradGradGradGradGradGradGradGradGradGradGradGradGradGradGradGrad
 Berny optimization.
 Initialization pass.
                           ----------------------------
                           !    Initial Parameters    !
                           ! (Angstroms and Degrees)  !
 --------------------------                            --------------------------
 ! Name  Definition              Value          Derivative Info.                !
 --------------------------------------------------------------------------------
 ! R1    R(1,2)                  1.4169         calculate D2E/DX2 analytically  !
 ! R2    R(1,14)                 1.0995         calculate D2E/DX2 analytically  !
 ! R3    R(1,15)                 1.0956         calculate D2E/DX2 analytically  !
 ! R4    R(1,16)                 1.0996         calculate D2E/DX2 analytically  !
 ! R5    R(2,3)                  1.3394         calculate D2E/DX2 analytically  !
 ! R6    R(3,4)                  1.205          calculate D2E/DX2 analytically  !
 ! R7    R(3,5)                  1.4946         calculate D2E/DX2 analytically  !
 ! R8    R(5,6)                  1.3925         calculate D2E/DX2 analytically  !
 ! R9    R(5,12)                 1.4175         calculate D2E/DX2 analytically  !
 ! R10   R(6,7)                  1.3945         calculate D2E/DX2 analytically  !
 ! R11   R(6,17)                 1.0896         calculate D2E/DX2 analytically  !
 ! R12   R(7,8)                  1.3472         calculate D2E/DX2 analytically  !
 ! R13   R(7,10)                 1.398          calculate D2E/DX2 analytically  !
 ! R14   R(8,9)                  1.4032         calculate D2E/DX2 analytically  !
 ! R15   R(9,18)                 1.1039         calculate D2E/DX2 analytically  !
 ! R16   R(9,19)                 1.0965         calculate D2E/DX2 analytically  !
 ! R17   R(9,20)                 1.1039         calculate D2E/DX2 analytically  !
 ! R18   R(10,11)                1.3302         calculate D2E/DX2 analytically  !
 ! R19   R(10,21)                1.0942         calculate D2E/DX2 analytically  !
 ! R20   R(11,12)                1.3315         calculate D2E/DX2 analytically  !
 ! R21   R(12,13)                1.5036         calculate D2E/DX2 analytically  !
 ! R22   R(13,22)                1.0989         calculate D2E/DX2 analytically  !
 ! R23   R(13,23)                1.0966         calculate D2E/DX2 analytically  !
 ! R24   R(13,24)                1.0989         calculate D2E/DX2 analytically  !
 ! A1    A(2,1,14)             110.8607         calculate D2E/DX2 analytically  !
 ! A2    A(2,1,15)             106.2249         calculate D2E/DX2 analytically  !
 ! A3    A(2,1,16)             110.8602         calculate D2E/DX2 analytically  !
 ! A4    A(14,1,15)            110.2415         calculate D2E/DX2 analytically  !
 ! A5    A(14,1,16)            108.4174         calculate D2E/DX2 analytically  !
 ! A6    A(15,1,16)            110.2387         calculate D2E/DX2 analytically  !
 ! A7    A(1,2,3)              116.244          calculate D2E/DX2 analytically  !
 ! A8    A(2,3,4)              122.3588         calculate D2E/DX2 analytically  !
 ! A9    A(2,3,5)              112.0591         calculate D2E/DX2 analytically  !
 ! A10   A(4,3,5)              125.5822         calculate D2E/DX2 analytically  !
 ! A11   A(3,5,6)              119.4562         calculate D2E/DX2 analytically  !
 ! A12   A(3,5,12)             121.5744         calculate D2E/DX2 analytically  !
 ! A13   A(6,5,12)             118.9694         calculate D2E/DX2 analytically  !
 ! A14   A(5,6,7)              119.8736         calculate D2E/DX2 analytically  !
 ! A15   A(5,6,17)             120.7781         calculate D2E/DX2 analytically  !
 ! A16   A(7,6,17)             119.3483         calculate D2E/DX2 analytically  !
 ! A17   A(6,7,8)              117.3314         calculate D2E/DX2 analytically  !
 ! A18   A(6,7,10)             117.2476         calculate D2E/DX2 analytically  !
 ! A19   A(8,7,10)             125.4211         calculate D2E/DX2 analytically  !
 ! A20   A(7,8,9)              118.7489         calculate D2E/DX2 analytically  !
 ! A21   A(8,9,18)             111.7611         calculate D2E/DX2 analytically  !
 ! A22   A(8,9,19)             106.6354         calculate D2E/DX2 analytically  !
 ! A23   A(8,9,20)             111.7606         calculate D2E/DX2 analytically  !
 ! A24   A(18,9,19)            108.8638         calculate D2E/DX2 analytically  !
 ! A25   A(18,9,20)            108.8641         calculate D2E/DX2 analytically  !
 ! A26   A(19,9,20)            108.8637         calculate D2E/DX2 analytically  !
 ! A27   A(7,10,11)            122.8348         calculate D2E/DX2 analytically  !
 ! A28   A(7,10,21)            121.221          calculate D2E/DX2 analytically  !
 ! A29   A(11,10,21)           115.9442         calculate D2E/DX2 analytically  !
 ! A30   A(10,11,12)           120.9814         calculate D2E/DX2 analytically  !
 ! A31   A(5,12,11)            120.0932         calculate D2E/DX2 analytically  !
 ! A32   A(5,12,13)            123.9275         calculate D2E/DX2 analytically  !
 ! A33   A(11,12,13)           115.9793         calculate D2E/DX2 analytically  !
[...]
 Alpha virt. eigenvalues --    2.57298   2.59680   2.61326   2.62091   2.62277
 Alpha virt. eigenvalues --    2.63528   2.65156   2.66681   2.67566   2.68933
 Alpha virt. eigenvalues --    2.71724   2.73750   2.74690   2.77110   2.77256
 Alpha virt. eigenvalues --    2.78439   2.79362   2.80133   2.84288   2.85896
 Alpha virt. eigenvalues --    2.86598   2.88616   2.89005   2.90844   2.91643
 Alpha virt. eigenvalues --    2.92653   2.92785   2.93894   2.94283   2.96124
 Alpha virt. eigenvalues --    2.96718   2.97895   3.03469   3.04252   3.04947
 Alpha virt. eigenvalues --    3.05081   3.07929   3.10699   3.11805   3.12984
 Alpha virt. eigenvalues --    3.13011   3.14881   3.15316   3.17478   3.18866
 Alpha virt. eigenvalues --    3.21514   3.21906   3.23498   3.23581   3.24292
 Alpha virt. eigenvalues --    3.25586   3.27055   3.27898   3.28649   3.30046
 Alpha virt. eigenvalues --    3.30455   3.31248   3.32364   3.33940   3.34109
 Alpha virt. eigenvalues --    3.35146   3.35315   3.38062   3.38252   3.39976
 Alpha virt. eigenvalues --    3.40179   3.41969   3.42467   3.42911   3.43702
 Alpha virt. eigenvalues --    3.43866   3.44635   3.45589   3.47164   3.47493
 Alpha virt. eigenvalues --    3.49867   3.51019   3.51651   3.54632   3.54738
 Alpha virt. eigenvalues --    3.57053   3.60195   3.61226   3.61323   3.61747
 Alpha virt. eigenvalues --    3.62519   3.64186   3.64595   3.65578   3.67587
 Alpha virt. eigenvalues --    3.69015   3.70855   3.73056   3.76988   3.78093
 Alpha virt. eigenvalues --    3.79552   3.83009   3.85424   3.88267   3.90576
 Alpha virt. eigenvalues --    3.93586   3.94116   3.96215   3.98208   4.01478
 Alpha virt. eigenvalues --    4.04591   4.07436   4.12040   4.16778   4.16873
 Alpha virt. eigenvalues --    4.18306   4.20608   4.22049   4.24030   4.24657
 Alpha virt. eigenvalues --    4.25146   4.28792   4.33581   4.33913   4.36480
 Alpha virt. eigenvalues --    4.37197   4.40452   4.44012   4.44927   4.45143
 Alpha virt. eigenvalues --    4.47413   4.51466   4.52249   4.56678   4.58012
 Alpha virt. eigenvalues --    4.60274   4.62189   4.63240   4.67954   4.69468
 Alpha virt. eigenvalues --    4.75515   4.78621   4.84368   4.90021   4.96254
 Alpha virt. eigenvalues --    4.97848   4.99714   5.01999   5.04668   5.15068
 Alpha virt. eigenvalues --    5.22865   5.24933   5.26223   5.27639   5.33114
 Alpha virt. eigenvalues --    5.33297   5.35823   5.37037   5.39635   5.42256
 Alpha virt. eigenvalues --    5.47188   5.49397   5.58286   5.59927   5.67949
 Alpha virt. eigenvalues --    5.75774   5.76328   5.77179   5.84556   5.85732
 Alpha virt. eigenvalues --    5.93339   5.97346   6.01643   6.06548   6.10835
 Alpha virt. eigenvalues --    6.17395   6.24646   6.29137   6.41443   6.43840
 Alpha virt. eigenvalues --    6.50085   6.52228   6.67748   6.68224   6.72149
 Alpha virt. eigenvalues --    6.74133   6.84020   6.85710   6.85732   6.94739
 Alpha virt. eigenvalues --    6.97962   7.05321   7.15358   7.24503   7.26457
 Alpha virt. eigenvalues --    7.43534   7.49030   7.54234  22.44306  22.47182
 Alpha virt. eigenvalues --   22.56344  22.66312  22.87785  23.04633  23.19451
 Alpha virt. eigenvalues --   23.37474  23.62342  32.69420  44.06120  44.27445
 Alpha virt. eigenvalues --   44.35550
          Condensed to atoms (all electrons):
               1          2          3          4          5          6
     1  C    4.768229   0.226198  -0.043631   0.004177   0.007872  -0.002138
     2  O    0.226198   7.973540   0.391850  -0.083752  -0.176722   0.042252
     3  C   -0.043631   0.391850   4.511471   0.634679   0.250888  -0.071542
     4  O    0.004177  -0.083752   0.634679   7.903658  -0.089795   0.007311
     5  C    0.007872  -0.176722   0.250888  -0.089795   5.333062   0.361414
     6  C   -0.002138   0.042252  -0.071542   0.007311   0.361414   5.358940
     7  C    0.000067  -0.002199   0.011432  -0.000232  -0.040029   0.400207
     8  O    0.000001   0.000017   0.000174   0.000001   0.009607  -0.102614
     9  C    0.000000  -0.000005   0.000024  -0.000000  -0.000567   0.003798
    10  C   -0.000010   0.000359   0.001516   0.000299  -0.005725  -0.021219
    11  N    0.000022  -0.000274   0.006285   0.000124  -0.067247  -0.082745
    12  C   -0.000344  -0.006691  -0.040765  -0.016637   0.453453  -0.060189
    13  C   -0.000155   0.000049  -0.025183  -0.002493  -0.040116   0.000388
    14  H    0.419115  -0.035229  -0.007912   0.005144  -0.002628   0.000628
    15  H    0.395905  -0.032982   0.004065   0.001746   0.004405  -0.001394
    16  H    0.419108  -0.035216  -0.007906   0.005129  -0.002635   0.000630
    17  H   -0.000453   0.016624  -0.013157   0.000427  -0.032186   0.438391
    18  H    0.000000   0.000000   0.000002  -0.000000   0.000078  -0.000114
    19  H   -0.000000  -0.000000  -0.000002   0.000000  -0.000049  -0.000084
    20  H    0.000000   0.000000   0.000002  -0.000000   0.000078  -0.000115
    21  H    0.000000  -0.000001   0.000095   0.000000  -0.002461  -0.000480
    22  H    0.000022  -0.000056  -0.006064  -0.000007   0.003369   0.001423
    23  H   -0.000008   0.000040   0.000193   0.002196   0.008085  -0.000065
    24  H    0.000022  -0.000056  -0.006074   0.000001   0.003388   0.001420
               7          8          9         10         11         12
     1  C    0.000067   0.000001   0.000000  -0.000010   0.000022  -0.000344
     2  O   -0.002199   0.000017  -0.000005   0.000359  -0.000274  -0.006691
     3  C    0.011432   0.000174   0.000024   0.001516   0.006285  -0.040765
     4  O   -0.000232   0.000001  -0.000000   0.000299   0.000124  -0.016637
     5  C   -0.040029   0.009607  -0.000567  -0.005725  -0.067247   0.453453
     6  C    0.400207  -0.102614   0.003798  -0.021219  -0.082745  -0.060189
     7  C    4.837132   0.373392  -0.077233   0.352909  -0.021094  -0.001915
     8  O    0.373392   7.928577   0.241644  -0.062802   0.006788  -0.001369
     9  C   -0.077233   0.241644   4.810357   0.008437  -0.001298   0.000156
    10  C    0.352909  -0.062802   0.008437   4.991210   0.523439  -0.130752
    11  N   -0.021094   0.006788  -0.001298   0.523439   6.428073   0.544432
    12  C   -0.001915  -0.001369   0.000156  -0.130752   0.544432   4.995146
    13  C    0.001956   0.000011  -0.000025   0.000018  -0.053211   0.294650
    14  H    0.000009  -0.000000  -0.000000   0.000000  -0.000001  -0.000154
    15  H   -0.000067  -0.000000   0.000000  -0.000002  -0.000000   0.000134
    16  H    0.000009  -0.000000  -0.000000   0.000000  -0.000001  -0.000154
    17  H   -0.059556   0.006152   0.000045   0.006892  -0.001958   0.004261
    18  H   -0.008741  -0.041848   0.414410   0.005647  -0.000142  -0.000216
    19  H    0.004287  -0.029982   0.400644  -0.000019   0.000025   0.000033
    20  H   -0.008748  -0.041846   0.414412   0.005650  -0.000142  -0.000216
    21  H   -0.090972  -0.001162   0.005384   0.455791  -0.022674   0.007053
    22  H   -0.000236  -0.000002  -0.000000  -0.000019   0.000531  -0.033377
    23  H    0.000359  -0.000004   0.000001   0.001704   0.009461  -0.071455
    24  H   -0.000236  -0.000002  -0.000000  -0.000019   0.000527  -0.033348
              13         14         15         16         17         18
     1  C   -0.000155   0.419115   0.395905   0.419108  -0.000453   0.000000
     2  O    0.000049  -0.035229  -0.032982  -0.035216   0.016624   0.000000
     3  C   -0.025183  -0.007912   0.004065  -0.007906  -0.013157   0.000002
     4  O   -0.002493   0.005144   0.001746   0.005129   0.000427  -0.000000
     5  C   -0.040116  -0.002628   0.004405  -0.002635  -0.032186   0.000078
     6  C    0.000388   0.000628  -0.001394   0.000630   0.438391  -0.000114
     7  C    0.001956   0.000009  -0.000067   0.000009  -0.059556  -0.008741
     8  O    0.000011  -0.000000  -0.000000  -0.000000   0.006152  -0.041848
     9  C   -0.000025  -0.000000   0.000000  -0.000000   0.000045   0.414410
    10  C    0.000018   0.000000  -0.000002   0.000000   0.006892   0.005647
    11  N   -0.053211  -0.000001  -0.000000  -0.000001  -0.001958  -0.000142
    12  C    0.294650  -0.000154   0.000134  -0.000154   0.004261  -0.000216
    13  C    4.907264  -0.000035   0.000012  -0.000035  -0.000147  -0.000001
    14  H   -0.000035   0.549331  -0.023969  -0.036920   0.000122   0.000000
    15  H    0.000012  -0.023969   0.544432  -0.023975  -0.000356   0.000000
    16  H   -0.000035  -0.036920  -0.023975   0.549365   0.000122  -0.000000
    17  H   -0.000147   0.000122  -0.000356   0.000122   0.477308   0.000086
    18  H   -0.000001   0.000000   0.000000  -0.000000   0.000086   0.577953
    19  H    0.000000  -0.000000  -0.000000  -0.000000  -0.000133  -0.018861
    20  H   -0.000001  -0.000000   0.000000   0.000000   0.000086  -0.054649
    21  H   -0.000116   0.000000   0.000000   0.000000  -0.000076  -0.001064
    22  H    0.404759  -0.000010  -0.000000   0.000034   0.000017  -0.000000
    23  H    0.425650  -0.000000  -0.000000  -0.000000   0.000009   0.000000
    24  H    0.404716   0.000034  -0.000000  -0.000010   0.000017   0.000001
              19         20         21         22         23         24
     1  C   -0.000000   0.000000   0.000000   0.000022  -0.000008   0.000022
     2  O   -0.000000   0.000000  -0.000001  -0.000056   0.000040  -0.000056
     3  C   -0.000002   0.000002   0.000095  -0.006064   0.000193  -0.006074
     4  O    0.000000  -0.000000   0.000000  -0.000007   0.002196   0.000001
     5  C   -0.000049   0.000078  -0.002461   0.003369   0.008085   0.003388
     6  C   -0.000084  -0.000115  -0.000480   0.001423  -0.000065   0.001420
     7  C    0.004287  -0.008748  -0.090972  -0.000236   0.000359  -0.000236
     8  O   -0.029982  -0.041846  -0.001162  -0.000002  -0.000004  -0.000002
     9  C    0.400644   0.414412   0.005384  -0.000000   0.000001  -0.000000
    10  C   -0.000019   0.005650   0.455791  -0.000019   0.001704  -0.000019
    11  N    0.000025  -0.000142  -0.022674   0.000531   0.009461   0.000527
    12  C    0.000033  -0.000216   0.007053  -0.033377  -0.071455  -0.033348
    13  C    0.000000  -0.000001  -0.000116   0.404759   0.425650   0.404716
    14  H   -0.000000  -0.000000   0.000000  -0.000010  -0.000000   0.000034
    15  H   -0.000000   0.000000   0.000000  -0.000000  -0.000000  -0.000000
    16  H   -0.000000   0.000000   0.000000   0.000034  -0.000000  -0.000010
    17  H   -0.000133   0.000086  -0.000076   0.000017   0.000009   0.000017
    18  H   -0.018861  -0.054649  -0.001064  -0.000000   0.000000   0.000001
    19  H    0.519546  -0.018864   0.000037   0.000000  -0.000000   0.000000
    20  H   -0.018864   0.577956  -0.001063   0.000001   0.000000  -0.000000
    21  H    0.000037  -0.001063   0.508778   0.000007  -0.000278   0.000007
    22  H    0.000000   0.000001   0.000007   0.548355  -0.021201  -0.024674
    23  H   -0.000000   0.000000  -0.000278  -0.021201   0.535596  -0.021197
    24  H    0.000000  -0.000000   0.000007  -0.024674  -0.021197   0.548352
 Mulliken charges:
               1
     1  C   -0.194000
     2  O   -0.277749
     3  C    0.409559
     4  O   -0.371976
     5  C    0.024461
     6  C   -0.274105
     7  C    0.329498
     8  O   -0.284733
     9  C   -0.220184
    10  C   -0.133304
    11  N   -0.268922
    12  C    0.098265
    13  C   -0.317957
    14  H    0.132477
    15  H    0.132047
    16  H    0.132454
    17  H    0.157463
    18  H    0.127459
    19  H    0.143421
    20  H    0.127458
    21  H    0.143196
    22  H    0.127127
    23  H    0.130915
    24  H    0.127130
 Sum of Mulliken charges =  -0.00000
 Mulliken charges with hydrogens summed into heavy atoms:
               1
     1  C    0.202977
     2  O   -0.277749
     3  C    0.409559
     4  O   -0.371976
     5  C    0.024461
     6  C   -0.116641
     7  C    0.329498
     8  O   -0.284733
     9  C    0.178153
    10  C    0.009893
    11  N   -0.268922
    12  C    0.098265
    13  C    0.067215
 Electronic spatial extent (au):  <R**2>=           2880.4493
 Charge=             -0.0000 electrons
 Dipole moment (field-independent basis, Debye):
    X=              1.6526    Y=             -2.7625    Z=              0.0002  Tot=              3.2191
 Quadrupole moment (field-independent basis, Debye-Ang):
   XX=            -62.9942   YY=            -77.3249   ZZ=            -76.0571
   XY=              3.7652   XZ=             -0.0029   YZ=              0.0012
 Traceless Quadrupole moment (field-independent basis, Debye-Ang):
   XX=              9.1312   YY=             -5.1995   ZZ=             -3.9317
   XY=              3.7652   XZ=             -0.0029   YZ=              0.0012
 Octapole moment (field-independent basis, Debye-Ang**2):
  XXX=             52.2596  YYY=            -28.1943  ZZZ=             -0.0014  XYY=            -21.9216
  XXY=            -42.9262  XXZ=              0.0069  XZZ=             -6.8809  YZZ=             -3.4687
  YYZ=             -0.0021  XYZ=             -0.0021
 Hexadecapole moment (field-independent basis, Debye-Ang**3):
 XXXX=          -2243.7862 YYYY=          -1079.0760 ZZZZ=            -96.8512 XXXY=             50.2895
 XXXZ=             -0.0380 YYYX=             -6.4374 YYYZ=             -0.0003 ZZZX=              0.0013
 ZZZY=             -0.0052 XXYY=           -560.4521 XXZZ=           -430.9536 YYZZ=           -202.1168
 XXYZ=              0.0077 YYXZ=             -0.0014 ZZXY=             -2.9750
 N-N= 7.870822121003D+02 E-N=-3.046001994134D+03  KE= 6.269670968095D+02
 Breneman (CHELPG) radii used.
 Read replacement radii for each type of atom:
 Atom Element Radius
    1     6    1.50
    2     8    1.70
    3     6    1.50
    4     8    1.70
    5     6    1.50
    6     6    1.50
    7     6    1.50
    8     8    1.70
    9     6    1.50
   10     6    1.50
   11     7    1.70
   12     6    1.50
   13     6    1.50
   14     1    1.45
   15     1    1.45
   16     1    1.45
   17     1    1.45
   18     1    1.45
   19     1    1.45
   20     1    1.45
   21     1    1.45
   22     1    1.45
   23     1    1.45
   24     1    1.45
 Generate Potential Derived Charges using the Breneman model, NDens= 1.
 Grid spacing= 0.300 Box extension= 2.800
 NStep X,Y,Z=   49     43     26   Total possible points=       54782
 Number of Points to Fit=   15395

 **********************************************************************

            Electrostatic Properties Using The SCF Density.

 **********************************************************************

       Atomic Center    1 is at  -3.452491 -1.965900  0.000121
       Atomic Center    2 is at  -2.114711 -1.499050  0.000301
       Atomic Center    3 is at  -1.951331 -0.169650 -0.000109
       Atomic Center    4 is at  -2.882911  0.594610 -0.000519
       Atomic Center    5 is at  -0.507971  0.218520 -0.000009
       Atomic Center    6 is at   0.468169 -0.774500 -0.000029
       Atomic Center    7 is at   1.817459 -0.422150  0.000001
       Atomic Center    8 is at   2.718319 -1.423829 -0.000029
       Atomic Center    9 is at   4.084369 -1.102979 -0.000119
       Atomic Center   10 is at   2.122709  0.942080  0.000071
       Atomic Center   11 is at   1.189479  1.889990  0.000121
       Atomic Center   12 is at  -0.104851  1.577540  0.000081
       Atomic Center   13 is at  -1.062281  2.736900  0.000131
       Atomic Center   14 is at  -3.990181 -1.613130 -0.891759
       Atomic Center   15 is at  -3.394911 -3.059940 -0.000029
       Atomic Center   16 is at  -3.990311 -1.613430  0.892051
       Atomic Center   17 is at   0.191429 -1.828390 -0.000079
       Atomic Center   18 is at   4.369589 -0.527639 -0.898079
       Atomic Center   19 is at   4.630189 -2.053989 -0.000229
       Atomic Center   20 is at   4.369729 -0.527769  0.897881
       Atomic Center   21 is at   3.159729  1.291251  0.000101
       Atomic Center   22 is at  -1.722621  2.713390  0.878131
       Atomic Center   23 is at  -0.475031  3.662960  0.000431
       Atomic Center   24 is at  -1.722241  2.713730 -0.878159
   15395 points will be used for fitting atomic charges
 Fitting point charges to electrostatic potential
 Charges from ESP fit, RMS=   0.00280 RRMS=   0.21113:
 ESP charges:
               1
     1  C   -0.087477
     2  O   -0.278563
     3  C    0.716540
     4  O   -0.510517
     5  C   -0.365098
     6  C   -0.042774
     7  C    0.188770
     8  O   -0.310227
     9  C    0.054537
    10  C    0.174533
    11  N   -0.605788
    12  C    0.549069
    13  C   -0.261495
    14  H    0.080980
    15  H    0.098921
    16  H    0.080967
    17  H    0.084590
    18  H    0.029903
    19  H    0.077834
    20  H    0.029883
    21  H    0.081027
    22  H    0.074048
    23  H    0.066245
    24  H    0.074092
 Sum of ESP charges =  -0.00000
 ESP charges with hydrogens summed into heavy atoms:
               1
     1  C    0.173391
     2  O   -0.278563
     3  C    0.716540
     4  O   -0.510517
     5  C   -0.365098
     6  C    0.041816
     7  C    0.188770
     8  O   -0.310227
     9  C    0.192157
    10  C    0.255560
    11  N   -0.605788
    12  C    0.549069
    13  C   -0.047111
 Charge=  -0.00000 Dipole=     1.6712    -2.7433     0.0000 Tot=     3.2123
 -----------------------------------------------------------------

              Electrostatic Properties (Atomic Units)

 -----------------------------------------------------------------
    Center     Electric         -------- Electric Field --------
               Potential          X             Y             Z
 -----------------------------------------------------------------
    1 Atom    -14.710313
    2 Atom    -22.308157
    3 Atom    -14.637533
    4 Atom    -22.378601
    5 Atom    -14.742681
    6 Atom    -14.749243
    7 Atom    -14.696544
    8 Atom    -22.312293
    9 Atom    -14.703289
   10 Atom    -14.730719
   11 Atom    -18.398982
   12 Atom    -14.722725
   13 Atom    -14.785682
   14 Atom     -1.102928
   15 Atom     -1.098800
   16 Atom     -1.102927
   17 Atom     -1.086462
   18 Atom     -1.095918
   19 Atom     -1.094610
   20 Atom     -1.095919
   21 Atom     -1.093684
   22 Atom     -1.125680
   23 Atom     -1.132399
   24 Atom     -1.125681
 -----------------------------------------------------------------
 Unable to Open any file for archive entry.
 1\1\GINC-NOTCH378\SP\RwB97XD\def2TZVP\C9H11N1O3\U6053008\12-Jul-2024\0
 \\#N Guess=Read Geom=Check Integral(Ultrafine) Density Pop=(ChelpG,Rea
 dRadii) NMR wB97XD def2TZVP\\12356206_2\\0,1\C,0,3.45249,-1.9659,-0.00
 012\O,0,2.11471,-1.49905,-0.0003\C,0,1.95133,-0.16965,0.00011\O,0,2.88
 291,0.59461,0.00052\C,0,0.50797,0.21852,0.00001\C,0,-0.46817,-0.7745,0
 .00003\C,0,-1.81746,-0.42215,0.\O,0,-2.71832,-1.42383,0.00003\C,0,-4.0
 8437,-1.10298,0.00012\C,0,-2.12271,0.94208,-0.00007\N,0,-1.18948,1.889
 99,-0.00012\C,0,0.10485,1.57754,-0.00008\C,0,1.06228,2.7369,-0.00013\H
 ,0,3.99018,-1.61313,0.89176\H,0,3.39491,-3.05994,0.00003\H,0,3.99031,-
 1.61343,-0.89205\H,0,-0.19143,-1.82839,0.00008\H,0,-4.36959,-0.52764,0
 .89808\H,0,-4.63019,-2.05399,0.00023\H,0,-4.36973,-0.52777,-0.89788\H,
 0,-3.15973,1.29125,-0.0001\H,0,1.72262,2.71339,-0.87813\H,0,0.47503,3.
 66296,-0.00043\H,0,1.72224,2.71373,0.87816\\Version=ES64L-G16RevC.01\S
 tate=1-A\HF=-630.0337402\RMSD=2.026e-09\Dipole=-0.6501874,-1.0868448,-
 0.0000915\Quadrupole=6.7888268,-3.8656757,-2.923151,-2.7993654,-0.0021
 566,-0.0009174\PG=C01 [X(C9H11N1O3)]\\@
 The archive entry for this job was punched.


 ... IT CAN BE VERY DIFFICULT, IN THESE COMPLEX TIMES,
 TO UNDERSTAND JUST HOW SCIENTISTS DO WHAT THEY DO.

                     DON MOSER IN THE FEBRUARY 1979 SMITHSONIAN
 Job cpu time:       0 days  1 hours  0 minutes 59.9 seconds.
 Elapsed time:       0 days  0 hours  4 minutes  0.7 seconds.
 File lengths (MBytes):  RWF=    141 Int=      0 D2E=      0 Chk=     21 Scr=      2
 Normal termination of Gaussian 16 at Fri Jul 12 13:26:53 2024.
