 Entering Gaussian System, Link 0=g16
 Input=12358222_2.com
 Output=12358222_2.log
 Initial command:
 /uufs/chpc.utah.edu/sys/installdir/gaussian16/C01/AVX/g16/l1.exe "/scratch/general/vast/u6053008/1287159-notchpeak.peaks/Gau-1787005.inp" -scrdir="/scratch/general/vast/u6053008/1287159-notchpeak.peaks/"
 Entering Link 1 = /uufs/chpc.utah.edu/sys/installdir/gaussian16/C01/AVX/g16/l1.exe PID=   1787006.
  
 Copyright (c) 1988-2019, Gaussian, Inc.  All Rights Reserved.
  
 This is part of the Gaussian(R) 16 program.  It is based on
 the Gaussian(R) 09 system (copyright 2009, Gaussian, Inc.),
 the Gaussian(R) 03 system (copyright 2003, Gaussian, Inc.),
 the Gaussian(R) 98 system (copyright 1998, Gaussian, Inc.),
 the Gaussian(R) 94 system (copyright 1995, Gaussian, Inc.),
 the Gaussian 92(TM) system (copyright 1992, Gaussian, Inc.),
 the Gaussian 90(TM) system (copyright 1990, Gaussian, Inc.),
 the Gaussian 88(TM) system (copyright 1988, Gaussian, Inc.),
 the Gaussian 86(TM) system (copyright 1986, Carnegie Mellon
 University), and the Gaussian 82(TM) system (copyright 1983,
 Carnegie Mellon University). Gaussian is a federally registered
 trademark of Gaussian, Inc.
  
 This software contains proprietary and confidential information,
 including trade secrets, belonging to Gaussian, Inc.
  
 This software is provided under written license and may be
 used, copied, transmitted, or stored only in accord with that
 written license.
  
 The following legend is applicable only to US Government
 contracts under FAR:
  
                    RESTRICTED RIGHTS LEGEND
  
 Use, reproduction and disclosure by the US Government is
 subject to restrictions as set forth in subparagraphs (a)
 and (c) of the Commercial Computer Software - Restricted
 Rights clause in FAR 52.227-19.
  
 Gaussian, Inc.
 340 Quinnipiac St., Bldg. 40, Wallingford CT 06492
  
  
 ---------------------------------------------------------------
 Warning -- This program may not be used in any manner that
 competes with the business of Gaussian, Inc. or will provide
 assistance to any competitor of Gaussian, Inc.  The licensee
 of this program is prohibited from giving any competitor of
 Gaussian, Inc. access to this program.  By using this program,
 the user acknowledges that Gaussian, Inc. is engaged in the
 business of creating and licensing software in the field of
 computational chemistry and represents and warrants to the
 licensee that it is not a competitor of Gaussian, Inc. and that
 it will not use this program in any manner prohibited above.
 ---------------------------------------------------------------
  

 Cite this work as:
 Gaussian 16, Revision C.01,
 M. J. Frisch, G. W. Trucks, H. B. Schlegel, G. E. Scuseria, 
 M. A. Robb, J. R. Cheeseman, G. Scalmani, V. Barone, 
 G. A. Petersson, H. Nakatsuji, X. Li, M. Caricato, A. V. Marenich, 
 J. Bloino, B. G. Janesko, R. Gomperts, B. Mennucci, H. P. Hratchian, 
 J. V. Ortiz, A. F. Izmaylov, J. L. Sonnenberg, D. Williams-Young, 
 F. Ding, F. Lipparini, F. Egidi, J. Goings, B. Peng, A. Petrone, 
 T. Henderson, D. Ranasinghe, V. G. Zakrzewski, J. Gao, N. Rega, 
 G. Zheng, W. Liang, M. Hada, M. Ehara, K. Toyota, R. Fukuda, 
 J. Hasegawa, M. Ishida, T. Nakajima, Y. Honda, O. Kitao, H. Nakai, 
 T. Vreven, K. Throssell, J. A. Montgomery, Jr., J. E. Peralta, 
 F. Ogliaro, M. J. Bearpark, J. J. Heyd, E. N. Brothers, K. N. Kudin, 
 V. N. Staroverov, T. A. Keith, R. Kobayashi, J. Normand, 
 K. Raghavachari, A. P. Rendell, J. C. Burant, S. S. Iyengar, 
 J. Tomasi, M. Cossi, J. M. Millam, M. Klene, C. Adamo, R. Cammi, 
 J. W. Ochterski, R. L. Martin, K. Morokuma, O. Farkas, 
 J. B. Foresman, and D. J. Fox, Gaussian, Inc., Wallingford CT, 2019.
 
 ******************************************
 Gaussian 16:  ES64L-G16RevC.01  3-Jul-2019
                12-Jul-2024 
 ******************************************
 %NProcShared=16
 Will use up to   16 processors via shared memory.
 %Mem=32GB
 %chk=12358222_2.chk
 ------------------------------------------------------
 #N OPT FREQ=NORAMAN Integral(Ultrafine) wB97XD def2SVP
 ------------------------------------------------------
 1/18=20,19=15,26=4,38=1/1,3;
 2/9=110,12=2,17=6,18=5,40=1/2;
 3/5=43,7=101,11=2,25=1,30=1,71=1,74=-58,75=-5/1,2,3;
 4//1;
 5/5=2,38=5/2;
 6/7=2,8=2,9=2,10=2,28=1/1;
 7//1,2,3,16;
 1/18=20,19=15,26=4/3(2);
 2/9=110/2;
 99//99;
 2/9=110/2;
 3/5=43,7=101,11=2,25=1,30=1,71=1,74=-58,75=-5/1,2,3;
 4/5=5,16=3,69=1/1;
 5/5=2,38=5/2;
 7//1,2,3,16;
 1/18=20,19=15,26=4/3(-5);
 2/9=110/2;
 6/7=2,8=2,9=2,10=2,19=2,28=1/1;
 99/9=1/99;
 ----------
 12358222_2
 ----------
 Symbolic Z-matrix:
 Charge =  0 Multiplicity = 1
 C                    -3.88685   0.33988   0.14031 
 C                    -2.41294   0.06593   0.01831 
 C                    -1.91603  -1.23438  -0.1251 
 N                    -0.62676  -1.51946  -0.25584 
 C                     0.26238  -0.5251   -0.25427 
 C                    -0.10565   0.81639  -0.07564 
 C                    -1.4679    1.09192   0.05013 
 C                     0.93829   1.90637  -0.00365 
 C                     2.30898   1.35674   0.3847 
 C                     2.6794    0.19048  -0.52571 
 C                     1.7111   -0.97299  -0.36089 
 O                     2.06169  -1.68612   0.80516 
 H                    -4.26353   0.87725  -0.74412 
 H                    -4.10514   0.9631    1.02062 
 H                    -4.46061  -0.59274   0.23426 
 H                    -2.60866  -2.08482  -0.12912 
 H                    -1.79516   2.12758   0.19114 
 H                     1.00849   2.40079  -0.98971 
 H                     0.60813   2.68259   0.7044 
 H                     3.06587   2.15316   0.32692 
 H                     2.28825   1.0014    1.4278 
 H                     3.69329  -0.17926  -0.31485 
 H                     2.66554   0.52307  -1.57774 
 H                     1.78076  -1.63683  -1.24441 
 H                     1.35183  -2.32162   0.95524 
 

 GradGradGradGradGradGradGradGradGradGradGradGradGradGradGradGradGradGrad
 Berny optimization.
 Initialization pass.
                           ----------------------------
                           !    Initial Parameters    !
                           ! (Angstroms and Degrees)  !
 --------------------------                            --------------------------
 ! Name  Definition              Value          Derivative Info.                !
 --------------------------------------------------------------------------------
 ! R1    R(1,2)                  1.5041         estimate D2E/DX2                !
 ! R2    R(1,13)                 1.1013         estimate D2E/DX2                !
 ! R3    R(1,14)                 1.1005         estimate D2E/DX2                !
 ! R4    R(1,15)                 1.099          estimate D2E/DX2                !
 ! R5    R(2,3)                  1.3994         estimate D2E/DX2                !
 ! R6    R(2,7)                  1.3953         estimate D2E/DX2                !
 ! R7    R(3,4)                  1.3269         estimate D2E/DX2                !
 ! R8    R(3,16)                 1.0968         estimate D2E/DX2                !
 ! R9    R(4,5)                  1.3339         estimate D2E/DX2                !
 ! R10   R(5,6)                  1.4025         estimate D2E/DX2                !
 ! R11   R(5,11)                 1.5201         estimate D2E/DX2                !
 ! R12   R(6,7)                  1.3955         estimate D2E/DX2                !
 ! R13   R(6,8)                  1.511          estimate D2E/DX2                !
 ! R14   R(7,17)                 1.0953         estimate D2E/DX2                !
 ! R15   R(8,9)                  1.527          estimate D2E/DX2                !
 ! R16   R(8,18)                 1.1053         estimate D2E/DX2                !
 ! R17   R(8,19)                 1.1013         estimate D2E/DX2                !
 ! R18   R(9,10)                 1.5252         estimate D2E/DX2                !
 ! R19   R(9,20)                 1.1002         estimate D2E/DX2                !
 ! R20   R(9,21)                 1.1022         estimate D2E/DX2                !
 ! R21   R(10,11)                1.5226         estimate D2E/DX2                !
 ! R22   R(10,22)                1.0996         estimate D2E/DX2                !
 ! R23   R(10,23)                1.1034         estimate D2E/DX2                !
 ! R24   R(11,12)                1.4111         estimate D2E/DX2                !
 ! R25   R(11,24)                1.1073         estimate D2E/DX2                !
 ! R26   R(12,25)                0.9645         estimate D2E/DX2                !
 ! A1    A(2,1,13)             111.0324         estimate D2E/DX2                !
 ! A2    A(2,1,14)             111.2485         estimate D2E/DX2                !
 ! A3    A(2,1,15)             111.3439         estimate D2E/DX2                !
 ! A4    A(13,1,14)            107.3519         estimate D2E/DX2                !
 ! A5    A(13,1,15)            107.7074         estimate D2E/DX2                !
 ! A6    A(14,1,15)            107.9776         estimate D2E/DX2                !
 ! A7    A(1,2,3)              121.7027         estimate D2E/DX2                !
 ! A8    A(1,2,7)              121.8664         estimate D2E/DX2                !
 ! A9    A(3,2,7)              116.4298         estimate D2E/DX2                !
 ! A10   A(2,3,4)              123.6946         estimate D2E/DX2                !
 ! A11   A(2,3,16)             119.7762         estimate D2E/DX2                !
 ! A12   A(4,3,16)             116.5288         estimate D2E/DX2                !
 ! A13   A(3,4,5)              119.1699         estimate D2E/DX2                !
 ! A14   A(4,5,6)              122.5654         estimate D2E/DX2                !
 ! A15   A(4,5,11)             114.553          estimate D2E/DX2                !
 ! A16   A(6,5,11)             122.7415         estimate D2E/DX2                !
 ! A17   A(5,6,7)              117.1609         estimate D2E/DX2                !
 ! A18   A(5,6,8)              120.9821         estimate D2E/DX2                !
 ! A19   A(7,6,8)              121.8511         estimate D2E/DX2                !
 ! A20   A(2,7,6)              120.9262         estimate D2E/DX2                !
 ! A21   A(2,7,17)             119.7279         estimate D2E/DX2                !
 ! A22   A(6,7,17)             119.3391         estimate D2E/DX2                !
 ! A23   A(6,8,9)              111.879          estimate D2E/DX2                !
 ! A24   A(6,8,18)             108.9086         estimate D2E/DX2                !
 ! A25   A(6,8,19)             109.3869         estimate D2E/DX2                !
 ! A26   A(9,8,18)             109.3225         estimate D2E/DX2                !
 ! A27   A(9,8,19)             111.0567         estimate D2E/DX2                !
 ! A28   A(18,8,19)            106.1006         estimate D2E/DX2                !
 ! A29   A(8,9,10)             109.9642         estimate D2E/DX2                !
 ! A30   A(8,9,20)             110.0972         estimate D2E/DX2                !
 ! A31   A(8,9,21)             109.8683         estimate D2E/DX2                !
 ! A32   A(10,9,20)            110.7989         estimate D2E/DX2                !
 ! A33   A(10,9,21)            108.8424         estimate D2E/DX2                !
 ! A34   A(20,9,21)            107.2186         estimate D2E/DX2                !
 ! A35   A(9,10,11)            111.4216         estimate D2E/DX2                !
 ! A36   A(9,10,22)            111.5052         estimate D2E/DX2                !
 ! A37   A(9,10,23)            109.6075         estimate D2E/DX2                !
 ! A38   A(11,10,22)           107.9793         estimate D2E/DX2                !
 ! A39   A(11,10,23)           108.9976         estimate D2E/DX2                !
 ! A40   A(22,10,23)           107.2028         estimate D2E/DX2                !
 ! A41   A(5,11,10)            112.8623         estimate D2E/DX2                !
 ! A42   A(5,11,12)            109.1311         estimate D2E/DX2                !
 ! A43   A(5,11,24)            107.0111         estimate D2E/DX2                !
 ! A44   A(10,11,12)           108.5188         estimate D2E/DX2                !
 ! A45   A(10,11,24)           109.3729         estimate D2E/DX2                !
 ! A46   A(12,11,24)           109.9217         estimate D2E/DX2                !
 ! A47   A(11,12,25)           106.1832         estimate D2E/DX2                !
 ! D1    D(13,1,2,3)          -112.5039         estimate D2E/DX2                !
 ! D2    D(13,1,2,7)            67.895          estimate D2E/DX2                !
 ! D3    D(14,1,2,3)           128.0008         estimate D2E/DX2                !
 ! D4    D(14,1,2,7)           -51.6003         estimate D2E/DX2                !
 ! D5    D(15,1,2,3)             7.5038         estimate D2E/DX2                !
 ! D6    D(15,1,2,7)          -172.0973         estimate D2E/DX2                !
 ! D7    D(1,2,3,4)            178.9589         estimate D2E/DX2                !
 ! D8    D(1,2,3,16)            -1.29           estimate D2E/DX2                !
 ! D9    D(7,2,3,4)             -1.4195         estimate D2E/DX2                !
 ! D10   D(7,2,3,16)           178.3316         estimate D2E/DX2                !
 ! D11   D(1,2,7,6)           -179.4784         estimate D2E/DX2                !
 ! D12   D(1,2,7,17)             1.4757         estimate D2E/DX2                !
 ! D13   D(3,2,7,6)              0.9006         estimate D2E/DX2                !
 ! D14   D(3,2,7,17)          -178.1453         estimate D2E/DX2                !
 ! D15   D(2,3,4,5)             -0.0649         estimate D2E/DX2                !
 ! D16   D(16,3,4,5)          -179.8234         estimate D2E/DX2                !
 ! D17   D(3,4,5,6)              2.1316         estimate D2E/DX2                !
 ! D18   D(3,4,5,11)           177.9363         estimate D2E/DX2                !
 ! D19   D(4,5,6,7)             -2.5465         estimate D2E/DX2                !
 ! D20   D(4,5,6,8)            176.5841         estimate D2E/DX2                !
 ! D21   D(11,5,6,7)          -178.0091         estimate D2E/DX2                !
 ! D22   D(11,5,6,8)             1.1215         estimate D2E/DX2                !
 ! D23   D(4,5,11,10)          173.0295         estimate D2E/DX2                !
 ! D24   D(4,5,11,12)          -66.2328         estimate D2E/DX2                !
 ! D25   D(4,5,11,24)           52.6673         estimate D2E/DX2                !
 ! D26   D(6,5,11,10)          -11.174          estimate D2E/DX2                !
 ! D27   D(6,5,11,12)          109.5636         estimate D2E/DX2                !
 ! D28   D(6,5,11,24)         -131.5362         estimate D2E/DX2                !
 ! D29   D(5,6,7,2)              0.9434         estimate D2E/DX2                !
 ! D30   D(5,6,7,17)           179.993          estimate D2E/DX2                !
 ! D31   D(8,6,7,2)           -178.1791         estimate D2E/DX2                !
 ! D32   D(8,6,7,17)             0.8705         estimate D2E/DX2                !
 ! D33   D(5,6,8,9)            -21.6841         estimate D2E/DX2                !
 ! D34   D(5,6,8,18)            99.2774         estimate D2E/DX2                !
 ! D35   D(5,6,8,19)          -145.1722         estimate D2E/DX2                !
 ! D36   D(7,6,8,9)            157.4053         estimate D2E/DX2                !
 ! D37   D(7,6,8,18)           -81.6333         estimate D2E/DX2                !
 ! D38   D(7,6,8,19)            33.9171         estimate D2E/DX2                !
 ! D39   D(6,8,9,10)            51.7913         estimate D2E/DX2                !
 ! D40   D(6,8,9,20)           174.1489         estimate D2E/DX2                !
 ! D41   D(6,8,9,21)           -67.9864         estimate D2E/DX2                !
 ! D42   D(18,8,9,10)          -68.9299         estimate D2E/DX2                !
 ! D43   D(18,8,9,20)           53.4277         estimate D2E/DX2                !
 ! D44   D(18,8,9,21)          171.2924         estimate D2E/DX2                !
 ! D45   D(19,8,9,10)          174.3328         estimate D2E/DX2                !
 ! D46   D(19,8,9,20)          -63.3096         estimate D2E/DX2                !
 ! D47   D(19,8,9,21)           54.5551         estimate D2E/DX2                !
 ! D48   D(8,9,10,11)          -63.3123         estimate D2E/DX2                !
 ! D49   D(8,9,10,22)          175.959          estimate D2E/DX2                !
 ! D50   D(8,9,10,23)           57.4163         estimate D2E/DX2                !
 ! D51   D(20,9,10,11)         174.7463         estimate D2E/DX2                !
 ! D52   D(20,9,10,22)          54.0176         estimate D2E/DX2                !
 ! D53   D(20,9,10,23)         -64.5251         estimate D2E/DX2                !
 ! D54   D(21,9,10,11)          57.0874         estimate D2E/DX2                !
 ! D55   D(21,9,10,22)         -63.6413         estimate D2E/DX2                !
 ! D56   D(21,9,10,23)         177.8159         estimate D2E/DX2                !
 ! D57   D(9,10,11,5)           41.693          estimate D2E/DX2                !
 ! D58   D(9,10,11,12)         -79.3933         estimate D2E/DX2                !
 ! D59   D(9,10,11,24)         160.6933         estimate D2E/DX2                !
 ! D60   D(22,10,11,5)         164.4669         estimate D2E/DX2                !
 ! D61   D(22,10,11,12)         43.3806         estimate D2E/DX2                !
 ! D62   D(22,10,11,24)        -76.5328         estimate D2E/DX2                !
 ! D63   D(23,10,11,5)         -79.3924         estimate D2E/DX2                !
 ! D64   D(23,10,11,12)        159.5213         estimate D2E/DX2                !
 ! D65   D(23,10,11,24)         39.6079         estimate D2E/DX2                !
 ! D66   D(5,11,12,25)          47.7953         estimate D2E/DX2                !
 ! D67   D(10,11,12,25)        171.1541         estimate D2E/DX2                !
 ! D68   D(24,11,12,25)        -69.2755         estimate D2E/DX2                !
 --------------------------------------------------------------------------------
 Trust Radius=3.00D-01 FncErr=1.00D-07 GrdErr=1.00D-06 EigMax=2.50D+02 EigMin=1.00D-04
 Number of steps in this run=    150 maximum allowed number of steps=    150.
 GradGradGradGradGradGradGradGradGradGradGradGradGradGradGradGradGradGrad

                          Input orientation:                          
 ---------------------------------------------------------------------
 Center     Atomic      Atomic             Coordinates (Angstroms)
 Number     Number       Type             X           Y           Z
 ---------------------------------------------------------------------
      1          6           0       -3.886850    0.339880    0.140310
      2          6           0       -2.412940    0.065930    0.018310
      3          6           0       -1.916030   -1.234380   -0.125100
      4          7           0       -0.626760   -1.519460   -0.255840
      5          6           0        0.262380   -0.525100   -0.254270
      6          6           0       -0.105650    0.816390   -0.075640
      7          6           0       -1.467900    1.091920    0.050130
      8          6           0        0.938290    1.906370   -0.003650
      9          6           0        2.308980    1.356740    0.384700
     10          6           0        2.679400    0.190480   -0.525710
     11          6           0        1.711100   -0.972990   -0.360890
     12          8           0        2.061690   -1.686120    0.805160
     13          1           0       -4.263530    0.877250   -0.744120
     14          1           0       -4.105140    0.963100    1.020620
     15          1           0       -4.460610   -0.592740    0.234260
     16          1           0       -2.608660   -2.084820   -0.129120
     17          1           0       -1.795160    2.127580    0.191140
     18          1           0        1.008490    2.400790   -0.989710
     19          1           0        0.608130    2.682590    0.704400
     20          1           0        3.065870    2.153160    0.326920
     21          1           0        2.288250    1.001400    1.427800
     22          1           0        3.693290   -0.179260   -0.314850
     23          1           0        2.665540    0.523070   -1.577740
     24          1           0        1.780760   -1.636830   -1.244410
     25          1           0        1.351830   -2.321620    0.955240
 ---------------------------------------------------------------------
                    Distance matrix (angstroms):
                    1          2          3          4          5
     1  C    0.000000
     2  C    1.504109   0.000000
     3  C    2.536310   1.399390   0.000000
     4  N    3.773893   2.403967   1.326869   0.000000
     5  C    4.256759   2.753353   2.294610   1.333913   0.000000
     6  C    3.817220   2.428086   2.735979   2.400046   1.402480
     7  C    2.534761   1.395266   2.375542   2.760514   2.387736
     8  C    5.075095   3.823407   4.245728   3.774824   2.536082
     9  C    6.283474   4.908866   4.982420   4.159494   2.852749
    10  C    6.601632   5.122831   4.827908   3.731946   2.535295
    11  C    5.771644   4.269760   3.644173   2.403176   1.520119
    12  O    6.319164   4.869407   4.109952   2.895041   2.389116
    13  H    1.101304   2.159681   3.217596   4.382777   4.763444
    14  H    1.100454   2.161731   3.306629   4.459998   4.786994
    15  H    1.099003   2.161812   2.648722   3.974596   4.748670
    16  H    2.754185   2.164663   1.096814   2.064853   3.269749
    17  H    2.752021   2.159149   3.378963   3.855626   3.386528
    18  H    5.430345   4.263081   4.744979   4.310565   3.107794
    19  H    5.100131   4.055181   4.733087   4.483775   3.365690
    20  H    7.187706   5.871041   6.041447   5.240540   3.920512
    21  H    6.342484   4.996294   5.008611   4.205551   3.043635
    22  H    7.611518   6.120225   5.710845   4.523544   3.448829
    23  H    6.776361   5.342968   5.117575   4.093725   2.936905
    24  H    6.160084   4.699040   3.883436   2.605225   2.126452
    25  H    5.932239   4.555406   3.609451   2.454586   2.424314
                    6          7          8          9         10
     6  C    0.000000
     7  C    1.395514   0.000000
     8  C    1.510976   2.540860   0.000000
     9  C    2.516809   3.800906   1.526990   0.000000
    10  C    2.889780   4.283023   2.499658   1.525195   0.000000
    11  C    2.565897   3.812982   3.002594   2.518136   1.522640
    12  O    3.425745   4.554732   3.849959   3.081710   2.382102
    13  H    4.211714   2.914183   5.354093   6.685958   6.980232
    14  H    4.149606   2.813091   5.232119   6.457576   7.001290
    15  H    4.587740   3.439229   5.954013   7.046308   7.222931
    16  H    3.832093   3.380110   5.340992   6.024245   5.770429
    17  H    2.155188   1.095251   2.749296   4.180386   4.928277
    18  H    2.141765   2.987794   1.105302   2.161092   2.809396
    19  H    2.144912   2.695960   1.101298   2.180132   3.466113
    20  H    3.465191   4.664538   2.167205   1.100230   2.174500
    21  H    2.832899   4.001853   2.165736   1.102159   2.150998
    22  H    3.934525   5.327944   3.469398   2.182884   1.099610
    23  H    3.165728   4.478714   2.715635   2.161784   1.103438
    24  H    3.307999   4.435730   3.847533   3.448837   2.159432
    25  H    3.610273   4.519110   4.355041   3.843434   3.204107
                   11         12         13         14         15
    11  C    0.000000
    12  O    1.411078   0.000000
    13  H    6.266295   6.998539   0.000000
    14  H    6.283762   6.715250   1.773912   0.000000
    15  H    6.211988   6.637907   1.776778   1.779146   0.000000
    16  H    4.466566   4.779541   3.448286   3.584853   2.405840
    17  H    4.712975   5.458628   2.920768   2.716626   3.808756
    18  H    3.503065   4.586243   5.493240   5.679577   6.353769
    19  H    3.964171   4.605281   5.393564   5.027082   6.053176
    20  H    3.475816   3.997144   7.516327   7.302112   8.012269
    21  H    2.725937   2.767991   6.903511   6.406458   7.036543
    22  H    2.135698   2.487402   8.038126   7.993996   8.182822
    23  H    2.151714   3.305052   6.988017   7.265481   7.437096
    24  H    1.107314   2.069321   6.565389   6.821570   6.498560
    25  H    1.918352   0.964513   6.682280   6.369630   6.106824
                   16         17         18         19         20
    16  H    0.000000
    17  H    4.302170   0.000000
    18  H    5.826241   3.054424   0.000000
    19  H    5.811256   2.519380   1.763436   0.000000
    20  H    7.097094   4.862993   2.455127   2.542297   0.000000
    21  H    5.994037   4.412692   3.072529   2.484454   1.772902
    22  H    6.586367   5.975000   3.784210   4.329812   2.499141
    23  H    6.059437   5.059766   2.572436   3.755613   2.538737
    24  H    4.550997   5.386909   4.118695   4.881630   4.299373
    25  H    4.113076   5.502979   5.118776   5.065385   4.832843
                   21         22         23         24         25
    21  H    0.000000
    22  H    2.530795   0.000000
    23  H    3.066662   1.773254   0.000000
    24  H    3.789262   2.578054   2.357777   0.000000
    25  H    3.484632   3.418372   4.029154   2.343369   0.000000
 Stoichiometry    C10H13NO
 Framework group  C1[X(C10H13NO)]
 Deg. of freedom    69
 Full point group                 C1      NOp   1
 Largest Abelian subgroup         C1      NOp   1
 Largest concise Abelian subgroup C1      NOp   1
                         Standard orientation:                         
 ---------------------------------------------------------------------
 Center     Atomic      Atomic             Coordinates (Angstroms)
 Number     Number       Type             X           Y           Z
 ---------------------------------------------------------------------
      1          6           0       -3.886849    0.339881    0.140310
      2          6           0       -2.412939    0.065931    0.018310
      3          6           0       -1.916029   -1.234379   -0.125100
      4          7           0       -0.626759   -1.519459   -0.255840
      5          6           0        0.262381   -0.525099   -0.254270
      6          6           0       -0.105649    0.816391   -0.075640
      7          6           0       -1.467899    1.091921    0.050130
      8          6           0        0.938291    1.906371   -0.003650
      9          6           0        2.308981    1.356741    0.384700
     10          6           0        2.679401    0.190481   -0.525710
     11          6           0        1.711101   -0.972989   -0.360890
     12          8           0        2.061691   -1.686119    0.805160
     13          1           0       -4.263529    0.877251   -0.744120
     14          1           0       -4.105139    0.963101    1.020620
     15          1           0       -4.460609   -0.592739    0.234260
     16          1           0       -2.608659   -2.084819   -0.129120
     17          1           0       -1.795159    2.127581    0.191140
     18          1           0        1.008491    2.400791   -0.989710
     19          1           0        0.608131    2.682591    0.704400
     20          1           0        3.065871    2.153161    0.326920
     21          1           0        2.288251    1.001401    1.427800
     22          1           0        3.693291   -0.179259   -0.314850
     23          1           0        2.665541    0.523071   -1.577740
     24          1           0        1.780761   -1.636829   -1.244410
     25          1           0        1.351831   -2.321619    0.955240
 ---------------------------------------------------------------------
 Rotational constants (GHZ):           1.8840038           0.6936098           0.5390386
 Standard basis: def2SVP (5D, 7F)
 There are   245 symmetry adapted cartesian basis functions of A   symmetry.
 There are   233 symmetry adapted basis functions of A   symmetry.
   233 basis functions,   391 primitive gaussians,   245 cartesian basis functions
    44 alpha electrons       44 beta electrons
       nuclear repulsion energy       701.9222628718 Hartrees.
 NAtoms=   25 NActive=   25 NUniq=   25 SFac= 1.00D+00 NAtFMM=   60 NAOKFM=F Big=F
 Integral buffers will be    131072 words long.
 Raffenetti 2 integral format.
 Two-electron integral symmetry is turned on.
 Nuclear repulsion after empirical dispersion term =      701.9058919800 Hartrees.
 One-electron integrals computed using PRISM.
   1 Symmetry operations used in ECPInt.
 ECPInt:  NShTT=    6216 NPrTT=   22140 LenC2=    6050 LenP2D=   16481.
 LDataN:  DoStor=T MaxTD1= 4 Len=   56
 NBasis=   233 RedAO= T EigKep=  5.45D-04  NBF=   233
 NBsUse=   233 1.00D-06 EigRej= -1.00D+00 NBFU=   233
 ExpMin= 1.22D-01 ExpMax= 2.27D+03 ExpMxC= 3.41D+02 IAcc=3 IRadAn=         5 AccDes= 0.00D+00
 Harris functional with IExCor= 4639 and IRadAn=       5 diagonalized for initial guess.
 HarFok:  IExCor= 4639 AccDes= 0.00D+00 IRadAn=         5 IDoV= 1 UseB2=F ITyADJ=14
 ICtDFT=  3500011 ScaDFX=  1.000000  1.000000  1.000000  1.000000
 FoFCou: FMM=F IPFlag=           0 FMFlag=      100000 FMFlg1=           0
         NFxFlg=           0 DoJE=T BraDBF=F KetDBF=T FulRan=T
         wScrn=  0.000000 ICntrl=       500 IOpCl=  0 I1Cent=   200000004 NGrid=           0
         NMat0=    1 NMatS0=      1 NMatT0=    0 NMatD0=    1 NMtDS0=    0 NMtDT0=    0
 Petite list used in FoFCou.
 Requested convergence on RMS density matrix=1.00D-08 within 128 cycles.
 Requested convergence on MAX density matrix=1.00D-06.
 Requested convergence on             energy=1.00D-06.
 No special actions if energy rises.
 Integral accuracy reduced to 1.0D-05 until final iterations.
 Initial convergence to 1.0D-05 achieved.  Increase integral accuracy.
 SCF Done:  E(RwB97XD) =  -518.347191857     A.U. after   15 cycles
            NFock= 15  Conv=0.49D-08     -V/T= 2.0108

 **********************************************************************

            Population analysis using the SCF Density.

 **********************************************************************

 Orbital symmetries:
       Occupied  (A) (A) (A) (A) (A) (A) (A) (A) (A) (A) (A) (A)
                 (A) (A) (A) (A) (A) (A) (A) (A) (A) (A) (A) (A)
                 (A) (A) (A) (A) (A) (A) (A) (A) (A) (A) (A) (A)
                 (A) (A) (A) (A) (A) (A) (A) (A)
       Virtual   (A) (A) (A) (A) (A) (A) (A) (A) (A) (A) (A) (A)
                 (A) (A) (A) (A) (A) (A) (A) (A) (A) (A) (A) (A)
                 (A) (A) (A) (A) (A) (A) (A) (A) (A) (A) (A) (A)
                 (A) (A) (A) (A) (A) (A) (A) (A) (A) (A) (A) (A)
                 (A) (A) (A) (A) (A) (A) (A) (A) (A) (A) (A) (A)
                 (A) (A) (A) (A) (A) (A) (A) (A) (A) (A) (A) (A)
                 (A) (A) (A) (A) (A) (A) (A) (A) (A) (A) (A) (A)
                 (A) (A) (A) (A) (A) (A) (A) (A) (A) (A) (A) (A)
                 (A) (A) (A) (A) (A) (A) (A) (A) (A) (A) (A) (A)
                 (A) (A) (A) (A) (A) (A) (A) (A) (A) (A) (A) (A)
                 (A) (A) (A) (A) (A) (A) (A) (A) (A) (A) (A) (A)
                 (A) (A) (A) (A) (A) (A) (A) (A) (A) (A) (A) (A)
                 (A) (A) (A) (A) (A) (A) (A) (A) (A) (A) (A) (A)
                 (A) (A) (A) (A) (A) (A) (A) (A) (A) (A) (A) (A)
                 (A) (A) (A) (A) (A) (A) (A) (A) (A) (A) (A) (A)
                 (A) (A) (A) (A) (A) (A) (A) (A) (A)
 The electronic state is 1-A.
 Alpha  occ. eigenvalues --  -19.24099 -14.43939 -10.33810 -10.33125 -10.32940
 Alpha  occ. eigenvalues --  -10.31673 -10.31545 -10.31414 -10.30743 -10.30544
 Alpha  occ. eigenvalues --  -10.29383 -10.28995  -1.10605  -1.03850  -0.92677
 Alpha  occ. eigenvalues --   -0.90819  -0.85544  -0.82381  -0.78932  -0.73347
 Alpha  occ. eigenvalues --   -0.70444  -0.69797  -0.64160  -0.61183  -0.59975
 Alpha  occ. eigenvalues --   -0.57517  -0.54290  -0.52796  -0.52407  -0.51350
 Alpha  occ. eigenvalues --   -0.50288  -0.49109  -0.48382  -0.47871  -0.46851
 Alpha  occ. eigenvalues --   -0.45858  -0.43971  -0.42128  -0.41553  -0.39270
 Alpha  occ. eigenvalues --   -0.35797  -0.35249  -0.33112  -0.32228
 Alpha virt. eigenvalues --    0.03648   0.05689   0.13805   0.14663   0.16567
 Alpha virt. eigenvalues --    0.17373   0.18350   0.18513   0.19048   0.19899
 Alpha virt. eigenvalues --    0.21263   0.22621   0.22952   0.23491   0.24126
 Alpha virt. eigenvalues --    0.25973   0.27075   0.29698   0.30993   0.31086
 Alpha virt. eigenvalues --    0.31890   0.33279   0.35513   0.35897   0.38300
 Alpha virt. eigenvalues --    0.39985   0.42898   0.44345   0.47660   0.48625
 Alpha virt. eigenvalues --    0.49053   0.50792   0.51758   0.52465   0.54869
 Alpha virt. eigenvalues --    0.56607   0.57477   0.59147   0.59816   0.62566
 Alpha virt. eigenvalues --    0.65035   0.65913   0.66133   0.67487   0.69172
 Alpha virt. eigenvalues --    0.70828   0.71286   0.71753   0.71861   0.71930
 Alpha virt. eigenvalues --    0.72904   0.73715   0.74447   0.74917   0.76110
 Alpha virt. eigenvalues --    0.76247   0.76377   0.77330   0.77706   0.77766
 Alpha virt. eigenvalues --    0.78633   0.79929   0.80600   0.81250   0.81996
 Alpha virt. eigenvalues --    0.82523   0.84683   0.86812   0.88373   0.89013
 Alpha virt. eigenvalues --    0.90360   0.94554   0.97706   1.00616   1.04502
 Alpha virt. eigenvalues --    1.06788   1.07982   1.11691   1.13354   1.15414
 Alpha virt. eigenvalues --    1.19685   1.21630   1.22783   1.25132   1.26967
 Alpha virt. eigenvalues --    1.28433   1.32123   1.34986   1.35238   1.37842
 Alpha virt. eigenvalues --    1.39976   1.42717   1.43177   1.45138   1.48605
 Alpha virt. eigenvalues --    1.51395   1.52954   1.54814   1.59987   1.61320
 Alpha virt. eigenvalues --    1.63503   1.64106   1.65841   1.67979   1.70245
 Alpha virt. eigenvalues --    1.75408   1.76423   1.77565   1.81017   1.81801
 Alpha virt. eigenvalues --    1.83397   1.85131   1.85323   1.85979   1.87465
 Alpha virt. eigenvalues --    1.87741   1.89053   1.89197   1.91086   1.91291
 Alpha virt. eigenvalues --    1.91912   1.93279   1.94073   1.95659   1.96817
 Alpha virt. eigenvalues --    1.99125   1.99359   2.00356   2.02426   2.03166
 Alpha virt. eigenvalues --    2.04561   2.07226   2.08064   2.08908   2.11112
 Alpha virt. eigenvalues --    2.16376   2.18030   2.20431   2.21559   2.24426
 Alpha virt. eigenvalues --    2.25371   2.28149   2.29966   2.32112   2.33360
 Alpha virt. eigenvalues --    2.34410   2.36900   2.38023   2.40447   2.46685
 Alpha virt. eigenvalues --    2.46888   2.48218   2.48340   2.51561   2.54553
 Alpha virt. eigenvalues --    2.56045   2.58608   2.62338   2.62651   2.65308
 Alpha virt. eigenvalues --    2.67033   2.68701   2.70432   2.72628   2.74982
 Alpha virt. eigenvalues --    2.79792   2.81364   2.86539   2.90775   2.92236
 Alpha virt. eigenvalues --    2.97548   2.99110   3.00320   3.01005   3.01527
 Alpha virt. eigenvalues --    3.05459   3.07057   3.07792   3.10906   3.12275
 Alpha virt. eigenvalues --    3.16019   3.17692   3.20845   3.21836   3.28276
 Alpha virt. eigenvalues --    3.46593   3.48519   3.67102   3.89100
          Condensed to atoms (all electrons):
               1          2          3          4          5          6
     1  C    4.554869   0.384385  -0.053779   0.005291   0.000954   0.009223
     2  C    0.384385   5.137745   0.453632  -0.041148  -0.069256   0.015833
     3  C   -0.053779   0.453632   4.759308   0.549065  -0.068737  -0.069155
     4  N    0.005291  -0.041148   0.549065   6.343075   0.486288  -0.074094
     5  C    0.000954  -0.069256  -0.068737   0.486288   5.289514   0.413148
     6  C    0.009223   0.015833  -0.069155  -0.074094   0.413148   5.198326
     7  C   -0.077009   0.428451  -0.020318  -0.036584  -0.038570   0.470004
     8  C   -0.000098   0.010537   0.000324   0.006147  -0.055204   0.318201
     9  C    0.000002  -0.000687   0.000066  -0.000880  -0.033546  -0.040862
    10  C   -0.000003  -0.000363   0.000030   0.010196  -0.009508  -0.039630
    11  C    0.000065   0.002817   0.004211  -0.070659   0.270698  -0.070047
    12  O   -0.000000  -0.000050  -0.000075  -0.009844  -0.043337   0.002704
    13  H    0.388347  -0.014182  -0.000135  -0.000148   0.000058   0.000202
    14  H    0.390258  -0.016536   0.002390  -0.000160  -0.000018   0.000588
    15  H    0.391216  -0.020435  -0.007031   0.000253   0.000040  -0.000482
    16  H   -0.007285  -0.068720   0.423098  -0.035699   0.006219   0.001504
    17  H   -0.010827  -0.067987   0.009861  -0.000313   0.014376  -0.050600
    18  H    0.000006  -0.000327   0.000059  -0.000187  -0.005334  -0.005948
    19  H   -0.000023   0.000467  -0.000025  -0.000110   0.008237  -0.017122
    20  H   -0.000000   0.000010  -0.000001   0.000020   0.001891   0.006932
    21  H   -0.000001  -0.000011  -0.000025  -0.000514  -0.008056   0.001931
    22  H    0.000000   0.000004   0.000007  -0.000192   0.007261   0.001105
    23  H   -0.000000   0.000008  -0.000008  -0.000234  -0.001685  -0.004361
    24  H   -0.000003   0.000062   0.000155  -0.005969  -0.022333   0.012849
    25  H   -0.000009   0.000011   0.000396   0.023702  -0.012545  -0.000512
               7          8          9         10         11         12
     1  C   -0.077009  -0.000098   0.000002  -0.000003   0.000065  -0.000000
     2  C    0.428451   0.010537  -0.000687  -0.000363   0.002817  -0.000050
     3  C   -0.020318   0.000324   0.000066   0.000030   0.004211  -0.000075
     4  N   -0.036584   0.006147  -0.000880   0.010196  -0.070659  -0.009844
     5  C   -0.038570  -0.055204  -0.033546  -0.009508   0.270698  -0.043337
     6  C    0.470004   0.318201  -0.040862  -0.039630  -0.070047   0.002704
     7  C    4.900108  -0.055054   0.008438   0.001735   0.002009  -0.000080
     8  C   -0.055054   4.691565   0.425507  -0.055432  -0.012943  -0.001155
     9  C    0.008438   0.425507   4.659663   0.391835  -0.041399  -0.001325
    10  C    0.001735  -0.055432   0.391835   4.825685   0.329031  -0.069562
    11  C    0.002009  -0.012943  -0.041399   0.329031   4.707685   0.343441
    12  O   -0.000080  -0.001155  -0.001325  -0.069562   0.343441   7.782258
    13  H   -0.005655   0.000002  -0.000000   0.000000  -0.000002   0.000000
    14  H   -0.006883  -0.000009   0.000001  -0.000000  -0.000001  -0.000000
    15  H    0.008540   0.000008  -0.000000   0.000000   0.000000  -0.000000
    16  H    0.006295   0.000055   0.000000   0.000000  -0.000321   0.000017
    17  H    0.434671  -0.015358   0.000499   0.000074  -0.000446   0.000004
    18  H   -0.004053   0.357319  -0.015118  -0.005080  -0.000885  -0.000037
    19  H   -0.010384   0.368397  -0.021193   0.008037   0.000210   0.000023
    20  H   -0.000372  -0.016903   0.371924  -0.014065   0.005350  -0.000073
    21  H    0.000037  -0.026716   0.388339  -0.043576   0.002742   0.012268
    22  H    0.000028   0.007034  -0.015923   0.353562  -0.004991   0.003404
    23  H   -0.000365   0.001051  -0.037136   0.362282  -0.008968   0.003660
    24  H   -0.000292  -0.001363   0.010198  -0.044652   0.366150  -0.027221
    25  H    0.000296  -0.000387   0.000058   0.011638  -0.031937   0.326577
              13         14         15         16         17         18
     1  C    0.388347   0.390258   0.391216  -0.007285  -0.010827   0.000006
     2  C   -0.014182  -0.016536  -0.020435  -0.068720  -0.067987  -0.000327
     3  C   -0.000135   0.002390  -0.007031   0.423098   0.009861   0.000059
     4  N   -0.000148  -0.000160   0.000253  -0.035699  -0.000313  -0.000187
     5  C    0.000058  -0.000018   0.000040   0.006219   0.014376  -0.005334
     6  C    0.000202   0.000588  -0.000482   0.001504  -0.050600  -0.005948
     7  C   -0.005655  -0.006883   0.008540   0.006295   0.434671  -0.004053
     8  C    0.000002  -0.000009   0.000008   0.000055  -0.015358   0.357319
     9  C   -0.000000   0.000001  -0.000000   0.000000   0.000499  -0.015118
    10  C    0.000000  -0.000000   0.000000   0.000000   0.000074  -0.005080
    11  C   -0.000002  -0.000001   0.000000  -0.000321  -0.000446  -0.000885
    12  O    0.000000  -0.000000  -0.000000   0.000017   0.000004  -0.000037
    13  H    0.611229  -0.019807  -0.019191   0.000112   0.001464  -0.000005
    14  H   -0.019807   0.616062  -0.020589  -0.000007   0.002744   0.000003
    15  H   -0.019191  -0.020589   0.622078   0.006204   0.000001  -0.000000
    16  H    0.000112  -0.000007   0.006204   0.650107  -0.000287  -0.000002
    17  H    0.001464   0.002744   0.000001  -0.000287   0.673711   0.001146
    18  H   -0.000005   0.000003  -0.000000  -0.000002   0.001146   0.654684
    19  H    0.000005  -0.000008  -0.000000  -0.000003   0.005433  -0.021918
    20  H   -0.000000   0.000000   0.000000   0.000000  -0.000007  -0.008574
    21  H   -0.000000   0.000000  -0.000000  -0.000000  -0.000001   0.007293
    22  H   -0.000000  -0.000000  -0.000000  -0.000000  -0.000002  -0.000035
    23  H    0.000000  -0.000000   0.000000  -0.000000  -0.000006   0.005298
    24  H   -0.000000   0.000000  -0.000000  -0.000046   0.000016   0.000083
    25  H    0.000000   0.000000  -0.000000  -0.000170   0.000006   0.000005
              19         20         21         22         23         24
     1  C   -0.000023  -0.000000  -0.000001   0.000000  -0.000000  -0.000003
     2  C    0.000467   0.000010  -0.000011   0.000004   0.000008   0.000062
     3  C   -0.000025  -0.000001  -0.000025   0.000007  -0.000008   0.000155
     4  N   -0.000110   0.000020  -0.000514  -0.000192  -0.000234  -0.005969
     5  C    0.008237   0.001891  -0.008056   0.007261  -0.001685  -0.022333
     6  C   -0.017122   0.006932   0.001931   0.001105  -0.004361   0.012849
     7  C   -0.010384  -0.000372   0.000037   0.000028  -0.000365  -0.000292
     8  C    0.368397  -0.016903  -0.026716   0.007034   0.001051  -0.001363
     9  C   -0.021193   0.371924   0.388339  -0.015923  -0.037136   0.010198
    10  C    0.008037  -0.014065  -0.043576   0.353562   0.362282  -0.044652
    11  C    0.000210   0.005350   0.002742  -0.004991  -0.008968   0.366150
    12  O    0.000023  -0.000073   0.012268   0.003404   0.003660  -0.027221
    13  H    0.000005  -0.000000  -0.000000  -0.000000   0.000000  -0.000000
    14  H   -0.000008   0.000000   0.000000  -0.000000  -0.000000   0.000000
    15  H   -0.000000   0.000000  -0.000000  -0.000000   0.000000  -0.000000
    16  H   -0.000003   0.000000  -0.000000  -0.000000  -0.000000  -0.000046
    17  H    0.005433  -0.000007  -0.000001  -0.000002  -0.000006   0.000016
    18  H   -0.021918  -0.008574   0.007293  -0.000035   0.005298   0.000083
    19  H    0.658587  -0.002970  -0.007892  -0.000356   0.000049   0.000015
    20  H   -0.002970   0.667607  -0.027085  -0.006613  -0.006593  -0.000270
    21  H   -0.007892  -0.027085   0.651040  -0.005083   0.009037   0.000922
    22  H   -0.000356  -0.006613  -0.005083   0.645906  -0.019559  -0.004580
    23  H    0.000049  -0.006593   0.009037  -0.019559   0.680404  -0.005154
    24  H    0.000015  -0.000270   0.000922  -0.004580  -0.005154   0.702460
    25  H    0.000008   0.000039  -0.000859  -0.000477  -0.000544  -0.000817
              25
     1  C   -0.000009
     2  C    0.000011
     3  C    0.000396
     4  N    0.023702
     5  C   -0.012545
     6  C   -0.000512
     7  C    0.000296
     8  C   -0.000387
     9  C    0.000058
    10  C    0.011638
    11  C   -0.031937
    12  O    0.326577
    13  H    0.000000
    14  H    0.000000
    15  H   -0.000000
    16  H   -0.000170
    17  H    0.000006
    18  H    0.000005
    19  H    0.000008
    20  H    0.000039
    21  H   -0.000859
    22  H   -0.000477
    23  H   -0.000544
    24  H   -0.000817
    25  H    0.512180
 Mulliken charges:
               1
     1  C    0.024419
     2  C   -0.134262
     3  C    0.016688
     4  N   -0.147302
     5  C   -0.130557
     6  C   -0.079737
     7  C   -0.004994
     8  C    0.054472
     9  C   -0.048461
    10  C   -0.012234
    11  C    0.208190
    12  O   -0.321595
    13  H    0.057706
    14  H    0.051971
    15  H    0.039388
    16  H    0.018928
    17  H    0.001827
    18  H    0.041603
    19  H    0.032532
    20  H    0.029755
    21  H    0.046209
    22  H    0.039499
    23  H    0.022823
    24  H    0.019791
    25  H    0.173341
 Sum of Mulliken charges =  -0.00000
 Mulliken charges with hydrogens summed into heavy atoms:
               1
     1  C    0.173484
     2  C   -0.134262
     3  C    0.035616
     4  N   -0.147302
     5  C   -0.130557
     6  C   -0.079737
     7  C   -0.003167
     8  C    0.128607
     9  C    0.027502
    10  C    0.050088
    11  C    0.227981
    12  O   -0.148254
 Electronic spatial extent (au):  <R**2>=           2158.3804
 Charge=             -0.0000 electrons
 Dipole moment (field-independent basis, Debye):
    X=             -2.0138    Y=              2.1361    Z=             -0.4217  Tot=              2.9658
 Quadrupole moment (field-independent basis, Debye-Ang):
   XX=            -67.4074   YY=            -69.8626   ZZ=            -73.0636
   XY=              2.2474   XZ=             -3.3048   YZ=             -0.1133
 Traceless Quadrupole moment (field-independent basis, Debye-Ang):
   XX=              2.7038   YY=              0.2486   ZZ=             -2.9525
   XY=              2.2474   XZ=             -3.3048   YZ=             -0.1133
 Octapole moment (field-independent basis, Debye-Ang**2):
  XXX=            -22.9671  YYY=             -5.0796  ZZZ=              3.2015  XYY=             -2.8572
  XXY=              5.9052  XXZ=             -5.6595  XZZ=              3.3367  YZZ=             -2.3280
  YYZ=              5.5378  XYZ=              2.8034
 Hexadecapole moment (field-independent basis, Debye-Ang**3):
 XXXX=          -1944.5438 YYYY=           -692.3027 ZZZZ=           -161.3065 XXXY=             20.0288
 XXXZ=            -11.3545 YYYX=            -14.7309 YYYZ=            -17.6413 ZZZX=              3.4116
 ZZZY=             -7.7583 XXYY=           -447.5503 XXZZ=           -370.6813 YYZZ=           -142.1152
 XXYZ=              9.8920 YYXZ=             -2.9589 ZZXY=             -6.0980
 N-N= 7.019058919800D+02 E-N=-2.606885266247D+03  KE= 5.127915394845D+02
   1 Symmetry operations used in ECPInt.
 ECPInt:  NShTT=    6216 NPrTT=   22140 LenC2=    6050 LenP2D=   16481.
 LDataN:  DoStor=T MaxTD1= 5 Len=  102
 Calling FoFJK, ICntrl=      2127 FMM=F ISym2X=0 I1Cent= 0 IOpClX= 0 NMat=1 NMatS=1 NMatT=0.
 ***** Axes restored to original set *****
 -------------------------------------------------------------------
 Center     Atomic                   Forces (Hartrees/Bohr)
 Number     Number              X              Y              Z
 -------------------------------------------------------------------
      1        6           0.000005487    0.000009753    0.000004349
      2        6          -0.000002692   -0.000004271    0.000000897
      3        6           0.000002920    0.000012110    0.000000746
      4        7           0.000002897   -0.000003378    0.000000070
      5        6           0.000005085    0.000002311   -0.000008704
      6        6          -0.000002018   -0.000001114    0.000004464
      7        6           0.000001109   -0.000002194   -0.000003127
      8        6           0.000003534    0.000000377    0.000000430
      9        6           0.000000796   -0.000001263   -0.000002149
     10        6           0.000002851   -0.000000077    0.000003817
     11        6          -0.000012978    0.000003315   -0.000001599
     12        8           0.000001737   -0.000002769    0.000004941
     13        1           0.000001004    0.000000159   -0.000003379
     14        1           0.000001617   -0.000000776   -0.000001666
     15        1          -0.000005972   -0.000005891   -0.000001437
     16        1          -0.000004992   -0.000003940    0.000000549
     17        1          -0.000000045    0.000002850    0.000000871
     18        1          -0.000001187    0.000001732   -0.000001723
     19        1          -0.000000102   -0.000002078    0.000001834
     20        1          -0.000001010   -0.000000524    0.000000472
     21        1           0.000000166   -0.000002519    0.000002690
     22        1           0.000001603   -0.000001275    0.000000256
     23        1          -0.000000762    0.000001390   -0.000003849
     24        1           0.000000132   -0.000000971    0.000001690
     25        1           0.000000819   -0.000000959   -0.000000445
 -------------------------------------------------------------------
 Cartesian Forces:  Max     0.000012978 RMS     0.000003562

 GradGradGradGradGradGradGradGradGradGradGradGradGradGradGradGradGradGrad
 Berny optimization.
 FormGI is forming the generalized inverse of G from B-inverse, IUseBI=4.
 Internal  Forces:  Max     0.000008672 RMS     0.000001717
 Search for a local minimum.
 Step number   1 out of a maximum of  150
 All quantities printed in internal units (Hartrees-Bohrs-Radians)
 Mixed Optimization -- En-DIIS/RFO-DIIS
 Second derivative matrix not updated -- first step.
 ITU=  0
     Eigenvalues ---    0.00562   0.00712   0.00715   0.01105   0.01276
     Eigenvalues ---    0.01526   0.01545   0.01647   0.02141   0.02150
     Eigenvalues ---    0.02278   0.02467   0.02988   0.03111   0.04349
     Eigenvalues ---    0.04720   0.04971   0.05323   0.05951   0.06279
     Eigenvalues ---    0.07132   0.07196   0.07266   0.07900   0.07968
     Eigenvalues ---    0.08168   0.09345   0.10048   0.11969   0.14951
     Eigenvalues ---    0.15998   0.16000   0.16000   0.16000   0.16000
     Eigenvalues ---    0.16000   0.18270   0.19136   0.23299   0.23470
     Eigenvalues ---    0.23954   0.24940   0.24999   0.28594   0.28650
     Eigenvalues ---    0.29130   0.30159   0.30912   0.31950   0.32886
     Eigenvalues ---    0.33102   0.33305   0.33445   0.33538   0.33539
     Eigenvalues ---    0.33632   0.33657   0.33725   0.33793   0.34037
     Eigenvalues ---    0.34213   0.40562   0.43833   0.44142   0.44994
     Eigenvalues ---    0.46232   0.54514   0.56691   0.58819
 RFO step:  Lambda= 0.00000000D+00 EMin= 5.62080178D-03
 Linear search not attempted -- first point.
 Iteration  1 RMS(Cart)=  0.00007136 RMS(Int)=  0.00000000
 Iteration  2 RMS(Cart)=  0.00000000 RMS(Int)=  0.00000000
 Variable       Old X    -DE/DX   Delta X   Delta X   Delta X     New X
                                 (Linear)    (Quad)   (Total)
    R1        2.84235  -0.00000   0.00000  -0.00001  -0.00001   2.84235
    R2        2.08116   0.00000   0.00000   0.00001   0.00001   2.08117
    R3        2.07956  -0.00000   0.00000  -0.00001  -0.00001   2.07955
    R4        2.07681   0.00001   0.00000   0.00003   0.00003   2.07684
    R5        2.64446  -0.00000   0.00000  -0.00001  -0.00001   2.64445
    R6        2.63667  -0.00000   0.00000  -0.00000  -0.00000   2.63667
    R7        2.50742   0.00000   0.00000   0.00001   0.00001   2.50742
    R8        2.07268   0.00001   0.00000   0.00002   0.00002   2.07270
    R9        2.52073   0.00000   0.00000   0.00000   0.00000   2.52073
   R10        2.65030  -0.00000   0.00000  -0.00000  -0.00000   2.65030
   R11        2.87261  -0.00001   0.00000  -0.00002  -0.00002   2.87259
   R12        2.63714  -0.00000   0.00000  -0.00000  -0.00000   2.63714
   R13        2.85533  -0.00000   0.00000   0.00000   0.00000   2.85533
   R14        2.06972   0.00000   0.00000   0.00001   0.00001   2.06973
   R15        2.88559  -0.00000   0.00000   0.00000   0.00000   2.88560
   R16        2.08872   0.00000   0.00000   0.00001   0.00001   2.08873
   R17        2.08115  -0.00000   0.00000  -0.00000  -0.00000   2.08115
   R18        2.88220  -0.00000   0.00000  -0.00001  -0.00001   2.88220
   R19        2.07913  -0.00000   0.00000  -0.00000  -0.00000   2.07913
   R20        2.08278   0.00000   0.00000   0.00001   0.00001   2.08279
   R21        2.87737   0.00000   0.00000   0.00001   0.00001   2.87738
   R22        2.07796   0.00000   0.00000   0.00001   0.00001   2.07797
   R23        2.08520   0.00000   0.00000   0.00001   0.00001   2.08521
   R24        2.66655   0.00001   0.00000   0.00001   0.00001   2.66656
   R25        2.09252  -0.00000   0.00000  -0.00000  -0.00000   2.09252
   R26        1.82267  -0.00000   0.00000  -0.00000  -0.00000   1.82266
    A1        1.93788  -0.00000   0.00000  -0.00003  -0.00003   1.93786
    A2        1.94165  -0.00000   0.00000  -0.00000  -0.00000   1.94165
    A3        1.94332   0.00000   0.00000   0.00002   0.00002   1.94333
    A4        1.87364   0.00000   0.00000   0.00002   0.00002   1.87366
    A5        1.87985  -0.00000   0.00000  -0.00001  -0.00001   1.87983
    A6        1.88456   0.00000   0.00000   0.00001   0.00001   1.88458
    A7        2.12411   0.00000   0.00000   0.00001   0.00001   2.12413
    A8        2.12697  -0.00000   0.00000  -0.00001  -0.00001   2.12696
    A9        2.03208  -0.00000   0.00000  -0.00000  -0.00000   2.03208
   A10        2.15888   0.00000   0.00000   0.00001   0.00001   2.15889
   A11        2.09049  -0.00000   0.00000  -0.00001  -0.00001   2.09048
   A12        2.03381  -0.00000   0.00000   0.00000   0.00000   2.03381
   A13        2.07991  -0.00000   0.00000  -0.00001  -0.00001   2.07990
   A14        2.13917  -0.00000   0.00000  -0.00000  -0.00000   2.13917
   A15        1.99933  -0.00000   0.00000  -0.00000  -0.00000   1.99932
   A16        2.14224   0.00000   0.00000  -0.00000  -0.00000   2.14224
   A17        2.04484   0.00000   0.00000   0.00000   0.00000   2.04485
   A18        2.11154  -0.00000   0.00000   0.00000   0.00000   2.11154
   A19        2.12670  -0.00000   0.00000  -0.00000  -0.00000   2.12670
   A20        2.11056   0.00000   0.00000   0.00000   0.00000   2.11056
   A21        2.08965   0.00000   0.00000   0.00000   0.00000   2.08965
   A22        2.08286  -0.00000   0.00000  -0.00000  -0.00000   2.08286
   A23        1.95266  -0.00000   0.00000   0.00001   0.00001   1.95267
   A24        1.90081  -0.00000   0.00000  -0.00000  -0.00000   1.90081
   A25        1.90916  -0.00000   0.00000  -0.00002  -0.00002   1.90914
   A26        1.90804   0.00000   0.00000   0.00002   0.00002   1.90806
   A27        1.93830   0.00000   0.00000  -0.00001  -0.00001   1.93829
   A28        1.85180   0.00000   0.00000   0.00000   0.00000   1.85181
   A29        1.91924   0.00000   0.00000   0.00001   0.00001   1.91925
   A30        1.92156  -0.00000   0.00000  -0.00001  -0.00001   1.92155
   A31        1.91756   0.00000   0.00000   0.00000   0.00000   1.91756
   A32        1.93381   0.00000   0.00000   0.00001   0.00001   1.93382
   A33        1.89966  -0.00000   0.00000  -0.00001  -0.00001   1.89964
   A34        1.87132   0.00000   0.00000   0.00000   0.00000   1.87132
   A35        1.94467  -0.00000   0.00000  -0.00002  -0.00002   1.94465
   A36        1.94613   0.00000   0.00000   0.00000   0.00000   1.94614
   A37        1.91301   0.00000   0.00000   0.00001   0.00001   1.91302
   A38        1.88459   0.00000   0.00000   0.00001   0.00001   1.88460
   A39        1.90237   0.00000   0.00000   0.00000   0.00000   1.90237
   A40        1.87104  -0.00000   0.00000   0.00001   0.00001   1.87105
   A41        1.96982   0.00000   0.00000  -0.00001  -0.00001   1.96981
   A42        1.90470   0.00000   0.00000   0.00002   0.00002   1.90472
   A43        1.86770  -0.00000   0.00000   0.00000   0.00000   1.86770
   A44        1.89401  -0.00000   0.00000  -0.00001  -0.00001   1.89400
   A45        1.90892   0.00000   0.00000   0.00000   0.00000   1.90892
   A46        1.91850  -0.00000   0.00000  -0.00001  -0.00001   1.91849
   A47        1.85325   0.00000   0.00000   0.00001   0.00001   1.85325
    D1       -1.96356   0.00000   0.00000   0.00002   0.00002  -1.96354
    D2        1.18499   0.00000   0.00000  -0.00001  -0.00001   1.18498
    D3        2.23404   0.00000   0.00000   0.00002   0.00002   2.23406
    D4       -0.90059   0.00000   0.00000  -0.00001  -0.00001  -0.90061
    D5        0.13097  -0.00000   0.00000  -0.00000  -0.00000   0.13096
    D6       -3.00366  -0.00000   0.00000  -0.00004  -0.00004  -3.00370
    D7        3.12342  -0.00000   0.00000  -0.00008  -0.00008   3.12334
    D8       -0.02252  -0.00000   0.00000  -0.00006  -0.00006  -0.02258
    D9       -0.02477  -0.00000   0.00000  -0.00005  -0.00005  -0.02482
   D10        3.11247  -0.00000   0.00000  -0.00003  -0.00003   3.11244
   D11       -3.13249   0.00000   0.00000   0.00004   0.00004  -3.13245
   D12        0.02576   0.00000   0.00000   0.00006   0.00006   0.02581
   D13        0.01572   0.00000   0.00000   0.00001   0.00001   0.01573
   D14       -3.10922   0.00000   0.00000   0.00003   0.00003  -3.10919
   D15       -0.00113   0.00000   0.00000   0.00001   0.00001  -0.00112
   D16       -3.13851  -0.00000   0.00000  -0.00000  -0.00000  -3.13851
   D17        0.03720   0.00000   0.00000   0.00006   0.00006   0.03727
   D18        3.10557  -0.00000   0.00000  -0.00004  -0.00004   3.10554
   D19       -0.04444  -0.00000   0.00000  -0.00010  -0.00010  -0.04454
   D20        3.08197  -0.00000   0.00000  -0.00007  -0.00007   3.08191
   D21       -3.10684   0.00000   0.00000   0.00001   0.00001  -3.10684
   D22        0.01957   0.00000   0.00000   0.00004   0.00004   0.01961
   D23        3.01993   0.00000   0.00000  -0.00002  -0.00002   3.01991
   D24       -1.15598  -0.00000   0.00000  -0.00003  -0.00003  -1.15601
   D25        0.91922   0.00000   0.00000  -0.00002  -0.00002   0.91920
   D26       -0.19502  -0.00000   0.00000  -0.00012  -0.00012  -0.19514
   D27        1.91225  -0.00000   0.00000  -0.00012  -0.00012   1.91212
   D28       -2.29574  -0.00000   0.00000  -0.00012  -0.00012  -2.29586
   D29        0.01647   0.00000   0.00000   0.00006   0.00006   0.01652
   D30        3.14147   0.00000   0.00000   0.00004   0.00004   3.14151
   D31       -3.10981   0.00000   0.00000   0.00003   0.00003  -3.10978
   D32        0.01519   0.00000   0.00000   0.00001   0.00001   0.01520
   D33       -0.37846   0.00000   0.00000   0.00005   0.00005  -0.37841
   D34        1.73272   0.00000   0.00000   0.00008   0.00008   1.73280
   D35       -2.53373   0.00000   0.00000   0.00007   0.00007  -2.53366
   D36        2.74724   0.00000   0.00000   0.00008   0.00008   2.74732
   D37       -1.42477   0.00000   0.00000   0.00011   0.00011  -1.42466
   D38        0.59197   0.00000   0.00000   0.00011   0.00011   0.59207
   D39        0.90393   0.00000   0.00000  -0.00005  -0.00005   0.90387
   D40        3.03947   0.00000   0.00000  -0.00004  -0.00004   3.03943
   D41       -1.18659   0.00000   0.00000  -0.00004  -0.00004  -1.18663
   D42       -1.20305   0.00000   0.00000  -0.00007  -0.00007  -1.20312
   D43        0.93249   0.00000   0.00000  -0.00006  -0.00006   0.93243
   D44        2.98962   0.00000   0.00000  -0.00006  -0.00006   2.98956
   D45        3.04268  -0.00000   0.00000  -0.00008  -0.00008   3.04260
   D46       -1.10496  -0.00000   0.00000  -0.00007  -0.00007  -1.10503
   D47        0.95217  -0.00000   0.00000  -0.00007  -0.00007   0.95210
   D48       -1.10501  -0.00000   0.00000  -0.00002  -0.00002  -1.10503
   D49        3.07106  -0.00000   0.00000  -0.00001  -0.00001   3.07105
   D50        1.00210  -0.00000   0.00000  -0.00003  -0.00003   1.00208
   D51        3.04990   0.00000   0.00000  -0.00002  -0.00002   3.04988
   D52        0.94278   0.00000   0.00000  -0.00001  -0.00001   0.94277
   D53       -1.12618  -0.00000   0.00000  -0.00003  -0.00003  -1.12620
   D54        0.99636   0.00000   0.00000  -0.00002  -0.00002   0.99634
   D55       -1.11075   0.00000   0.00000  -0.00001  -0.00001  -1.11076
   D56        3.10347  -0.00000   0.00000  -0.00003  -0.00003   3.10345
   D57        0.72768   0.00000   0.00000   0.00010   0.00010   0.72778
   D58       -1.38568  -0.00000   0.00000   0.00009   0.00009  -1.38559
   D59        2.80463   0.00000   0.00000   0.00010   0.00010   2.80473
   D60        2.87049   0.00000   0.00000   0.00009   0.00009   2.87058
   D61        0.75713  -0.00000   0.00000   0.00008   0.00008   0.75721
   D62       -1.33575   0.00000   0.00000   0.00010   0.00010  -1.33565
   D63       -1.38566   0.00000   0.00000   0.00011   0.00011  -1.38555
   D64        2.78417  -0.00000   0.00000   0.00009   0.00009   2.78427
   D65        0.69129   0.00000   0.00000   0.00011   0.00011   0.69140
   D66        0.83418   0.00000   0.00000   0.00005   0.00005   0.83423
   D67        2.98720   0.00000   0.00000   0.00005   0.00005   2.98725
   D68       -1.20909   0.00000   0.00000   0.00004   0.00004  -1.20905
         Item               Value     Threshold  Converged?
 Maximum Force            0.000009     0.000450     YES
 RMS     Force            0.000002     0.000300     YES
 Maximum Displacement     0.000309     0.001800     YES
 RMS     Displacement     0.000071     0.001200     YES
 Predicted change in Energy=-1.984242D-09
 Optimization completed.
    -- Stationary point found.
                           ----------------------------
                           !   Optimized Parameters   !
                           ! (Angstroms and Degrees)  !
 --------------------------                            --------------------------
 ! Name  Definition              Value          Derivative Info.                !
 --------------------------------------------------------------------------------
 ! R1    R(1,2)                  1.5041         -DE/DX =    0.0                 !
 ! R2    R(1,13)                 1.1013         -DE/DX =    0.0                 !
 ! R3    R(1,14)                 1.1005         -DE/DX =    0.0                 !
 ! R4    R(1,15)                 1.099          -DE/DX =    0.0                 !
 ! R5    R(2,3)                  1.3994         -DE/DX =    0.0                 !
 ! R6    R(2,7)                  1.3953         -DE/DX =    0.0                 !
 ! R7    R(3,4)                  1.3269         -DE/DX =    0.0                 !
 ! R8    R(3,16)                 1.0968         -DE/DX =    0.0                 !
 ! R9    R(4,5)                  1.3339         -DE/DX =    0.0                 !
 ! R10   R(5,6)                  1.4025         -DE/DX =    0.0                 !
 ! R11   R(5,11)                 1.5201         -DE/DX =    0.0                 !
 ! R12   R(6,7)                  1.3955         -DE/DX =    0.0                 !
 ! R13   R(6,8)                  1.511          -DE/DX =    0.0                 !
 ! R14   R(7,17)                 1.0953         -DE/DX =    0.0                 !
 ! R15   R(8,9)                  1.527          -DE/DX =    0.0                 !
 ! R16   R(8,18)                 1.1053         -DE/DX =    0.0                 !
 ! R17   R(8,19)                 1.1013         -DE/DX =    0.0                 !
 ! R18   R(9,10)                 1.5252         -DE/DX =    0.0                 !
 ! R19   R(9,20)                 1.1002         -DE/DX =    0.0                 !
 ! R20   R(9,21)                 1.1022         -DE/DX =    0.0                 !
 ! R21   R(10,11)                1.5226         -DE/DX =    0.0                 !
 ! R22   R(10,22)                1.0996         -DE/DX =    0.0                 !
 ! R23   R(10,23)                1.1034         -DE/DX =    0.0                 !
 ! R24   R(11,12)                1.4111         -DE/DX =    0.0                 !
 ! R25   R(11,24)                1.1073         -DE/DX =    0.0                 !
 ! R26   R(12,25)                0.9645         -DE/DX =    0.0                 !
 ! A1    A(2,1,13)             111.0324         -DE/DX =    0.0                 !
 ! A2    A(2,1,14)             111.2485         -DE/DX =    0.0                 !
 ! A3    A(2,1,15)             111.3439         -DE/DX =    0.0                 !
 ! A4    A(13,1,14)            107.3519         -DE/DX =    0.0                 !
 ! A5    A(13,1,15)            107.7074         -DE/DX =    0.0                 !
 ! A6    A(14,1,15)            107.9776         -DE/DX =    0.0                 !
 ! A7    A(1,2,3)              121.7027         -DE/DX =    0.0                 !
 ! A8    A(1,2,7)              121.8664         -DE/DX =    0.0                 !
 ! A9    A(3,2,7)              116.4298         -DE/DX =    0.0                 !
 ! A10   A(2,3,4)              123.6946         -DE/DX =    0.0                 !
 ! A11   A(2,3,16)             119.7762         -DE/DX =    0.0                 !
 ! A12   A(4,3,16)             116.5288         -DE/DX =    0.0                 !
 ! A13   A(3,4,5)              119.1699         -DE/DX =    0.0                 !
 ! A14   A(4,5,6)              122.5654         -DE/DX =    0.0                 !
 ! A15   A(4,5,11)             114.553          -DE/DX =    0.0                 !
 ! A16   A(6,5,11)             122.7415         -DE/DX =    0.0                 !
 ! A17   A(5,6,7)              117.1609         -DE/DX =    0.0                 !
 ! A18   A(5,6,8)              120.9821         -DE/DX =    0.0                 !
 ! A19   A(7,6,8)              121.8511         -DE/DX =    0.0                 !
 ! A20   A(2,7,6)              120.9262         -DE/DX =    0.0                 !
 ! A21   A(2,7,17)             119.7279         -DE/DX =    0.0                 !
 ! A22   A(6,7,17)             119.3391         -DE/DX =    0.0                 !
 ! A23   A(6,8,9)              111.879          -DE/DX =    0.0                 !
 ! A24   A(6,8,18)             108.9086         -DE/DX =    0.0                 !
 ! A25   A(6,8,19)             109.3869         -DE/DX =    0.0                 !
 ! A26   A(9,8,18)             109.3225         -DE/DX =    0.0                 !
 ! A27   A(9,8,19)             111.0567         -DE/DX =    0.0                 !
 ! A28   A(18,8,19)            106.1006         -DE/DX =    0.0                 !
 ! A29   A(8,9,10)             109.9642         -DE/DX =    0.0                 !
 ! A30   A(8,9,20)             110.0972         -DE/DX =    0.0                 !
 ! A31   A(8,9,21)             109.8683         -DE/DX =    0.0                 !
 ! A32   A(10,9,20)            110.7989         -DE/DX =    0.0                 !
 ! A33   A(10,9,21)            108.8424         -DE/DX =    0.0                 !
 ! A34   A(20,9,21)            107.2186         -DE/DX =    0.0                 !
 ! A35   A(9,10,11)            111.4216         -DE/DX =    0.0                 !
 ! A36   A(9,10,22)            111.5052         -DE/DX =    0.0                 !
 ! A37   A(9,10,23)            109.6075         -DE/DX =    0.0                 !
 ! A38   A(11,10,22)           107.9793         -DE/DX =    0.0                 !
 ! A39   A(11,10,23)           108.9976         -DE/DX =    0.0                 !
 ! A40   A(22,10,23)           107.2028         -DE/DX =    0.0                 !
 ! A41   A(5,11,10)            112.8623         -DE/DX =    0.0                 !
 ! A42   A(5,11,12)            109.1311         -DE/DX =    0.0                 !
 ! A43   A(5,11,24)            107.0111         -DE/DX =    0.0                 !
 ! A44   A(10,11,12)           108.5188         -DE/DX =    0.0                 !
 ! A45   A(10,11,24)           109.3729         -DE/DX =    0.0                 !
 ! A46   A(12,11,24)           109.9217         -DE/DX =    0.0                 !
 ! A47   A(11,12,25)           106.1832         -DE/DX =    0.0                 !
 ! D1    D(13,1,2,3)          -112.5039         -DE/DX =    0.0                 !
 ! D2    D(13,1,2,7)            67.895          -DE/DX =    0.0                 !
 ! D3    D(14,1,2,3)           128.0008         -DE/DX =    0.0                 !
 ! D4    D(14,1,2,7)           -51.6003         -DE/DX =    0.0                 !
 ! D5    D(15,1,2,3)             7.5038         -DE/DX =    0.0                 !
 ! D6    D(15,1,2,7)          -172.0973         -DE/DX =    0.0                 !
 ! D7    D(1,2,3,4)            178.9589         -DE/DX =    0.0                 !
 ! D8    D(1,2,3,16)            -1.29           -DE/DX =    0.0                 !
 ! D9    D(7,2,3,4)             -1.4195         -DE/DX =    0.0                 !
 ! D10   D(7,2,3,16)           178.3316         -DE/DX =    0.0                 !
 ! D11   D(1,2,7,6)           -179.4784         -DE/DX =    0.0                 !
 ! D12   D(1,2,7,17)             1.4757         -DE/DX =    0.0                 !
 ! D13   D(3,2,7,6)              0.9006         -DE/DX =    0.0                 !
 ! D14   D(3,2,7,17)          -178.1453         -DE/DX =    0.0                 !
 ! D15   D(2,3,4,5)             -0.0649         -DE/DX =    0.0                 !
 ! D16   D(16,3,4,5)          -179.8234         -DE/DX =    0.0                 !
 ! D17   D(3,4,5,6)              2.1316         -DE/DX =    0.0                 !
 ! D18   D(3,4,5,11)           177.9363         -DE/DX =    0.0                 !
 ! D19   D(4,5,6,7)             -2.5465         -DE/DX =    0.0                 !
 ! D20   D(4,5,6,8)            176.5841         -DE/DX =    0.0                 !
 ! D21   D(11,5,6,7)          -178.0091         -DE/DX =    0.0                 !
 ! D22   D(11,5,6,8)             1.1215         -DE/DX =    0.0                 !
 ! D23   D(4,5,11,10)          173.0295         -DE/DX =    0.0                 !
 ! D24   D(4,5,11,12)          -66.2328         -DE/DX =    0.0                 !
 ! D25   D(4,5,11,24)           52.6673         -DE/DX =    0.0                 !
 ! D26   D(6,5,11,10)          -11.174          -DE/DX =    0.0                 !
 ! D27   D(6,5,11,12)          109.5636         -DE/DX =    0.0                 !
 ! D28   D(6,5,11,24)         -131.5362         -DE/DX =    0.0                 !
 ! D29   D(5,6,7,2)              0.9434         -DE/DX =    0.0                 !
 ! D30   D(5,6,7,17)           179.993          -DE/DX =    0.0                 !
 ! D31   D(8,6,7,2)           -178.1791         -DE/DX =    0.0                 !
 ! D32   D(8,6,7,17)             0.8705         -DE/DX =    0.0                 !
 ! D33   D(5,6,8,9)            -21.6841         -DE/DX =    0.0                 !
 ! D34   D(5,6,8,18)            99.2774         -DE/DX =    0.0                 !
 ! D35   D(5,6,8,19)          -145.1722         -DE/DX =    0.0                 !
 ! D36   D(7,6,8,9)            157.4053         -DE/DX =    0.0                 !
 ! D37   D(7,6,8,18)           -81.6333         -DE/DX =    0.0                 !
 ! D38   D(7,6,8,19)            33.9171         -DE/DX =    0.0                 !
 ! D39   D(6,8,9,10)            51.7913         -DE/DX =    0.0                 !
 ! D40   D(6,8,9,20)           174.1489         -DE/DX =    0.0                 !
 ! D41   D(6,8,9,21)           -67.9864         -DE/DX =    0.0                 !
 ! D42   D(18,8,9,10)          -68.9299         -DE/DX =    0.0                 !
 ! D43   D(18,8,9,20)           53.4277         -DE/DX =    0.0                 !
 ! D44   D(18,8,9,21)          171.2924         -DE/DX =    0.0                 !
 ! D45   D(19,8,9,10)          174.3328         -DE/DX =    0.0                 !
 ! D46   D(19,8,9,20)          -63.3096         -DE/DX =    0.0                 !
 ! D47   D(19,8,9,21)           54.5551         -DE/DX =    0.0                 !
 ! D48   D(8,9,10,11)          -63.3123         -DE/DX =    0.0                 !
 ! D49   D(8,9,10,22)          175.959          -DE/DX =    0.0                 !
 ! D50   D(8,9,10,23)           57.4163         -DE/DX =    0.0                 !
 ! D51   D(20,9,10,11)         174.7463         -DE/DX =    0.0                 !
 ! D52   D(20,9,10,22)          54.0176         -DE/DX =    0.0                 !
 ! D53   D(20,9,10,23)         -64.5251         -DE/DX =    0.0                 !
 ! D54   D(21,9,10,11)          57.0874         -DE/DX =    0.0                 !
 ! D55   D(21,9,10,22)         -63.6413         -DE/DX =    0.0                 !
 ! D56   D(21,9,10,23)         177.8159         -DE/DX =    0.0                 !
 ! D57   D(9,10,11,5)           41.693          -DE/DX =    0.0                 !
 ! D58   D(9,10,11,12)         -79.3933         -DE/DX =    0.0                 !
 ! D59   D(9,10,11,24)         160.6933         -DE/DX =    0.0                 !
 ! D60   D(22,10,11,5)         164.4669         -DE/DX =    0.0                 !
 ! D61   D(22,10,11,12)         43.3806         -DE/DX =    0.0                 !
 ! D62   D(22,10,11,24)        -76.5328         -DE/DX =    0.0                 !
 ! D63   D(23,10,11,5)         -79.3924         -DE/DX =    0.0                 !
 ! D64   D(23,10,11,12)        159.5213         -DE/DX =    0.0                 !
 ! D65   D(23,10,11,24)         39.6079         -DE/DX =    0.0                 !
 ! D66   D(5,11,12,25)          47.7953         -DE/DX =    0.0                 !
 ! D67   D(10,11,12,25)        171.1541         -DE/DX =    0.0                 !
 ! D68   D(24,11,12,25)        -69.2755         -DE/DX =    0.0                 !
 --------------------------------------------------------------------------------
 GradGradGradGradGradGradGradGradGradGradGradGradGradGradGradGradGradGrad

                          Input orientation:                          
 ---------------------------------------------------------------------
 Center     Atomic      Atomic             Coordinates (Angstroms)
 Number     Number       Type             X           Y           Z
 ---------------------------------------------------------------------
      1          6           0       -3.886850    0.339880    0.140310
      2          6           0       -2.412940    0.065930    0.018310
      3          6           0       -1.916030   -1.234380   -0.125100
      4          7           0       -0.626760   -1.519460   -0.255840
      5          6           0        0.262380   -0.525100   -0.254270
      6          6           0       -0.105650    0.816390   -0.075640
      7          6           0       -1.467900    1.091920    0.050130
      8          6           0        0.938290    1.906370   -0.003650
      9          6           0        2.308980    1.356740    0.384700
     10          6           0        2.679400    0.190480   -0.525710
     11          6           0        1.711100   -0.972990   -0.360890
     12          8           0        2.061690   -1.686120    0.805160
     13          1           0       -4.263530    0.877250   -0.744120
     14          1           0       -4.105140    0.963100    1.020620
     15          1           0       -4.460610   -0.592740    0.234260
     16          1           0       -2.608660   -2.084820   -0.129120
     17          1           0       -1.795160    2.127580    0.191140
     18          1           0        1.008490    2.400790   -0.989710
     19          1           0        0.608130    2.682590    0.704400
     20          1           0        3.065870    2.153160    0.326920
     21          1           0        2.288250    1.001400    1.427800
     22          1           0        3.693290   -0.179260   -0.314850
     23          1           0        2.665540    0.523070   -1.577740
     24          1           0        1.780760   -1.636830   -1.244410
     25          1           0        1.351830   -2.321620    0.955240
 ---------------------------------------------------------------------
                    Distance matrix (angstroms):
                    1          2          3          4          5
     1  C    0.000000
     2  C    1.504109   0.000000
     3  C    2.536310   1.399390   0.000000
     4  N    3.773893   2.403967   1.326869   0.000000
     5  C    4.256759   2.753353   2.294610   1.333913   0.000000
     6  C    3.817220   2.428086   2.735979   2.400046   1.402480
     7  C    2.534761   1.395266   2.375542   2.760514   2.387736
     8  C    5.075095   3.823407   4.245728   3.774824   2.536082
     9  C    6.283474   4.908866   4.982420   4.159494   2.852749
    10  C    6.601632   5.122831   4.827908   3.731946   2.535295
    11  C    5.771644   4.269760   3.644173   2.403176   1.520119
    12  O    6.319164   4.869407   4.109952   2.895041   2.389116
    13  H    1.101304   2.159681   3.217596   4.382777   4.763444
    14  H    1.100454   2.161731   3.306629   4.459998   4.786994
    15  H    1.099003   2.161812   2.648722   3.974596   4.748670
    16  H    2.754185   2.164663   1.096814   2.064853   3.269749
    17  H    2.752021   2.159149   3.378963   3.855626   3.386528
    18  H    5.430345   4.263081   4.744979   4.310565   3.107794
    19  H    5.100131   4.055181   4.733087   4.483775   3.365690
    20  H    7.187706   5.871041   6.041447   5.240540   3.920512
    21  H    6.342484   4.996294   5.008611   4.205551   3.043635
    22  H    7.611518   6.120225   5.710845   4.523544   3.448829
    23  H    6.776361   5.342968   5.117575   4.093725   2.936905
    24  H    6.160084   4.699040   3.883436   2.605225   2.126452
    25  H    5.932239   4.555406   3.609451   2.454586   2.424314
                    6          7          8          9         10
     6  C    0.000000
     7  C    1.395514   0.000000
     8  C    1.510976   2.540860   0.000000
     9  C    2.516809   3.800906   1.526990   0.000000
    10  C    2.889780   4.283023   2.499658   1.525195   0.000000
    11  C    2.565897   3.812982   3.002594   2.518136   1.522640
    12  O    3.425745   4.554732   3.849959   3.081710   2.382102
    13  H    4.211714   2.914183   5.354093   6.685958   6.980232
    14  H    4.149606   2.813091   5.232119   6.457576   7.001290
    15  H    4.587740   3.439229   5.954013   7.046308   7.222931
    16  H    3.832093   3.380110   5.340992   6.024245   5.770429
    17  H    2.155188   1.095251   2.749296   4.180386   4.928277
    18  H    2.141765   2.987794   1.105302   2.161092   2.809396
    19  H    2.144912   2.695960   1.101298   2.180132   3.466113
    20  H    3.465191   4.664538   2.167205   1.100230   2.174500
    21  H    2.832899   4.001853   2.165736   1.102159   2.150998
    22  H    3.934525   5.327944   3.469398   2.182884   1.099610
    23  H    3.165728   4.478714   2.715635   2.161784   1.103438
    24  H    3.307999   4.435730   3.847533   3.448837   2.159432
    25  H    3.610273   4.519110   4.355041   3.843434   3.204107
                   11         12         13         14         15
    11  C    0.000000
    12  O    1.411078   0.000000
    13  H    6.266295   6.998539   0.000000
    14  H    6.283762   6.715250   1.773912   0.000000
    15  H    6.211988   6.637907   1.776778   1.779146   0.000000
    16  H    4.466566   4.779541   3.448286   3.584853   2.405840
    17  H    4.712975   5.458628   2.920768   2.716626   3.808756
    18  H    3.503065   4.586243   5.493240   5.679577   6.353769
    19  H    3.964171   4.605281   5.393564   5.027082   6.053176
    20  H    3.475816   3.997144   7.516327   7.302112   8.012269
    21  H    2.725937   2.767991   6.903511   6.406458   7.036543
    22  H    2.135698   2.487402   8.038126   7.993996   8.182822
    23  H    2.151714   3.305052   6.988017   7.265481   7.437096
    24  H    1.107314   2.069321   6.565389   6.821570   6.498560
    25  H    1.918352   0.964513   6.682280   6.369630   6.106824
                   16         17         18         19         20
    16  H    0.000000
    17  H    4.302170   0.000000
    18  H    5.826241   3.054424   0.000000
    19  H    5.811256   2.519380   1.763436   0.000000
    20  H    7.097094   4.862993   2.455127   2.542297   0.000000
    21  H    5.994037   4.412692   3.072529   2.484454   1.772902
    22  H    6.586367   5.975000   3.784210   4.329812   2.499141
    23  H    6.059437   5.059766   2.572436   3.755613   2.538737
    24  H    4.550997   5.386909   4.118695   4.881630   4.299373
    25  H    4.113076   5.502979   5.118776   5.065385   4.832843
                   21         22         23         24         25
    21  H    0.000000
[...]
 Alpha virt. eigenvalues --    3.12424   3.14193   3.15334   3.16475   3.16781
 Alpha virt. eigenvalues --    3.19691   3.20790   3.21574   3.22636   3.23933
 Alpha virt. eigenvalues --    3.24654   3.25503   3.27432   3.28183   3.30865
 Alpha virt. eigenvalues --    3.31525   3.32443   3.33153   3.34351   3.35021
 Alpha virt. eigenvalues --    3.36001   3.37084   3.37284   3.38102   3.39266
 Alpha virt. eigenvalues --    3.40235   3.41575   3.42176   3.43027   3.43976
 Alpha virt. eigenvalues --    3.44659   3.46629   3.47597   3.49233   3.50227
 Alpha virt. eigenvalues --    3.51969   3.52909   3.55137   3.56457   3.57456
 Alpha virt. eigenvalues --    3.58550   3.59978   3.62218   3.62708   3.64997
 Alpha virt. eigenvalues --    3.65893   3.67571   3.69334   3.71156   3.73437
 Alpha virt. eigenvalues --    3.75307   3.77988   3.79071   3.80897   3.82109
 Alpha virt. eigenvalues --    3.82711   3.83003   3.83742   3.85955   3.89547
 Alpha virt. eigenvalues --    3.90984   3.94169   3.95643   3.98130   3.99541
 Alpha virt. eigenvalues --    4.01738   4.04707   4.05372   4.07542   4.08220
 Alpha virt. eigenvalues --    4.10968   4.12241   4.13130   4.14337   4.17310
 Alpha virt. eigenvalues --    4.19564   4.20689   4.23993   4.25120   4.26550
 Alpha virt. eigenvalues --    4.28013   4.30177   4.30735   4.33643   4.34764
 Alpha virt. eigenvalues --    4.39417   4.40995   4.43495   4.44777   4.47648
 Alpha virt. eigenvalues --    4.48487   4.52863   4.57238   4.57836   4.61039
 Alpha virt. eigenvalues --    4.64584   4.67716   4.68437   4.69303   4.71006
 Alpha virt. eigenvalues --    4.74804   4.77290   4.77966   4.81467   4.89393
 Alpha virt. eigenvalues --    4.93110   4.95069   4.99307   5.00908   5.03972
 Alpha virt. eigenvalues --    5.05660   5.08817   5.13867   5.17150   5.19088
 Alpha virt. eigenvalues --    5.29529   5.31449   5.35822   5.37270   5.39886
 Alpha virt. eigenvalues --    5.42348   5.46252   5.52792   5.55449   5.59705
 Alpha virt. eigenvalues --    5.65896   5.75937   5.86478   5.88780   5.90075
 Alpha virt. eigenvalues --    5.98253   6.07693   6.28855   6.39987   6.60549
 Alpha virt. eigenvalues --    6.86219   6.91571   7.10524   7.29333  22.48070
 Alpha virt. eigenvalues --   22.56699  22.61047  22.62972  22.68900  22.82550
 Alpha virt. eigenvalues --   22.94241  23.02630  23.15632  23.45734  32.68441
 Alpha virt. eigenvalues --   44.21714
          Condensed to atoms (all electrons):
               1          2          3          4          5          6
     1  C    4.957792   0.282785  -0.046593   0.010039  -0.002452   0.014180
     2  C    0.282785   5.092231   0.487105  -0.050497  -0.075066   0.030462
     3  C   -0.046593   0.487105   4.781591   0.570647  -0.098535  -0.048660
     4  N    0.010039  -0.050497   0.570647   6.607543   0.389913  -0.079614
     5  C   -0.002452  -0.075066  -0.098535   0.389913   5.286174   0.355741
     6  C    0.014180   0.030462  -0.048660  -0.079614   0.355741   5.237322
     7  C   -0.091146   0.372204  -0.002681  -0.068683  -0.001443   0.379883
     8  C    0.000056   0.013565  -0.003609   0.008258  -0.055510   0.279973
     9  C    0.000006  -0.001048   0.000695   0.000343  -0.011522  -0.044432
    10  C   -0.000049  -0.002002   0.002098   0.015681   0.016978  -0.048714
    11  C    0.000044   0.002927  -0.002283  -0.048714   0.267965  -0.016337
    12  O    0.000005  -0.000098  -0.000251  -0.018433  -0.050398   0.020190
    13  H    0.403681  -0.028117  -0.003242  -0.000305   0.000176  -0.000934
    14  H    0.417661  -0.042428  -0.000586  -0.000264  -0.000183   0.001408
    15  H    0.425813  -0.062680  -0.001563   0.000175   0.000597  -0.001081
    16  H   -0.004567  -0.089212   0.442059  -0.027630   0.007455  -0.002349
    17  H   -0.004020  -0.055861   0.005847  -0.002118   0.013496  -0.060377
    18  H   -0.000015  -0.001066   0.000359  -0.000310  -0.008985  -0.041707
    19  H   -0.000074  -0.000814   0.000396  -0.000294   0.007534  -0.054045
    20  H    0.000000   0.000025  -0.000015   0.000030   0.000889   0.012551
    21  H   -0.000001   0.000181  -0.000150  -0.000706  -0.011676   0.004994
    22  H    0.000000   0.000033   0.000016  -0.000157   0.015383  -0.002849
    23  H    0.000000   0.000110  -0.000116  -0.000445  -0.003228  -0.003711
    24  H   -0.000006   0.000928  -0.000955  -0.007673  -0.074810   0.025759
    25  H   -0.000027  -0.000636   0.002355   0.021106  -0.015895  -0.001993
               7          8          9         10         11         12
     1  C   -0.091146   0.000056   0.000006  -0.000049   0.000044   0.000005
     2  C    0.372204   0.013565  -0.001048  -0.002002   0.002927  -0.000098
     3  C   -0.002681  -0.003609   0.000695   0.002098  -0.002283  -0.000251
     4  N   -0.068683   0.008258   0.000343   0.015681  -0.048714  -0.018433
     5  C   -0.001443  -0.055510  -0.011522   0.016978   0.267965  -0.050398
     6  C    0.379883   0.279973  -0.044432  -0.048714  -0.016337   0.020190
     7  C    5.284899  -0.079747   0.006338   0.004653  -0.006094   0.001941
     8  C   -0.079747   4.965607   0.332839  -0.034912   0.003342  -0.000834
     9  C    0.006338   0.332839   4.902558   0.308108  -0.006990  -0.012698
    10  C    0.004653  -0.034912   0.308108   5.045146   0.257637  -0.047422
    11  C   -0.006094   0.003342  -0.006990   0.257637   4.714305   0.305140
    12  O    0.001941  -0.000834  -0.012698  -0.047422   0.305140   8.011080
    13  H   -0.006213  -0.000021  -0.000004   0.000001   0.000012   0.000000
    14  H   -0.005417  -0.000038   0.000007   0.000000  -0.000018  -0.000001
    15  H    0.013306  -0.000002  -0.000000   0.000000  -0.000003   0.000000
    16  H    0.009553   0.000152  -0.000006  -0.000003  -0.000262   0.000053
    17  H    0.445921  -0.006113   0.000456   0.000061  -0.000283   0.000023
    18  H    0.002896   0.407526  -0.024687  -0.005284  -0.002494  -0.000103
    19  H    0.003944   0.414662  -0.031225   0.009994  -0.001733  -0.000012
    20  H   -0.000690  -0.048895   0.422093  -0.032924   0.005868  -0.000013
    21  H    0.001069  -0.025582   0.413723  -0.046441   0.006068   0.010704
    22  H   -0.000156   0.009174  -0.030044   0.414470  -0.042710   0.002699
    23  H   -0.000045   0.005693  -0.046847   0.407283  -0.025031   0.003100
    24  H   -0.000419  -0.002712   0.007333  -0.085735   0.465693  -0.048147
    25  H    0.001394  -0.000603   0.000183   0.013350  -0.036357   0.301533
              13         14         15         16         17         18
     1  C    0.403681   0.417661   0.425813  -0.004567  -0.004020  -0.000015
     2  C   -0.028117  -0.042428  -0.062680  -0.089212  -0.055861  -0.001066
     3  C   -0.003242  -0.000586  -0.001563   0.442059   0.005847   0.000359
     4  N   -0.000305  -0.000264   0.000175  -0.027630  -0.002118  -0.000310
     5  C    0.000176  -0.000183   0.000597   0.007455   0.013496  -0.008985
     6  C   -0.000934   0.001408  -0.001081  -0.002349  -0.060377  -0.041707
     7  C   -0.006213  -0.005417   0.013306   0.009553   0.445921   0.002896
     8  C   -0.000021  -0.000038  -0.000002   0.000152  -0.006113   0.407526
     9  C   -0.000004   0.000007  -0.000000  -0.000006   0.000456  -0.024687
    10  C    0.000001   0.000000   0.000000  -0.000003   0.000061  -0.005284
    11  C    0.000012  -0.000018  -0.000003  -0.000262  -0.000283  -0.002494
    12  O    0.000000  -0.000001   0.000000   0.000053   0.000023  -0.000103
    13  H    0.553162  -0.031461  -0.020477  -0.000005   0.000042  -0.000004
    14  H   -0.031461   0.551181  -0.021222  -0.000101   0.000316   0.000007
    15  H   -0.020477  -0.021222   0.539491   0.003087   0.000199  -0.000000
    16  H   -0.000005  -0.000101   0.003087   0.545699  -0.000216  -0.000001
    17  H    0.000042   0.000316   0.000199  -0.000216   0.536785   0.000276
    18  H   -0.000004   0.000007  -0.000000  -0.000001   0.000276   0.590311
    19  H    0.000007  -0.000013   0.000002  -0.000002   0.003588  -0.029018
    20  H   -0.000000   0.000000   0.000000   0.000000  -0.000022  -0.004581
    21  H    0.000000   0.000000  -0.000000  -0.000002  -0.000013   0.005649
    22  H    0.000000  -0.000000  -0.000000  -0.000001  -0.000004   0.000152
    23  H   -0.000000   0.000000   0.000000  -0.000001  -0.000008   0.002315
    24  H   -0.000001   0.000001   0.000000  -0.000158   0.000025   0.000186
    25  H    0.000000   0.000001   0.000000  -0.000100   0.000016   0.000012
              19         20         21         22         23         24
     1  C   -0.000074   0.000000  -0.000001   0.000000   0.000000  -0.000006
     2  C   -0.000814   0.000025   0.000181   0.000033   0.000110   0.000928
     3  C    0.000396  -0.000015  -0.000150   0.000016  -0.000116  -0.000955
     4  N   -0.000294   0.000030  -0.000706  -0.000157  -0.000445  -0.007673
     5  C    0.007534   0.000889  -0.011676   0.015383  -0.003228  -0.074810
     6  C   -0.054045   0.012551   0.004994  -0.002849  -0.003711   0.025759
     7  C    0.003944  -0.000690   0.001069  -0.000156  -0.000045  -0.000419
     8  C    0.414662  -0.048895  -0.025582   0.009174   0.005693  -0.002712
     9  C   -0.031225   0.422093   0.413723  -0.030044  -0.046847   0.007333
    10  C    0.009994  -0.032924  -0.046441   0.414470   0.407283  -0.085735
    11  C   -0.001733   0.005868   0.006068  -0.042710  -0.025031   0.465693
    12  O   -0.000012  -0.000013   0.010704   0.002699   0.003100  -0.048147
    13  H    0.000007  -0.000000   0.000000   0.000000  -0.000000  -0.000001
    14  H   -0.000013   0.000000   0.000000  -0.000000   0.000000   0.000001
    15  H    0.000002   0.000000  -0.000000  -0.000000   0.000000   0.000000
    16  H   -0.000002   0.000000  -0.000002  -0.000001  -0.000001  -0.000158
    17  H    0.003588  -0.000022  -0.000013  -0.000004  -0.000008   0.000025
    18  H   -0.029018  -0.004581   0.005649   0.000152   0.002315   0.000186
    19  H    0.570122  -0.003552  -0.005003  -0.000289   0.000160   0.000027
    20  H   -0.003552   0.576343  -0.025667  -0.004823  -0.003910  -0.000263
    21  H   -0.005003  -0.025667   0.553968  -0.002527   0.006389   0.001263
    22  H   -0.000289  -0.004823  -0.002527   0.547352  -0.020498  -0.003086
    23  H    0.000160  -0.003910   0.006389  -0.020498   0.584904  -0.002644
    24  H    0.000027  -0.000263   0.001263  -0.003086  -0.002644   0.647301
    25  H    0.000006   0.000040  -0.000827  -0.000499  -0.000693  -0.003577
              25
     1  C   -0.000027
     2  C   -0.000636
     3  C    0.002355
     4  N    0.021106
     5  C   -0.015895
     6  C   -0.001993
     7  C    0.001394
     8  C   -0.000603
     9  C    0.000183
    10  C    0.013350
    11  C   -0.036357
    12  O    0.301533
    13  H    0.000000
    14  H    0.000001
    15  H    0.000000
    16  H   -0.000100
    17  H    0.000016
    18  H    0.000012
    19  H    0.000006
    20  H    0.000040
    21  H   -0.000827
    22  H   -0.000499
    23  H   -0.000693
    24  H   -0.003577
    25  H    0.403859
 Mulliken charges:
               1
     1  C   -0.363113
     2  C    0.126969
     3  C   -0.083929
     4  N   -0.317894
     5  C    0.047402
     6  C    0.044339
     7  C   -0.265267
     8  C   -0.182270
     9  C   -0.185180
    10  C   -0.191978
    11  C    0.160311
    12  O   -0.478059
    13  H    0.133706
    14  H    0.131149
    15  H    0.124357
    16  H    0.116558
    17  H    0.121988
    18  H    0.108567
    19  H    0.115633
    20  H    0.107516
    21  H    0.114587
    22  H    0.118365
    23  H    0.097222
    24  H    0.081669
    25  H    0.317352
 Sum of Mulliken charges =  -0.00000
 Mulliken charges with hydrogens summed into heavy atoms:
               1
     1  C    0.026099
     2  C    0.126969
     3  C    0.032628
     4  N   -0.317894
     5  C    0.047402
     6  C    0.044339
     7  C   -0.143279
     8  C    0.041931
     9  C    0.036924
    10  C    0.023608
    11  C    0.241980
    12  O   -0.160707
 Electronic spatial extent (au):  <R**2>=           2159.1566
 Charge=              0.0000 electrons
 Dipole moment (field-independent basis, Debye):
    X=             -1.9606    Y=              2.2582    Z=             -0.4552  Tot=              3.0250
 Quadrupole moment (field-independent basis, Debye-Ang):
   XX=            -67.5752   YY=            -70.4196   ZZ=            -73.3827
   XY=              2.6248   XZ=             -3.4764   YZ=             -0.0350
 Traceless Quadrupole moment (field-independent basis, Debye-Ang):
   XX=              2.8839   YY=              0.0396   ZZ=             -2.9235
   XY=              2.6248   XZ=             -3.4764   YZ=             -0.0350
 Octapole moment (field-independent basis, Debye-Ang**2):
  XXX=            -22.0398  YYY=             -3.2655  ZZZ=              2.5681  XYY=             -3.5517
  XXY=              6.1300  XXZ=             -6.0641  XZZ=              3.4134  YZZ=             -1.5377
  YYZ=              5.6097  XYZ=              2.9879
 Hexadecapole moment (field-independent basis, Debye-Ang**3):
 XXXX=          -1965.4826 YYYY=           -706.3448 ZZZZ=           -166.4249 XXXY=             27.4233
 XXXZ=            -13.0462 YYYX=            -10.3436 YYYZ=            -16.9860 ZZZX=              1.9127
 ZZZY=             -7.3193 XXYY=           -452.5388 XXZZ=           -374.6334 YYZZ=           -144.6925
 XXYZ=             10.4354 YYXZ=             -3.9527 ZZXY=             -6.1006
 N-N= 7.019058919800D+02 E-N=-2.611226963108D+03  KE= 5.161024765607D+02
 Breneman (CHELPG) radii used.
 Read replacement radii for each type of atom:
 Atom Element Radius
    1     6    1.50
    2     6    1.50
    3     6    1.50
    4     7    1.70
    5     6    1.50
    6     6    1.50
    7     6    1.50
    8     6    1.50
    9     6    1.50
   10     6    1.50
   11     6    1.50
   12     8    1.70
   13     1    1.45
   14     1    1.45
   15     1    1.45
   16     1    1.45
   17     1    1.45
   18     1    1.45
   19     1    1.45
   20     1    1.45
   21     1    1.45
   22     1    1.45
   23     1    1.45
   24     1    1.45
   25     1    1.45
 Generate Potential Derived Charges using the Breneman model, NDens= 1.
 Grid spacing= 0.300 Box extension= 2.800
 NStep X,Y,Z=   47     37     30   Total possible points=       52170
 Number of Points to Fit=   15092

 **********************************************************************

            Electrostatic Properties Using The SCF Density.

 **********************************************************************

       Atomic Center    1 is at  -3.886849  0.339881  0.140310
       Atomic Center    2 is at  -2.412939  0.065931  0.018310
       Atomic Center    3 is at  -1.916029 -1.234379 -0.125100
       Atomic Center    4 is at  -0.626759 -1.519459 -0.255840
       Atomic Center    5 is at   0.262381 -0.525099 -0.254270
       Atomic Center    6 is at  -0.105649  0.816391 -0.075640
       Atomic Center    7 is at  -1.467899  1.091921  0.050130
       Atomic Center    8 is at   0.938291  1.906371 -0.003650
       Atomic Center    9 is at   2.308981  1.356741  0.384700
       Atomic Center   10 is at   2.679401  0.190481 -0.525710
       Atomic Center   11 is at   1.711101 -0.972989 -0.360890
       Atomic Center   12 is at   2.061691 -1.686119  0.805160
       Atomic Center   13 is at  -4.263529  0.877251 -0.744120
       Atomic Center   14 is at  -4.105139  0.963101  1.020620
       Atomic Center   15 is at  -4.460609 -0.592739  0.234260
       Atomic Center   16 is at  -2.608659 -2.084819 -0.129120
       Atomic Center   17 is at  -1.795159  2.127581  0.191140
       Atomic Center   18 is at   1.008491  2.400791 -0.989710
       Atomic Center   19 is at   0.608131  2.682591  0.704400
       Atomic Center   20 is at   3.065871  2.153161  0.326920
       Atomic Center   21 is at   2.288251  1.001401  1.427800
       Atomic Center   22 is at   3.693291 -0.179259 -0.314850
       Atomic Center   23 is at   2.665541  0.523071 -1.577740
       Atomic Center   24 is at   1.780761 -1.636829 -1.244410
       Atomic Center   25 is at   1.351831 -2.321619  0.955240
   15092 points will be used for fitting atomic charges
 Fitting point charges to electrostatic potential
 Charges from ESP fit, RMS=   0.00286 RRMS=   0.24155:
 ESP charges:
               1
     1  C   -0.293863
     2  C    0.040934
     3  C    0.207949
     4  N   -0.585622
     5  C    0.317543
     6  C   -0.080405
     7  C   -0.115253
     8  C   -0.049115
     9  C    0.101178
    10  C   -0.064686
    11  C    0.199475
    12  O   -0.595278
    13  H    0.090552
    14  H    0.094551
    15  H    0.084478
    16  H    0.059404
    17  H    0.117902
    18  H    0.025543
    19  H    0.030607
    20  H   -0.019773
    21  H   -0.006723
    22  H    0.058875
    23  H   -0.001574
    24  H    0.006438
    25  H    0.376861
 Sum of ESP charges =  -0.00000
 ESP charges with hydrogens summed into heavy atoms:
               1
     1  C   -0.024282
     2  C    0.040934
     3  C    0.267354
     4  N   -0.585622
     5  C    0.317543
     6  C   -0.080405
     7  C    0.002649
     8  C    0.007035
     9  C    0.074682
    10  C   -0.007385
    11  C    0.205913
    12  O   -0.218417
 Charge=  -0.00000 Dipole=    -1.9878     2.2257    -0.4581 Tot=     3.0191
 -----------------------------------------------------------------

              Electrostatic Properties (Atomic Units)

 -----------------------------------------------------------------
    Center     Electric         -------- Electric Field --------
               Potential          X             Y             Z
 -----------------------------------------------------------------
    1 Atom    -14.760606
    2 Atom    -14.751988
    3 Atom    -14.741023
    4 Atom    -18.400307
    5 Atom    -14.739932
    6 Atom    -14.754419
    7 Atom    -14.757177
    8 Atom    -14.760049
    9 Atom    -14.771397
   10 Atom    -14.775119
   11 Atom    -14.721647
   12 Atom    -22.370853
   13 Atom     -1.105490
   14 Atom     -1.105674
   15 Atom     -1.107185
   16 Atom     -1.107180
   17 Atom     -1.093361
   18 Atom     -1.114526
   19 Atom     -1.115534
   20 Atom     -1.127389
   21 Atom     -1.131659
   22 Atom     -1.128110
   23 Atom     -1.124565
   24 Atom     -1.134007
   25 Atom     -1.018771
 -----------------------------------------------------------------
 Unable to Open any file for archive entry.
 1\1\GINC-NOTCH326\SP\RwB97XD\def2TZVP\C10H13N1O1\U6053008\12-Jul-2024\
 0\\#N Guess=Read Geom=Check Integral(Ultrafine) Density Pop=(ChelpG,Re
 adRadii) NMR wB97XD def2TZVP\\12358222_2\\0,1\C,0,-3.88685,0.33988,0.1
 4031\C,0,-2.41294,0.06593,0.01831\C,0,-1.91603,-1.23438,-0.1251\N,0,-0
 .62676,-1.51946,-0.25584\C,0,0.26238,-0.5251,-0.25427\C,0,-0.10565,0.8
 1639,-0.07564\C,0,-1.4679,1.09192,0.05013\C,0,0.93829,1.90637,-0.00365
 \C,0,2.30898,1.35674,0.3847\C,0,2.6794,0.19048,-0.52571\C,0,1.7111,-0.
 97299,-0.36089\O,0,2.06169,-1.68612,0.80516\H,0,-4.26353,0.87725,-0.74
 412\H,0,-4.10514,0.9631,1.02062\H,0,-4.46061,-0.59274,0.23426\H,0,-2.6
 0866,-2.08482,-0.12912\H,0,-1.79516,2.12758,0.19114\H,0,1.00849,2.4007
 9,-0.98971\H,0,0.60813,2.68259,0.7044\H,0,3.06587,2.15316,0.32692\H,0,
 2.28825,1.0014,1.4278\H,0,3.69329,-0.17926,-0.31485\H,0,2.66554,0.5230
 7,-1.57774\H,0,1.78076,-1.63683,-1.24441\H,0,1.35183,-2.32162,0.95524\
 \Version=ES64L-G16RevC.01\State=1-A\HF=-518.9027236\RMSD=2.550e-09\Dip
 ole=-0.7713635,0.8884413,-0.17907\Quadrupole=2.1441455,0.0294328,-2.17
 35783,1.9514898,-2.5846413,-0.0259942\PG=C01 [X(C10H13N1O1)]\\@
 The archive entry for this job was punched.


 The arm of the moral universe is long, but it bends toward justice.
 -- Martin Luther King, Jr.
 Job cpu time:       0 days  0 hours 45 minutes 34.6 seconds.
 Elapsed time:       0 days  0 hours  3 minutes  0.8 seconds.
 File lengths (MBytes):  RWF=    130 Int=      0 D2E=      0 Chk=     20 Scr=      2
 Normal termination of Gaussian 16 at Fri Jul 12 13:23:42 2024.
