 Entering Gaussian System, Link 0=g16
 Input=12358222_5.com
 Output=12358222_5.log
 Initial command:
 /uufs/chpc.utah.edu/sys/installdir/gaussian16/C01/AVX/g16/l1.exe "/scratch/general/vast/u6053008/1287162-notchpeak.peaks/Gau-25518.inp" -scrdir="/scratch/general/vast/u6053008/1287162-notchpeak.peaks/"
 Entering Link 1 = /uufs/chpc.utah.edu/sys/installdir/gaussian16/C01/AVX/g16/l1.exe PID=     25519.
  
 Copyright (c) 1988-2019, Gaussian, Inc.  All Rights Reserved.
  
 This is part of the Gaussian(R) 16 program.  It is based on
 the Gaussian(R) 09 system (copyright 2009, Gaussian, Inc.),
 the Gaussian(R) 03 system (copyright 2003, Gaussian, Inc.),
 the Gaussian(R) 98 system (copyright 1998, Gaussian, Inc.),
 the Gaussian(R) 94 system (copyright 1995, Gaussian, Inc.),
 the Gaussian 92(TM) system (copyright 1992, Gaussian, Inc.),
 the Gaussian 90(TM) system (copyright 1990, Gaussian, Inc.),
 the Gaussian 88(TM) system (copyright 1988, Gaussian, Inc.),
 the Gaussian 86(TM) system (copyright 1986, Carnegie Mellon
 University), and the Gaussian 82(TM) system (copyright 1983,
 Carnegie Mellon University). Gaussian is a federally registered
 trademark of Gaussian, Inc.
  
 This software contains proprietary and confidential information,
 including trade secrets, belonging to Gaussian, Inc.
  
 This software is provided under written license and may be
 used, copied, transmitted, or stored only in accord with that
 written license.
  
 The following legend is applicable only to US Government
 contracts under FAR:
  
                    RESTRICTED RIGHTS LEGEND
  
 Use, reproduction and disclosure by the US Government is
 subject to restrictions as set forth in subparagraphs (a)
 and (c) of the Commercial Computer Software - Restricted
 Rights clause in FAR 52.227-19.
  
 Gaussian, Inc.
 340 Quinnipiac St., Bldg. 40, Wallingford CT 06492
  
  
 ---------------------------------------------------------------
 Warning -- This program may not be used in any manner that
 competes with the business of Gaussian, Inc. or will provide
 assistance to any competitor of Gaussian, Inc.  The licensee
 of this program is prohibited from giving any competitor of
 Gaussian, Inc. access to this program.  By using this program,
 the user acknowledges that Gaussian, Inc. is engaged in the
 business of creating and licensing software in the field of
 computational chemistry and represents and warrants to the
 licensee that it is not a competitor of Gaussian, Inc. and that
 it will not use this program in any manner prohibited above.
 ---------------------------------------------------------------
  

 Cite this work as:
 Gaussian 16, Revision C.01,
 M. J. Frisch, G. W. Trucks, H. B. Schlegel, G. E. Scuseria, 
 M. A. Robb, J. R. Cheeseman, G. Scalmani, V. Barone, 
 G. A. Petersson, H. Nakatsuji, X. Li, M. Caricato, A. V. Marenich, 
 J. Bloino, B. G. Janesko, R. Gomperts, B. Mennucci, H. P. Hratchian, 
 J. V. Ortiz, A. F. Izmaylov, J. L. Sonnenberg, D. Williams-Young, 
 F. Ding, F. Lipparini, F. Egidi, J. Goings, B. Peng, A. Petrone, 
 T. Henderson, D. Ranasinghe, V. G. Zakrzewski, J. Gao, N. Rega, 
 G. Zheng, W. Liang, M. Hada, M. Ehara, K. Toyota, R. Fukuda, 
 J. Hasegawa, M. Ishida, T. Nakajima, Y. Honda, O. Kitao, H. Nakai, 
 T. Vreven, K. Throssell, J. A. Montgomery, Jr., J. E. Peralta, 
 F. Ogliaro, M. J. Bearpark, J. J. Heyd, E. N. Brothers, K. N. Kudin, 
 V. N. Staroverov, T. A. Keith, R. Kobayashi, J. Normand, 
 K. Raghavachari, A. P. Rendell, J. C. Burant, S. S. Iyengar, 
 J. Tomasi, M. Cossi, J. M. Millam, M. Klene, C. Adamo, R. Cammi, 
 J. W. Ochterski, R. L. Martin, K. Morokuma, O. Farkas, 
 J. B. Foresman, and D. J. Fox, Gaussian, Inc., Wallingford CT, 2019.
 
 ******************************************
 Gaussian 16:  ES64L-G16RevC.01  3-Jul-2019
                12-Jul-2024 
 ******************************************
 %NProcShared=16
 Will use up to   16 processors via shared memory.
 %Mem=32GB
 %chk=12358222_5.chk
 ------------------------------------------------------
 #N OPT FREQ=NORAMAN Integral(Ultrafine) wB97XD def2SVP
 ------------------------------------------------------
 1/18=20,19=15,26=4,38=1/1,3;
 2/9=110,12=2,17=6,18=5,40=1/2;
 3/5=43,7=101,11=2,25=1,30=1,71=1,74=-58,75=-5/1,2,3;
 4//1;
 5/5=2,38=5/2;
 6/7=2,8=2,9=2,10=2,28=1/1;
 7//1,2,3,16;
 1/18=20,19=15,26=4/3(2);
 2/9=110/2;
 99//99;
 2/9=110/2;
 3/5=43,7=101,11=2,25=1,30=1,71=1,74=-58,75=-5/1,2,3;
 4/5=5,16=3,69=1/1;
 5/5=2,38=5/2;
 7//1,2,3,16;
 1/18=20,19=15,26=4/3(-5);
 2/9=110/2;
 6/7=2,8=2,9=2,10=2,19=2,28=1/1;
 99/9=1/99;
 ----------
 12358222_5
 ----------
 Symbolic Z-matrix:
 Charge =  0 Multiplicity = 1
 C                     3.90301   0.26024  -0.11076 
 C                     2.42012   0.02768  -0.01641 
 C                     1.88491  -1.24824   0.19431 
 N                     0.58743  -1.50303   0.27502 
 C                    -0.28252  -0.50472   0.13729 
 C                     0.12798   0.82611  -0.05384 
 C                     1.5004    1.06865  -0.12967 
 C                    -0.86406   1.96013  -0.18053 
 C                    -2.23552   1.59538   0.37976 
 C                    -2.67956   0.25195  -0.18389 
 C                    -1.75285  -0.88138   0.25741 
 O                    -1.97905  -2.04735  -0.4919 
 H                     4.46626  -0.64986   0.13916 
 H                     4.227     1.05891   0.57363 
 H                     4.19187   0.56335  -1.12948 
 H                     2.55895  -2.10616   0.31251 
 H                     1.85464   2.09451  -0.27743 
 H                    -0.46172   2.85759   0.31536 
 H                    -0.96808   2.22168  -1.24882 
 H                    -2.18547   1.53926   1.48141 
 H                    -2.96633   2.38163   0.13789 
 H                    -2.66464   0.28173  -1.2868 
 H                    -3.71346   0.01553   0.11601 
 H                    -1.92526  -1.07967   1.33665 
 H                    -2.82492  -2.41318  -0.22217 
 

 GradGradGradGradGradGradGradGradGradGradGradGradGradGradGradGradGradGrad
 Berny optimization.
 Initialization pass.
                           ----------------------------
                           !    Initial Parameters    !
                           ! (Angstroms and Degrees)  !
 --------------------------                            --------------------------
 ! Name  Definition              Value          Derivative Info.                !
 --------------------------------------------------------------------------------
 ! R1    R(1,2)                  1.504          estimate D2E/DX2                !
 ! R2    R(1,13)                 1.0991         estimate D2E/DX2                !
 ! R3    R(1,14)                 1.1006         estimate D2E/DX2                !
 ! R4    R(1,15)                 1.1014         estimate D2E/DX2                !
 ! R5    R(2,3)                  1.3996         estimate D2E/DX2                !
 ! R6    R(2,7)                  1.3937         estimate D2E/DX2                !
 ! R7    R(3,4)                  1.3247         estimate D2E/DX2                !
 ! R8    R(3,16)                 1.0974         estimate D2E/DX2                !
 ! R9    R(4,5)                  1.3313         estimate D2E/DX2                !
 ! R10   R(5,6)                  1.4058         estimate D2E/DX2                !
 ! R11   R(5,11)                 1.5226         estimate D2E/DX2                !
 ! R12   R(6,7)                  1.3957         estimate D2E/DX2                !
 ! R13   R(6,8)                  1.512          estimate D2E/DX2                !
 ! R14   R(7,17)                 1.0953         estimate D2E/DX2                !
 ! R15   R(8,9)                  1.5257         estimate D2E/DX2                !
 ! R16   R(8,18)                 1.1015         estimate D2E/DX2                !
 ! R17   R(8,19)                 1.1047         estimate D2E/DX2                !
 ! R18   R(9,10)                 1.523          estimate D2E/DX2                !
 ! R19   R(9,20)                 1.1042         estimate D2E/DX2                !
 ! R20   R(9,21)                 1.1004         estimate D2E/DX2                !
 ! R21   R(10,11)                1.529          estimate D2E/DX2                !
 ! R22   R(10,22)                1.1034         estimate D2E/DX2                !
 ! R23   R(10,23)                1.1022         estimate D2E/DX2                !
 ! R24   R(11,12)                1.4043         estimate D2E/DX2                !
 ! R25   R(11,24)                1.1108         estimate D2E/DX2                !
 ! R26   R(12,25)                0.9603         estimate D2E/DX2                !
 ! A1    A(2,1,13)             111.2833         estimate D2E/DX2                !
 ! A2    A(2,1,14)             111.3129         estimate D2E/DX2                !
 ! A3    A(2,1,15)             111.0489         estimate D2E/DX2                !
 ! A4    A(13,1,14)            107.9775         estimate D2E/DX2                !
 ! A5    A(13,1,15)            107.6857         estimate D2E/DX2                !
 ! A6    A(14,1,15)            107.3525         estimate D2E/DX2                !
 ! A7    A(1,2,3)              121.8339         estimate D2E/DX2                !
 ! A8    A(1,2,7)              122.0106         estimate D2E/DX2                !
 ! A9    A(3,2,7)              116.1553         estimate D2E/DX2                !
 ! A10   A(2,3,4)              123.9907         estimate D2E/DX2                !
 ! A11   A(2,3,16)             119.6057         estimate D2E/DX2                !
 ! A12   A(4,3,16)             116.4011         estimate D2E/DX2                !
 ! A13   A(3,4,5)              119.3067         estimate D2E/DX2                !
 ! A14   A(4,5,6)              122.2184         estimate D2E/DX2                !
 ! A15   A(4,5,11)             115.9361         estimate D2E/DX2                !
 ! A16   A(6,5,11)             121.798          estimate D2E/DX2                !
 ! A17   A(5,6,7)              117.3244         estimate D2E/DX2                !
 ! A18   A(5,6,8)              121.994          estimate D2E/DX2                !
 ! A19   A(7,6,8)              120.6809         estimate D2E/DX2                !
 ! A20   A(2,7,6)              120.9764         estimate D2E/DX2                !
 ! A21   A(2,7,17)             119.8081         estimate D2E/DX2                !
 ! A22   A(6,7,17)             119.2152         estimate D2E/DX2                !
 ! A23   A(6,8,9)              112.3146         estimate D2E/DX2                !
 ! A24   A(6,8,18)             109.4943         estimate D2E/DX2                !
 ! A25   A(6,8,19)             108.685          estimate D2E/DX2                !
 ! A26   A(9,8,18)             110.9652         estimate D2E/DX2                !
 ! A27   A(9,8,19)             109.091          estimate D2E/DX2                !
 ! A28   A(18,8,19)            106.0719         estimate D2E/DX2                !
 ! A29   A(8,9,10)             109.6963         estimate D2E/DX2                !
 ! A30   A(8,9,20)             109.7417         estimate D2E/DX2                !
 ! A31   A(8,9,21)             110.2099         estimate D2E/DX2                !
 ! A32   A(10,9,20)            109.7311         estimate D2E/DX2                !
 ! A33   A(10,9,21)            110.8115         estimate D2E/DX2                !
 ! A34   A(20,9,21)            106.6019         estimate D2E/DX2                !
 ! A35   A(9,10,11)            111.733          estimate D2E/DX2                !
 ! A36   A(9,10,22)            110.0087         estimate D2E/DX2                !
 ! A37   A(9,10,23)            111.2228         estimate D2E/DX2                !
 ! A38   A(11,10,22)           107.475          estimate D2E/DX2                !
 ! A39   A(11,10,23)           109.33           estimate D2E/DX2                !
 ! A40   A(22,10,23)           106.8848         estimate D2E/DX2                !
 ! A41   A(5,11,10)            112.281          estimate D2E/DX2                !
 ! A42   A(5,11,12)            108.5935         estimate D2E/DX2                !
 ! A43   A(5,11,24)            105.7065         estimate D2E/DX2                !
 ! A44   A(10,11,12)           111.3326         estimate D2E/DX2                !
 ! A45   A(10,11,24)           108.5822         estimate D2E/DX2                !
 ! A46   A(12,11,24)           110.1947         estimate D2E/DX2                !
 ! A47   A(11,12,25)           107.9581         estimate D2E/DX2                !
 ! D1    D(13,1,2,3)            -7.6413         estimate D2E/DX2                !
 ! D2    D(13,1,2,7)           172.1725         estimate D2E/DX2                !
 ! D3    D(14,1,2,3)          -128.1408         estimate D2E/DX2                !
 ! D4    D(14,1,2,7)            51.673          estimate D2E/DX2                !
 ! D5    D(15,1,2,3)           112.3095         estimate D2E/DX2                !
 ! D6    D(15,1,2,7)           -67.8767         estimate D2E/DX2                !
 ! D7    D(1,2,3,4)           -179.5129         estimate D2E/DX2                !
 ! D8    D(1,2,3,16)             1.0841         estimate D2E/DX2                !
 ! D9    D(7,2,3,4)              0.663          estimate D2E/DX2                !
 ! D10   D(7,2,3,16)          -178.74           estimate D2E/DX2                !
 ! D11   D(1,2,7,6)            179.2686         estimate D2E/DX2                !
 ! D12   D(1,2,7,17)            -0.9187         estimate D2E/DX2                !
 ! D13   D(3,2,7,6)             -0.9076         estimate D2E/DX2                !
 ! D14   D(3,2,7,17)           178.9051         estimate D2E/DX2                !
 ! D15   D(2,3,4,5)              0.7156         estimate D2E/DX2                !
 ! D16   D(16,3,4,5)          -179.8639         estimate D2E/DX2                !
 ! D17   D(3,4,5,6)             -1.8799         estimate D2E/DX2                !
 ! D18   D(3,4,5,11)          -179.4126         estimate D2E/DX2                !
 ! D19   D(4,5,6,7)              1.5912         estimate D2E/DX2                !
 ! D20   D(4,5,6,8)           -178.6841         estimate D2E/DX2                !
 ! D21   D(11,5,6,7)           178.9805         estimate D2E/DX2                !
 ! D22   D(11,5,6,8)            -1.2948         estimate D2E/DX2                !
 ! D23   D(4,5,11,10)         -168.6522         estimate D2E/DX2                !
 ! D24   D(4,5,11,12)          -45.1048         estimate D2E/DX2                !
 ! D25   D(4,5,11,24)           73.1213         estimate D2E/DX2                !
 ! D26   D(6,5,11,10)           13.8038         estimate D2E/DX2                !
 ! D27   D(6,5,11,12)          137.3512         estimate D2E/DX2                !
 ! D28   D(6,5,11,24)         -104.4227         estimate D2E/DX2                !
 ! D29   D(5,6,7,2)             -0.1407         estimate D2E/DX2                !
 ! D30   D(5,6,7,17)          -179.9545         estimate D2E/DX2                !
 ! D31   D(8,6,7,2)           -179.8692         estimate D2E/DX2                !
 ! D32   D(8,6,7,17)             0.317          estimate D2E/DX2                !
 ! D33   D(5,6,8,9)             19.4293         estimate D2E/DX2                !
 ! D34   D(5,6,8,18)           143.1799         estimate D2E/DX2                !
 ! D35   D(5,6,8,19)          -101.369          estimate D2E/DX2                !
 ! D36   D(7,6,8,9)           -160.8551         estimate D2E/DX2                !
 ! D37   D(7,6,8,18)           -37.1045         estimate D2E/DX2                !
 ! D38   D(7,6,8,19)            78.3466         estimate D2E/DX2                !
 ! D39   D(6,8,9,10)           -49.3641         estimate D2E/DX2                !
 ! D40   D(6,8,9,20)            71.263          estimate D2E/DX2                !
 ! D41   D(6,8,9,21)          -171.6342         estimate D2E/DX2                !
 ! D42   D(18,8,9,10)         -172.2907         estimate D2E/DX2                !
 ! D43   D(18,8,9,20)          -51.6636         estimate D2E/DX2                !
 ! D44   D(18,8,9,21)           65.4392         estimate D2E/DX2                !
 ! D45   D(19,8,9,10)           71.2001         estimate D2E/DX2                !
 ! D46   D(19,8,9,20)         -168.1729         estimate D2E/DX2                !
 ! D47   D(19,8,9,21)          -51.0701         estimate D2E/DX2                !
 ! D48   D(8,9,10,11)           63.7798         estimate D2E/DX2                !
 ! D49   D(8,9,10,22)          -55.5073         estimate D2E/DX2                !
 ! D50   D(8,9,10,23)         -173.7367         estimate D2E/DX2                !
 ! D51   D(20,9,10,11)         -56.8537         estimate D2E/DX2                !
 ! D52   D(20,9,10,22)        -176.1408         estimate D2E/DX2                !
 ! D53   D(20,9,10,23)          65.6298         estimate D2E/DX2                !
 ! D54   D(21,9,10,11)        -174.3089         estimate D2E/DX2                !
 ! D55   D(21,9,10,22)          66.404          estimate D2E/DX2                !
 ! D56   D(21,9,10,23)         -51.8254         estimate D2E/DX2                !
 ! D57   D(9,10,11,5)          -44.7022         estimate D2E/DX2                !
 ! D58   D(9,10,11,12)        -166.704          estimate D2E/DX2                !
 ! D59   D(9,10,11,24)          71.8105         estimate D2E/DX2                !
 ! D60   D(22,10,11,5)          76.0723         estimate D2E/DX2                !
 ! D61   D(22,10,11,12)        -45.9296         estimate D2E/DX2                !
 ! D62   D(22,10,11,24)       -167.4151         estimate D2E/DX2                !
 ! D63   D(23,10,11,5)        -168.2617         estimate D2E/DX2                !
 ! D64   D(23,10,11,12)         69.7365         estimate D2E/DX2                !
 ! D65   D(23,10,11,24)        -51.749          estimate D2E/DX2                !
 ! D66   D(5,11,12,25)         164.4837         estimate D2E/DX2                !
 ! D67   D(10,11,12,25)        -71.4026         estimate D2E/DX2                !
 ! D68   D(24,11,12,25)         49.1388         estimate D2E/DX2                !
 --------------------------------------------------------------------------------
 Trust Radius=3.00D-01 FncErr=1.00D-07 GrdErr=1.00D-06 EigMax=2.50D+02 EigMin=1.00D-04
 Number of steps in this run=    150 maximum allowed number of steps=    150.
 GradGradGradGradGradGradGradGradGradGradGradGradGradGradGradGradGradGrad

                          Input orientation:                          
 ---------------------------------------------------------------------
 Center     Atomic      Atomic             Coordinates (Angstroms)
 Number     Number       Type             X           Y           Z
 ---------------------------------------------------------------------
      1          6           0        3.903010    0.260240   -0.110760
      2          6           0        2.420120    0.027680   -0.016410
      3          6           0        1.884910   -1.248240    0.194310
      4          7           0        0.587430   -1.503030    0.275020
      5          6           0       -0.282520   -0.504720    0.137290
      6          6           0        0.127980    0.826110   -0.053840
      7          6           0        1.500400    1.068650   -0.129670
      8          6           0       -0.864060    1.960130   -0.180530
      9          6           0       -2.235520    1.595380    0.379760
     10          6           0       -2.679560    0.251950   -0.183890
     11          6           0       -1.752850   -0.881380    0.257410
     12          8           0       -1.979050   -2.047350   -0.491900
     13          1           0        4.466260   -0.649860    0.139160
     14          1           0        4.227000    1.058910    0.573630
     15          1           0        4.191870    0.563350   -1.129480
     16          1           0        2.558950   -2.106160    0.312510
     17          1           0        1.854640    2.094510   -0.277430
     18          1           0       -0.461720    2.857590    0.315360
     19          1           0       -0.968080    2.221680   -1.248820
     20          1           0       -2.185470    1.539260    1.481410
     21          1           0       -2.966330    2.381630    0.137890
     22          1           0       -2.664640    0.281730   -1.286800
     23          1           0       -3.713460    0.015530    0.116010
     24          1           0       -1.925260   -1.079670    1.336650
     25          1           0       -2.824920   -2.413180   -0.222170
 ---------------------------------------------------------------------
                    Distance matrix (angstroms):
                    1          2          3          4          5
     1  C    0.000000
     2  C    1.503978   0.000000
     3  C    2.537973   1.399580   0.000000
     4  N    3.775052   2.405568   1.324721   0.000000
     5  C    4.262083   2.758865   2.292123   1.331317   0.000000
     6  C    3.817630   2.427508   2.729709   2.396693   1.405756
     7  C    2.535038   1.393675   2.370821   2.758773   2.392815
     8  C    5.061566   3.814071   4.241577   3.782569   2.552388
     9  C    6.301171   4.928450   5.009841   4.192870   2.878093
    10  C    6.582981   5.107356   4.819543   3.736814   2.534069
    11  C    5.781660   4.279608   3.656756   2.421501   1.522554
    12  O    6.329998   4.887181   4.004953   2.733362   2.377772
    13  H    1.099087   2.161007   2.650371   3.973875   4.750998
    14  H    1.100560   2.162498   3.309412   4.460849   4.792818
    15  H    1.101411   2.159853   3.218127   4.385719   4.771336
    16  H    2.754179   2.163501   1.097419   2.062053   3.266384
    17  H    2.754659   2.158630   3.376008   3.854000   3.390493
    18  H    5.096928   4.052587   4.730662   4.485237   3.371787
    19  H    5.373076   4.220470   4.718318   4.314529   3.134414
    20  H    6.421876   5.073440   5.098507   4.289508   3.099311
    21  H    7.193744   5.880368   6.059181   5.266745   3.941301
    22  H    6.672148   5.247210   5.023236   4.024998   2.884620
    23  H    7.623774   6.135021   5.739773   4.563876   3.470225
    24  H    6.152974   4.683943   3.981300   2.760417   2.113676
    25  H    7.240485   5.788832   4.869604   3.566469   3.199254
                    6          7          8          9         10
     6  C    0.000000
     7  C    1.395748   0.000000
     8  C    1.512017   2.527448   0.000000
     9  C    2.523077   3.807107   1.525736   0.000000
    10  C    2.868598   4.259343   2.492776   1.523049   0.000000
    11  C    2.559281   3.812622   3.009305   2.526317   1.529043
    12  O    3.590020   4.684788   4.171337   3.754337   2.423296
    13  H    4.586547   3.438295   5.943615   7.071976   7.209741
    14  H    4.153297   2.815861   5.224926   6.487646   6.994683
    15  H    4.212036   2.915297   5.330472   6.682382   6.943174
    16  H    3.826491   3.375718   5.338052   6.057463   5.766202
    17  H    2.154109   1.095312   2.723743   4.172582   4.895176
    18  H    2.147316   2.692262   1.101462   2.178001   3.457951
    19  H    2.139378   2.945398   1.104750   2.156601   2.818346
    20  H    2.866640   4.050023   2.164555   1.104213   2.162063
    21  H    3.468596   4.663387   2.167624   1.100351   2.172859
    22  H    3.100849   4.393831   2.698694   2.165004   1.103413
    23  H    3.929701   5.324825   3.462439   2.179403   1.102172
    24  H    3.127500   4.301223   3.559265   2.857935   2.157365
    25  H    4.386451   5.553385   4.792968   4.096128   2.669366
                   11         12         13         14         15
    11  C    0.000000
    12  O    1.404321   0.000000
    13  H    6.224541   6.625197   0.000000
    14  H    6.294706   7.021343   1.779299   0.000000
    15  H    6.272990   6.730714   1.776687   1.774091   0.000000
    16  H    4.482716   4.609119   2.405970   3.587233   3.445584
    17  H    4.707012   5.647847   3.811256   2.724860   2.921144
    18  H    3.956042   5.197345   6.051301   5.028523   5.385815
    19  H    3.537453   4.451922   6.301133   5.626919   5.421198
    20  H    2.746786   4.098821   7.130175   6.494195   6.959857
    21  H    3.483397   4.581181   8.027037   7.326899   7.493477
    22  H    2.137468   2.554704   7.331504   7.180523   6.864094
    23  H    2.160656   2.762826   8.206772   8.021781   8.021571
    24  H    1.110767   2.069515   6.516920   6.557898   6.797102
    25  H    1.930218   0.960251   7.510071   7.900524   7.675825
                   16         17         18         19         20
    16  H    0.000000
    17  H    4.299966   0.000000
    18  H    5.810617   2.509824   0.000000
    19  H    5.797231   2.987895   1.762794   0.000000
    20  H    6.096305   4.441206   2.463530   3.066250   0.000000
    21  H    7.120356   4.847337   2.555603   2.437530   1.767590
    22  H    5.962022   4.972815   3.748977   2.577434   3.077982
    23  H    6.624448   5.956567   4.323293   3.777164   2.553590
    24  H    4.712821   5.193103   4.322846   4.301135   2.635803
    25  H    5.419059   6.497738   5.801264   5.097430   4.351191
                   21         22         23         24         25
    21  H    0.000000
    22  H    2.555453   0.000000
    23  H    2.481353   1.771655   0.000000
    24  H    3.808077   3.046733   2.426331   0.000000
    25  H    4.810389   2.902011   2.608161   2.239990   0.000000
 Stoichiometry    C10H13NO
 Framework group  C1[X(C10H13NO)]
 Deg. of freedom    69
 Full point group                 C1      NOp   1
 Largest Abelian subgroup         C1      NOp   1
 Largest concise Abelian subgroup C1      NOp   1
                         Standard orientation:                         
 ---------------------------------------------------------------------
 Center     Atomic      Atomic             Coordinates (Angstroms)
 Number     Number       Type             X           Y           Z
 ---------------------------------------------------------------------
      1          6           0       -3.903011    0.260239    0.110759
      2          6           0       -2.420121    0.027679    0.016409
      3          6           0       -1.884911   -1.248241   -0.194311
      4          7           0       -0.587431   -1.503031   -0.275021
      5          6           0        0.282519   -0.504721   -0.137291
      6          6           0       -0.127981    0.826109    0.053839
      7          6           0       -1.500401    1.068649    0.129669
      8          6           0        0.864059    1.960129    0.180529
      9          6           0        2.235519    1.595378   -0.379761
     10          6           0        2.679559    0.251948    0.183889
     11          6           0        1.752849   -0.881381   -0.257411
     12          8           0        1.979049   -2.047352    0.491899
     13          1           0       -4.466261   -0.649861   -0.139161
     14          1           0       -4.227001    1.058909   -0.573631
     15          1           0       -4.191871    0.563349    1.129479
     16          1           0       -2.558951   -2.106161   -0.312511
     17          1           0       -1.854641    2.094509    0.277429
     18          1           0        0.461719    2.857589   -0.315361
     19          1           0        0.968079    2.221679    1.248819
     20          1           0        2.185469    1.539258   -1.481411
     21          1           0        2.966329    2.381628   -0.137891
     22          1           0        2.664639    0.281728    1.286799
     23          1           0        3.713459    0.015528   -0.116011
     24          1           0        1.925259   -1.079671   -1.336651
     25          1           0        2.824919   -2.413182    0.222169
 ---------------------------------------------------------------------
 Rotational constants (GHZ):           1.7588631           0.7063649           0.5233201
 Standard basis: def2SVP (5D, 7F)
 There are   245 symmetry adapted cartesian basis functions of A   symmetry.
 There are   233 symmetry adapted basis functions of A   symmetry.
   233 basis functions,   391 primitive gaussians,   245 cartesian basis functions
    44 alpha electrons       44 beta electrons
       nuclear repulsion energy       698.2795079890 Hartrees.
 NAtoms=   25 NActive=   25 NUniq=   25 SFac= 1.00D+00 NAtFMM=   60 NAOKFM=F Big=F
 Integral buffers will be    131072 words long.
 Raffenetti 2 integral format.
 Two-electron integral symmetry is turned on.
 Nuclear repulsion after empirical dispersion term =      698.2632034860 Hartrees.
 One-electron integrals computed using PRISM.
   1 Symmetry operations used in ECPInt.
 ECPInt:  NShTT=    6216 NPrTT=   22140 LenC2=    6034 LenP2D=   16398.
 LDataN:  DoStor=T MaxTD1= 4 Len=   56
 NBasis=   233 RedAO= T EigKep=  5.61D-04  NBF=   233
 NBsUse=   233 1.00D-06 EigRej= -1.00D+00 NBFU=   233
 ExpMin= 1.22D-01 ExpMax= 2.27D+03 ExpMxC= 3.41D+02 IAcc=3 IRadAn=         5 AccDes= 0.00D+00
 Harris functional with IExCor= 4639 and IRadAn=       5 diagonalized for initial guess.
 HarFok:  IExCor= 4639 AccDes= 0.00D+00 IRadAn=         5 IDoV= 1 UseB2=F ITyADJ=14
 ICtDFT=  3500011 ScaDFX=  1.000000  1.000000  1.000000  1.000000
 FoFCou: FMM=F IPFlag=           0 FMFlag=      100000 FMFlg1=           0
         NFxFlg=           0 DoJE=T BraDBF=F KetDBF=T FulRan=T
         wScrn=  0.000000 ICntrl=       500 IOpCl=  0 I1Cent=   200000004 NGrid=           0
         NMat0=    1 NMatS0=      1 NMatT0=    0 NMatD0=    1 NMtDS0=    0 NMtDT0=    0
 Petite list used in FoFCou.
 Requested convergence on RMS density matrix=1.00D-08 within 128 cycles.
 Requested convergence on MAX density matrix=1.00D-06.
 Requested convergence on             energy=1.00D-06.
 No special actions if energy rises.
 Integral accuracy reduced to 1.0D-05 until final iterations.
 Initial convergence to 1.0D-05 achieved.  Increase integral accuracy.
 SCF Done:  E(RwB97XD) =  -518.338233187     A.U. after   14 cycles
            NFock= 14  Conv=0.62D-08     -V/T= 2.0108

 **********************************************************************

            Population analysis using the SCF Density.

 **********************************************************************

 Orbital symmetries:
       Occupied  (A) (A) (A) (A) (A) (A) (A) (A) (A) (A) (A) (A)
                 (A) (A) (A) (A) (A) (A) (A) (A) (A) (A) (A) (A)
                 (A) (A) (A) (A) (A) (A) (A) (A) (A) (A) (A) (A)
                 (A) (A) (A) (A) (A) (A) (A) (A)
       Virtual   (A) (A) (A) (A) (A) (A) (A) (A) (A) (A) (A) (A)
                 (A) (A) (A) (A) (A) (A) (A) (A) (A) (A) (A) (A)
                 (A) (A) (A) (A) (A) (A) (A) (A) (A) (A) (A) (A)
                 (A) (A) (A) (A) (A) (A) (A) (A) (A) (A) (A) (A)
                 (A) (A) (A) (A) (A) (A) (A) (A) (A) (A) (A) (A)
                 (A) (A) (A) (A) (A) (A) (A) (A) (A) (A) (A) (A)
                 (A) (A) (A) (A) (A) (A) (A) (A) (A) (A) (A) (A)
                 (A) (A) (A) (A) (A) (A) (A) (A) (A) (A) (A) (A)
                 (A) (A) (A) (A) (A) (A) (A) (A) (A) (A) (A) (A)
                 (A) (A) (A) (A) (A) (A) (A) (A) (A) (A) (A) (A)
                 (A) (A) (A) (A) (A) (A) (A) (A) (A) (A) (A) (A)
                 (A) (A) (A) (A) (A) (A) (A) (A) (A) (A) (A) (A)
                 (A) (A) (A) (A) (A) (A) (A) (A) (A) (A) (A) (A)
                 (A) (A) (A) (A) (A) (A) (A) (A) (A) (A) (A) (A)
                 (A) (A) (A) (A) (A) (A) (A) (A) (A) (A) (A) (A)
                 (A) (A) (A) (A) (A) (A) (A) (A) (A)
 The electronic state is 1-A.
 Alpha  occ. eigenvalues --  -19.24284 -14.42567 -10.34217 -10.32572 -10.32161
 Alpha  occ. eigenvalues --  -10.30909 -10.30892 -10.30822 -10.30541 -10.30193
 Alpha  occ. eigenvalues --  -10.30117 -10.29283  -1.10852  -1.03024  -0.92619
 Alpha  occ. eigenvalues --   -0.90294  -0.85259  -0.82343  -0.78399  -0.72964
 Alpha  occ. eigenvalues --   -0.70288  -0.69592  -0.64308  -0.60680  -0.59531
 Alpha  occ. eigenvalues --   -0.58109  -0.54432  -0.52402  -0.51989  -0.51443
 Alpha  occ. eigenvalues --   -0.49744  -0.48827  -0.47705  -0.47239  -0.46900
 Alpha  occ. eigenvalues --   -0.45420  -0.44305  -0.42164  -0.41870  -0.39195
 Alpha  occ. eigenvalues --   -0.35336  -0.34721  -0.32133  -0.31204
 Alpha virt. eigenvalues --    0.04513   0.06221   0.13429   0.14699   0.15118
 Alpha virt. eigenvalues --    0.16912   0.17364   0.18873   0.19302   0.20658
 Alpha virt. eigenvalues --    0.21658   0.21957   0.23039   0.23632   0.24063
 Alpha virt. eigenvalues --    0.26198   0.27859   0.29505   0.30607   0.31904
 Alpha virt. eigenvalues --    0.32944   0.33873   0.34677   0.36655   0.38748
 Alpha virt. eigenvalues --    0.41448   0.43518   0.44104   0.47435   0.48841
 Alpha virt. eigenvalues --    0.49056   0.51042   0.52304   0.53225   0.56566
 Alpha virt. eigenvalues --    0.57562   0.57712   0.58463   0.60905   0.61877
 Alpha virt. eigenvalues --    0.64226   0.64475   0.66307   0.67158   0.68687
 Alpha virt. eigenvalues --    0.70465   0.71035   0.72048   0.72221   0.73070
 Alpha virt. eigenvalues --    0.73442   0.74201   0.74667   0.74852   0.75312
 Alpha virt. eigenvalues --    0.76340   0.76871   0.77002   0.77362   0.78205
 Alpha virt. eigenvalues --    0.78787   0.79382   0.80879   0.81271   0.82369
 Alpha virt. eigenvalues --    0.82527   0.84955   0.86236   0.87107   0.88899
 Alpha virt. eigenvalues --    0.91618   0.95447   0.97207   1.00751   1.03158
 Alpha virt. eigenvalues --    1.07682   1.09647   1.10326   1.13180   1.15722
 Alpha virt. eigenvalues --    1.18768   1.20390   1.22937   1.25562   1.28883
 Alpha virt. eigenvalues --    1.30525   1.34044   1.35232   1.36296   1.38239
 Alpha virt. eigenvalues --    1.41393   1.42882   1.43386   1.44583   1.51047
 Alpha virt. eigenvalues --    1.51937   1.52685   1.55642   1.57056   1.61791
 Alpha virt. eigenvalues --    1.62712   1.64428   1.65273   1.67921   1.70878
 Alpha virt. eigenvalues --    1.72762   1.75228   1.77414   1.78761   1.81574
 Alpha virt. eigenvalues --    1.82645   1.83594   1.85344   1.86317   1.86660
 Alpha virt. eigenvalues --    1.87677   1.88612   1.89768   1.89885   1.91312
 Alpha virt. eigenvalues --    1.92309   1.92917   1.93848   1.94684   1.96940
 Alpha virt. eigenvalues --    1.98475   1.99887   2.01727   2.03621   2.05033
 Alpha virt. eigenvalues --    2.05434   2.06540   2.07929   2.10547   2.13186
 Alpha virt. eigenvalues --    2.14215   2.17031   2.20724   2.23182   2.23668
 Alpha virt. eigenvalues --    2.26872   2.28818   2.32079   2.32326   2.34248
 Alpha virt. eigenvalues --    2.35534   2.36347   2.39227   2.41203   2.43904
 Alpha virt. eigenvalues --    2.47052   2.48570   2.50558   2.51144   2.54468
 Alpha virt. eigenvalues --    2.55987   2.58251   2.59663   2.63887   2.64406
 Alpha virt. eigenvalues --    2.66045   2.69128   2.70587   2.74603   2.76576
 Alpha virt. eigenvalues --    2.80367   2.82038   2.86515   2.88892   2.92736
 Alpha virt. eigenvalues --    2.95721   2.98764   3.00329   3.00609   3.02159
 Alpha virt. eigenvalues --    3.05689   3.07993   3.09301   3.11695   3.12769
 Alpha virt. eigenvalues --    3.14884   3.18287   3.20113   3.21571   3.27530
 Alpha virt. eigenvalues --    3.47152   3.48390   3.67982   3.88540
          Condensed to atoms (all electrons):
               1          2          3          4          5          6
     1  C    4.560036   0.381290  -0.052164   0.005513   0.000759   0.010020
     2  C    0.381290   5.155803   0.439144  -0.039987  -0.067828   0.017077
     3  C   -0.052164   0.439144   4.765215   0.559563  -0.064249  -0.074153
     4  N    0.005513  -0.039987   0.559563   6.263223   0.524970  -0.064901
     5  C    0.000759  -0.067828  -0.064249   0.524970   5.383668   0.417027
     6  C    0.010020   0.017077  -0.074153  -0.064901   0.417027   5.203672
     7  C   -0.080692   0.429128  -0.021143  -0.043893  -0.034983   0.463739
     8  C   -0.000071   0.011414   0.000390   0.006323  -0.053546   0.313339
     9  C    0.000002  -0.000642   0.000022  -0.000789  -0.006429  -0.045012
    10  C   -0.000003  -0.000429   0.000049   0.008500  -0.034717  -0.030584
    11  C    0.000064   0.001640   0.005122  -0.069244   0.120636  -0.068495
    12  O   -0.000000  -0.000076   0.000070  -0.000485  -0.080231   0.003042
    13  H    0.390528  -0.020206  -0.006827   0.000238   0.000034  -0.000476
    14  H    0.389542  -0.016923   0.002422  -0.000170   0.000035   0.000449
    15  H    0.387641  -0.013755  -0.000274  -0.000140   0.000014   0.000270
    16  H   -0.006840  -0.074893   0.425204  -0.036137   0.005410   0.001887
    17  H   -0.011022  -0.068147   0.009778  -0.000272   0.014271  -0.052590
    18  H   -0.000023   0.000523  -0.000040  -0.000130   0.007056  -0.016626
    19  H    0.000004  -0.000261   0.000062  -0.000194  -0.004680  -0.004479
    20  H   -0.000000  -0.000016  -0.000016  -0.000249  -0.007448  -0.001035
    21  H   -0.000000   0.000008  -0.000000   0.000022   0.001266   0.006997
    22  H   -0.000000  -0.000009  -0.000020  -0.000635  -0.015806   0.000291
    23  H    0.000000   0.000004   0.000006  -0.000179   0.009454   0.001011
    24  H   -0.000004   0.000117  -0.000037  -0.006659  -0.013380   0.005764
    25  H    0.000000   0.000005   0.000047   0.000539   0.012450  -0.000643
               7          8          9         10         11         12
     1  C   -0.080692  -0.000071   0.000002  -0.000003   0.000064  -0.000000
     2  C    0.429128   0.011414  -0.000642  -0.000429   0.001640  -0.000076
     3  C   -0.021143   0.000390   0.000022   0.000049   0.005122   0.000070
     4  N   -0.043893   0.006323  -0.000789   0.008500  -0.069244  -0.000485
     5  C   -0.034983  -0.053546  -0.006429  -0.034717   0.120636  -0.080231
     6  C    0.463739   0.313339  -0.045012  -0.030584  -0.068495   0.003042
     7  C    4.921026  -0.063027   0.009253   0.002102   0.005055   0.000035
     8  C   -0.063027   4.723671   0.420483  -0.064288  -0.022467  -0.000081
     9  C    0.009253   0.420483   4.717300   0.311958  -0.050482   0.007094
    10  C    0.002102  -0.064288   0.311958   4.910549   0.390953  -0.061680
    11  C    0.005055  -0.022467  -0.050482   0.390953   4.805559   0.378173
    12  O    0.000035  -0.000081   0.007094  -0.061680   0.378173   7.727347
    13  H    0.008577   0.000009  -0.000000   0.000000   0.000000   0.000000
    14  H   -0.006449  -0.000022   0.000001  -0.000000  -0.000000   0.000000
    15  H   -0.005734   0.000010  -0.000001   0.000000  -0.000003  -0.000000
    16  H    0.005751   0.000070  -0.000002   0.000002  -0.000264   0.000013
    17  H    0.435291  -0.015468   0.000492   0.000110  -0.000495   0.000001
    18  H   -0.009536   0.368169  -0.022364   0.008346   0.000195   0.000000
    19  H   -0.004721   0.356492  -0.013827  -0.005961   0.000190  -0.000011
    20  H    0.000035  -0.028167   0.389812  -0.037981   0.002026   0.000022
    21  H   -0.000337  -0.015394   0.356446  -0.001992   0.005679  -0.000157
    22  H   -0.000440  -0.000474  -0.022300   0.347648  -0.006395   0.009806
    23  H    0.000010   0.007898  -0.006070   0.349488  -0.016046   0.001484
    24  H   -0.000536  -0.000398   0.003719  -0.059088   0.368309  -0.023260
    25  H    0.000006   0.000063   0.000109   0.005087  -0.036159   0.326228
              13         14         15         16         17         18
     1  C    0.390528   0.389542   0.387641  -0.006840  -0.011022  -0.000023
     2  C   -0.020206  -0.016923  -0.013755  -0.074893  -0.068147   0.000523
     3  C   -0.006827   0.002422  -0.000274   0.425204   0.009778  -0.000040
     4  N    0.000238  -0.000170  -0.000140  -0.036137  -0.000272  -0.000130
     5  C    0.000034   0.000035   0.000014   0.005410   0.014271   0.007056
     6  C   -0.000476   0.000449   0.000270   0.001887  -0.052590  -0.016626
     7  C    0.008577  -0.006449  -0.005734   0.005751   0.435291  -0.009536
     8  C    0.000009  -0.000022   0.000010   0.000070  -0.015468   0.368169
     9  C   -0.000000   0.000001  -0.000001  -0.000002   0.000492  -0.022364
    10  C    0.000000  -0.000000   0.000000   0.000002   0.000110   0.008346
    11  C    0.000000  -0.000000  -0.000003  -0.000264  -0.000495   0.000195
    12  O    0.000000   0.000000  -0.000000   0.000013   0.000001   0.000000
    13  H    0.623223  -0.020841  -0.019185   0.006354  -0.000012  -0.000000
    14  H   -0.020841   0.620433  -0.020224  -0.000014   0.002751  -0.000009
    15  H   -0.019185  -0.020224   0.613586   0.000099   0.001540   0.000005
    16  H    0.006354  -0.000014   0.000099   0.657539  -0.000310  -0.000003
    17  H   -0.000012   0.002751   0.001540  -0.000310   0.679506   0.005216
    18  H   -0.000000  -0.000009   0.000005  -0.000003   0.005216   0.659686
    19  H   -0.000000   0.000004  -0.000006  -0.000002   0.001262  -0.022093
    20  H   -0.000000   0.000000   0.000000  -0.000000  -0.000001  -0.008582
    21  H    0.000000   0.000000  -0.000000   0.000000  -0.000006  -0.002540
    22  H    0.000000  -0.000000   0.000000   0.000000  -0.000001   0.000239
    23  H   -0.000000  -0.000000  -0.000000  -0.000000  -0.000002  -0.000398
    24  H   -0.000000  -0.000000   0.000000  -0.000016   0.000015   0.000161
    25  H   -0.000000  -0.000000   0.000000  -0.000003  -0.000000  -0.000001
              19         20         21         22         23         24
     1  C    0.000004  -0.000000  -0.000000  -0.000000   0.000000  -0.000004
     2  C   -0.000261  -0.000016   0.000008  -0.000009   0.000004   0.000117
     3  C    0.000062  -0.000016  -0.000000  -0.000020   0.000006  -0.000037
     4  N   -0.000194  -0.000249   0.000022  -0.000635  -0.000179  -0.006659
     5  C   -0.004680  -0.007448   0.001266  -0.015806   0.009454  -0.013380
     6  C   -0.004479  -0.001035   0.006997   0.000291   0.001011   0.005764
     7  C   -0.004721   0.000035  -0.000337  -0.000440   0.000010  -0.000536
     8  C    0.356492  -0.028167  -0.015394  -0.000474   0.007898  -0.000398
     9  C   -0.013827   0.389812   0.356446  -0.022300  -0.006070   0.003719
    10  C   -0.005961  -0.037981  -0.001992   0.347648   0.349488  -0.059088
    11  C    0.000190   0.002026   0.005679  -0.006395  -0.016046   0.368309
    12  O   -0.000011   0.000022  -0.000157   0.009806   0.001484  -0.023260
    13  H   -0.000000  -0.000000   0.000000   0.000000  -0.000000  -0.000000
    14  H    0.000004   0.000000   0.000000  -0.000000  -0.000000  -0.000000
    15  H   -0.000006   0.000000  -0.000000   0.000000  -0.000000   0.000000
    16  H   -0.000002  -0.000000   0.000000   0.000000  -0.000000  -0.000016
    17  H    0.001262  -0.000001  -0.000006  -0.000001  -0.000002   0.000015
    18  H   -0.022093  -0.008582  -0.002540   0.000239  -0.000398   0.000161
    19  H    0.650136   0.007597  -0.008652   0.004076  -0.000064  -0.000117
    20  H    0.007597   0.670346  -0.026759   0.008400  -0.005769   0.004821
    21  H   -0.008652  -0.026759   0.669877  -0.007244  -0.008173  -0.000486
    22  H    0.004076   0.008400  -0.007244   0.669804  -0.027752   0.010423
    23  H   -0.000064  -0.005769  -0.008173  -0.027752   0.685298  -0.010655
    24  H   -0.000117   0.004821  -0.000486   0.010423  -0.010655   0.708586
    25  H   -0.000001  -0.000001  -0.000013  -0.001799   0.003620  -0.009491
              25
     1  C    0.000000
     2  C    0.000005
     3  C    0.000047
     4  N    0.000539
     5  C    0.012450
     6  C   -0.000643
     7  C    0.000006
     8  C    0.000063
     9  C    0.000109
    10  C    0.005087
    11  C   -0.036159
    12  O    0.326228
    13  H   -0.000000
    14  H   -0.000000
    15  H    0.000000
    16  H   -0.000003
    17  H   -0.000000
    18  H   -0.000001
    19  H   -0.000001
    20  H   -0.000001
    21  H   -0.000013
    22  H   -0.001799
    23  H    0.003620
    24  H   -0.009491
    25  H    0.530530
 Mulliken charges:
               1
     1  C    0.025419
     2  C   -0.132980
     3  C    0.011829
     4  N   -0.104828
     5  C   -0.113754
     6  C   -0.085592
     7  C   -0.008516
     8  C    0.055072
     9  C   -0.048775
    10  C   -0.038071
    11  C    0.186450
    12  O   -0.287336
    13  H    0.038586
    14  H    0.049016
    15  H    0.056157
    16  H    0.016155
    17  H   -0.001906
    18  H    0.032749
    19  H    0.045246
    20  H    0.032965
    21  H    0.031456
    22  H    0.032188
    23  H    0.016833
    24  H    0.022211
    25  H    0.169428
 Sum of Mulliken charges =  -0.00000
 Mulliken charges with hydrogens summed into heavy atoms:
               1
     1  C    0.169178
     2  C   -0.132980
     3  C    0.027984
     4  N   -0.104828
     5  C   -0.113754
     6  C   -0.085592
     7  C   -0.010423
     8  C    0.133066
     9  C    0.015646
    10  C    0.010949
    11  C    0.208661
    12  O   -0.117908
 Electronic spatial extent (au):  <R**2>=           2194.1099
 Charge=             -0.0000 electrons
 Dipole moment (field-independent basis, Debye):
    X=              0.4395    Y=              2.5810    Z=             -0.5874  Tot=              2.6833
 Quadrupole moment (field-independent basis, Debye-Ang):
   XX=            -57.6822   YY=            -72.5323   ZZ=            -73.3605
   XY=             -2.4892   XZ=             -2.1953   YZ=              2.1269
 Traceless Quadrupole moment (field-independent basis, Debye-Ang):
   XX=             10.1761   YY=             -4.6740   ZZ=             -5.5022
   XY=             -2.4892   XZ=             -2.1953   YZ=              2.1269
 Octapole moment (field-independent basis, Debye-Ang**2):
  XXX=             13.1791  YYY=              0.6650  ZZZ=              1.9869  XYY=              7.8113
  XXY=            -20.3837  XXZ=             -2.0218  XZZ=              4.4821  YZZ=             -0.9889
  YYZ=             -1.5929  XYZ=              3.2457
 Hexadecapole moment (field-independent basis, Debye-Ang**3):
 XXXX=          -1859.6388 YYYY=           -775.6319 ZZZZ=           -134.8970 XXXY=            -71.8177
 XXXZ=             -3.0498 YYYX=            -43.7249 YYYZ=              1.3320 ZZZX=             -0.2477
 ZZZY=             -0.8558 XXYY=           -401.4150 XXZZ=           -362.6070 YYZZ=           -157.5087
 XXYZ=              8.5400 YYXZ=             -1.6696 ZZXY=             -5.6692
 N-N= 6.982632034860D+02 E-N=-2.599832180114D+03  KE= 5.127982812270D+02
   1 Symmetry operations used in ECPInt.
 ECPInt:  NShTT=    6216 NPrTT=   22140 LenC2=    6034 LenP2D=   16398.
 LDataN:  DoStor=T MaxTD1= 5 Len=  102
 Calling FoFJK, ICntrl=      2127 FMM=F ISym2X=0 I1Cent= 0 IOpClX= 0 NMat=1 NMatS=1 NMatT=0.
 ***** Axes restored to original set *****
 -------------------------------------------------------------------
 Center     Atomic                   Forces (Hartrees/Bohr)
 Number     Number              X              Y              Z
 -------------------------------------------------------------------
      1        6          -0.000014680    0.000011666    0.000008221
      2        6           0.000013574   -0.000010135    0.000000299
      3        6           0.000009656    0.000003470    0.000003958
      4        7          -0.000008509    0.000005255    0.000000064
      5        6           0.000006930   -0.000010982   -0.000006308
      6        6           0.000004050    0.000015288   -0.000001559
      7        6          -0.000014387   -0.000000624   -0.000004311
      8        6           0.000000123   -0.000006782    0.000005806
      9        6           0.000005368   -0.000011946    0.000000924
     10        6           0.000006571    0.000001936    0.000009015
     11        6          -0.000006649   -0.000010084   -0.000003826
     12        8          -0.000002935    0.000009596    0.000006673
     13        1           0.000003893   -0.000002057   -0.000003847
     14        1           0.000002480   -0.000000865   -0.000005352
     15        1          -0.000001345   -0.000001076    0.000001085
     16        1          -0.000001741    0.000005225    0.000002500
     17        1           0.000002290    0.000004468    0.000004579
     18        1          -0.000002004   -0.000000724   -0.000002410
     19        1           0.000000134    0.000000449   -0.000000863
     20        1          -0.000003797    0.000002577   -0.000004347
     21        1          -0.000003820    0.000000866   -0.000002191
     22        1          -0.000002181   -0.000002002   -0.000002615
     23        1           0.000001086   -0.000001005   -0.000001916
     24        1           0.000002006    0.000000377   -0.000002108
     25        1           0.000003886   -0.000002892   -0.000001470
 -------------------------------------------------------------------
 Cartesian Forces:  Max     0.000015288 RMS     0.000005870

 GradGradGradGradGradGradGradGradGradGradGradGradGradGradGradGradGradGrad
 Berny optimization.
 FormGI is forming the generalized inverse of G from B-inverse, IUseBI=4.
 Internal  Forces:  Max     0.000009756 RMS     0.000002736
 Search for a local minimum.
 Step number   1 out of a maximum of  150
 All quantities printed in internal units (Hartrees-Bohrs-Radians)
 Mixed Optimization -- En-DIIS/RFO-DIIS
 Second derivative matrix not updated -- first step.
 ITU=  0
     Eigenvalues ---    0.00529   0.00713   0.00718   0.01087   0.01246
     Eigenvalues ---    0.01524   0.01629   0.01635   0.02147   0.02159
     Eigenvalues ---    0.02287   0.02488   0.02940   0.03077   0.04296
     Eigenvalues ---    0.04574   0.04948   0.05313   0.05787   0.06095
     Eigenvalues ---    0.07135   0.07193   0.07258   0.07904   0.08140
     Eigenvalues ---    0.08224   0.09401   0.10061   0.11994   0.14901
     Eigenvalues ---    0.16000   0.16000   0.16000   0.16000   0.16000
     Eigenvalues ---    0.16000   0.18953   0.19309   0.23302   0.23477
     Eigenvalues ---    0.23988   0.24983   0.25000   0.28488   0.28761
     Eigenvalues ---    0.28880   0.30001   0.30753   0.31964   0.32519
     Eigenvalues ---    0.33162   0.33220   0.33308   0.33443   0.33521
     Eigenvalues ---    0.33527   0.33620   0.33643   0.33783   0.33969
     Eigenvalues ---    0.34206   0.40273   0.44220   0.44867   0.44912
     Eigenvalues ---    0.46324   0.55419   0.57236   0.59322
 RFO step:  Lambda=-1.12009010D-08 EMin= 5.28880547D-03
 Linear search not attempted -- first point.
 Iteration  1 RMS(Cart)=  0.00009904 RMS(Int)=  0.00000001
 Iteration  2 RMS(Cart)=  0.00000001 RMS(Int)=  0.00000000
 Variable       Old X    -DE/DX   Delta X   Delta X   Delta X     New X
                                 (Linear)    (Quad)   (Total)
    R1        2.84211  -0.00001   0.00000  -0.00003  -0.00003   2.84208
    R2        2.07697   0.00000   0.00000   0.00001   0.00001   2.07699
    R3        2.07976  -0.00000   0.00000  -0.00001  -0.00001   2.07974
    R4        2.08137  -0.00000   0.00000  -0.00001  -0.00001   2.08136
    R5        2.64482  -0.00001   0.00000  -0.00001  -0.00001   2.64481
    R6        2.63366   0.00001   0.00000   0.00002   0.00002   2.63368
    R7        2.50336   0.00000   0.00000   0.00001   0.00001   2.50337
    R8        2.07382  -0.00000   0.00000  -0.00001  -0.00001   2.07381
    R9        2.51582  -0.00001   0.00000  -0.00001  -0.00001   2.51581
   R10        2.65649   0.00001   0.00000   0.00001   0.00001   2.65651
   R11        2.87721   0.00000   0.00000   0.00001   0.00001   2.87722
   R12        2.63758  -0.00001   0.00000  -0.00001  -0.00001   2.63757
   R13        2.85730  -0.00001   0.00000  -0.00002  -0.00002   2.85728
   R14        2.06984   0.00000   0.00000   0.00001   0.00001   2.06985
   R15        2.88322  -0.00000   0.00000  -0.00001  -0.00001   2.88322
   R16        2.08146  -0.00000   0.00000  -0.00000  -0.00000   2.08146
   R17        2.08767   0.00000   0.00000   0.00000   0.00000   2.08768
   R18        2.87814  -0.00001   0.00000  -0.00002  -0.00002   2.87812
   R19        2.08666  -0.00000   0.00000  -0.00001  -0.00001   2.08665
   R20        2.07936   0.00000   0.00000   0.00001   0.00001   2.07937
   R21        2.88947  -0.00000   0.00000  -0.00002  -0.00002   2.88946
   R22        2.08515   0.00000   0.00000   0.00001   0.00001   2.08516
   R23        2.08280  -0.00000   0.00000  -0.00000  -0.00000   2.08280
   R24        2.65378  -0.00001   0.00000  -0.00002  -0.00002   2.65376
   R25        2.09905  -0.00000   0.00000  -0.00001  -0.00001   2.09904
   R26        1.81461  -0.00000   0.00000  -0.00000  -0.00000   1.81461
    A1        1.94226   0.00000   0.00000   0.00001   0.00001   1.94227
    A2        1.94278   0.00001   0.00000   0.00007   0.00007   1.94285
    A3        1.93817  -0.00000   0.00000  -0.00004  -0.00004   1.93812
    A4        1.88456  -0.00000   0.00000   0.00002   0.00002   1.88458
    A5        1.87947  -0.00000   0.00000  -0.00005  -0.00005   1.87942
    A6        1.87365  -0.00000   0.00000  -0.00001  -0.00001   1.87365
    A7        2.12640   0.00000   0.00000   0.00001   0.00001   2.12641
    A8        2.12949  -0.00000   0.00000  -0.00001  -0.00001   2.12948
    A9        2.02729  -0.00000   0.00000  -0.00000  -0.00000   2.02729
   A10        2.16405  -0.00000   0.00000  -0.00000  -0.00000   2.16404
   A11        2.08751   0.00000   0.00000   0.00000   0.00000   2.08751
   A12        2.03158   0.00000   0.00000   0.00000   0.00000   2.03158
   A13        2.08230   0.00000   0.00000   0.00000   0.00000   2.08230
   A14        2.13311   0.00000   0.00000   0.00000   0.00000   2.13311
   A15        2.02347  -0.00000   0.00000  -0.00001  -0.00001   2.02346
   A16        2.12578  -0.00000   0.00000  -0.00000  -0.00000   2.12577
   A17        2.04770  -0.00000   0.00000  -0.00001  -0.00001   2.04769
   A18        2.12920  -0.00000   0.00000  -0.00000  -0.00000   2.12919
   A19        2.10628   0.00000   0.00000   0.00001   0.00001   2.10629
   A20        2.11144   0.00000   0.00000   0.00000   0.00000   2.11144
   A21        2.09105  -0.00000   0.00000  -0.00001  -0.00001   2.09103
   A22        2.08070   0.00000   0.00000   0.00001   0.00001   2.08071
   A23        1.96026   0.00000   0.00000   0.00002   0.00002   1.96028
   A24        1.91104   0.00000   0.00000   0.00001   0.00001   1.91104
   A25        1.89691  -0.00000   0.00000  -0.00001  -0.00001   1.89690
   A26        1.93671  -0.00000   0.00000   0.00000   0.00000   1.93671
   A27        1.90400  -0.00000   0.00000  -0.00000  -0.00000   1.90399
   A28        1.85130  -0.00000   0.00000  -0.00002  -0.00002   1.85129
   A29        1.91456   0.00000   0.00000   0.00002   0.00002   1.91458
   A30        1.91535   0.00000   0.00000   0.00002   0.00002   1.91537
   A31        1.92353  -0.00000   0.00000  -0.00001  -0.00001   1.92351
   A32        1.91517   0.00000   0.00000   0.00002   0.00002   1.91519
   A33        1.93402  -0.00000   0.00000  -0.00002  -0.00002   1.93400
   A34        1.86055  -0.00000   0.00000  -0.00002  -0.00002   1.86053
   A35        1.95011   0.00000   0.00000   0.00003   0.00003   1.95014
   A36        1.92001   0.00000   0.00000   0.00000   0.00000   1.92002
   A37        1.94120  -0.00000   0.00000  -0.00001  -0.00001   1.94120
   A38        1.87579  -0.00000   0.00000  -0.00001  -0.00001   1.87579
   A39        1.90817   0.00000   0.00000   0.00000   0.00000   1.90817
   A40        1.86549  -0.00000   0.00000  -0.00002  -0.00002   1.86547
   A41        1.95967  -0.00000   0.00000  -0.00000  -0.00000   1.95967
   A42        1.89531   0.00000   0.00000   0.00001   0.00001   1.89532
   A43        1.84493  -0.00000   0.00000  -0.00001  -0.00001   1.84492
   A44        1.94312  -0.00000   0.00000  -0.00001  -0.00001   1.94311
   A45        1.89512   0.00000   0.00000   0.00001   0.00001   1.89512
   A46        1.92326   0.00000   0.00000   0.00001   0.00001   1.92327
   A47        1.88422   0.00000   0.00000   0.00003   0.00003   1.88425
    D1       -0.13337   0.00000   0.00000   0.00008   0.00008  -0.13329
    D2        3.00498   0.00000   0.00000   0.00015   0.00015   3.00513
    D3       -2.23648  -0.00000   0.00000  -0.00000  -0.00000  -2.23648
    D4        0.90186  -0.00000   0.00000   0.00007   0.00007   0.90194
    D5        1.96017  -0.00000   0.00000  -0.00001  -0.00001   1.96016
    D6       -1.18467  -0.00000   0.00000   0.00007   0.00007  -1.18460
    D7       -3.13309   0.00000   0.00000   0.00022   0.00022  -3.13288
    D8        0.01892   0.00000   0.00000   0.00015   0.00015   0.01907
    D9        0.01157   0.00000   0.00000   0.00014   0.00014   0.01172
   D10       -3.11960   0.00000   0.00000   0.00008   0.00008  -3.11952
   D11        3.12883  -0.00000   0.00000  -0.00018  -0.00018   3.12865
   D12       -0.01603  -0.00000   0.00000  -0.00022  -0.00022  -0.01625
   D13       -0.01584  -0.00000   0.00000  -0.00010  -0.00010  -0.01595
   D14        3.12248  -0.00000   0.00000  -0.00015  -0.00015   3.12234
   D15        0.01249  -0.00000   0.00000  -0.00004  -0.00004   0.01245
   D16       -3.13922   0.00000   0.00000   0.00002   0.00002  -3.13920
   D17       -0.03281  -0.00000   0.00000  -0.00010  -0.00010  -0.03291
   D18       -3.13134   0.00000   0.00000   0.00005   0.00005  -3.13129
   D19        0.02777   0.00000   0.00000   0.00013   0.00013   0.02791
   D20       -3.11863   0.00000   0.00000   0.00010   0.00010  -3.11853
   D21        3.12380  -0.00000   0.00000  -0.00003  -0.00003   3.12377
   D22       -0.02260  -0.00000   0.00000  -0.00006  -0.00006  -0.02266
   D23       -2.94354  -0.00000   0.00000  -0.00011  -0.00011  -2.94364
   D24       -0.78723  -0.00000   0.00000  -0.00012  -0.00012  -0.78734
   D25        1.27621  -0.00000   0.00000  -0.00011  -0.00011   1.27610
   D26        0.24092   0.00000   0.00000   0.00005   0.00005   0.24097
   D27        2.39723  -0.00000   0.00000   0.00003   0.00003   2.39727
   D28       -1.82252   0.00000   0.00000   0.00005   0.00005  -1.82247
   D29       -0.00246   0.00000   0.00000  -0.00002  -0.00002  -0.00248
   D30       -3.14080   0.00000   0.00000   0.00002   0.00002  -3.14078
   D31       -3.13931   0.00000   0.00000   0.00001   0.00001  -3.13930
   D32        0.00553   0.00000   0.00000   0.00005   0.00005   0.00558
   D33        0.33910  -0.00000   0.00000   0.00000   0.00000   0.33911
   D34        2.49896   0.00000   0.00000   0.00003   0.00003   2.49899
   D35       -1.76922  -0.00000   0.00000   0.00000   0.00000  -1.76922
   D36       -2.80745  -0.00000   0.00000  -0.00003  -0.00003  -2.80748
   D37       -0.64760   0.00000   0.00000  -0.00001  -0.00001  -0.64760
   D38        1.36741  -0.00000   0.00000  -0.00003  -0.00003   1.36738
   D39       -0.86157   0.00000   0.00000   0.00006   0.00006  -0.86151
   D40        1.24377   0.00000   0.00000   0.00011   0.00011   1.24388
   D41       -2.99558   0.00000   0.00000   0.00008   0.00008  -2.99550
   D42       -3.00704  -0.00000   0.00000   0.00003   0.00003  -3.00701
   D43       -0.90170   0.00000   0.00000   0.00008   0.00008  -0.90162
   D44        1.14213  -0.00000   0.00000   0.00006   0.00006   1.14219
   D45        1.24268  -0.00000   0.00000   0.00005   0.00005   1.24273
   D46       -2.93517   0.00000   0.00000   0.00010   0.00010  -2.93507
   D47       -0.89134   0.00000   0.00000   0.00008   0.00008  -0.89126
   D48        1.11317  -0.00000   0.00000  -0.00006  -0.00006   1.11310
   D49       -0.96879  -0.00000   0.00000  -0.00008  -0.00008  -0.96886
   D50       -3.03228   0.00000   0.00000  -0.00004  -0.00004  -3.03232
   D51       -0.99228  -0.00000   0.00000  -0.00011  -0.00011  -0.99240
   D52       -3.07424  -0.00000   0.00000  -0.00013  -0.00013  -3.07436
   D53        1.14546  -0.00000   0.00000  -0.00009  -0.00009   1.14536
   D54       -3.04226  -0.00000   0.00000  -0.00008  -0.00008  -3.04235
   D55        1.15897  -0.00000   0.00000  -0.00010  -0.00010   1.15887
   D56       -0.90452   0.00000   0.00000  -0.00006  -0.00006  -0.90459
   D57       -0.78020   0.00000   0.00000   0.00001   0.00001  -0.78019
   D58       -2.90953  -0.00000   0.00000   0.00001   0.00001  -2.90952
   D59        1.25333  -0.00000   0.00000   0.00000   0.00000   1.25333
   D60        1.32771   0.00000   0.00000   0.00003   0.00003   1.32774
   D61       -0.80162   0.00000   0.00000   0.00003   0.00003  -0.80159
   D62       -2.92194   0.00000   0.00000   0.00002   0.00002  -2.92193
   D63       -2.93672   0.00000   0.00000  -0.00000  -0.00000  -2.93672
   D64        1.21713  -0.00000   0.00000  -0.00000  -0.00000   1.21713
   D65       -0.90319  -0.00000   0.00000  -0.00001  -0.00001  -0.90320
   D66        2.87078   0.00000   0.00000  -0.00003  -0.00003   2.87075
   D67       -1.24621  -0.00000   0.00000  -0.00004  -0.00004  -1.24625
   D68        0.85763  -0.00000   0.00000  -0.00003  -0.00003   0.85761
         Item               Value     Threshold  Converged?
 Maximum Force            0.000010     0.000450     YES
 RMS     Force            0.000003     0.000300     YES
 Maximum Displacement     0.000447     0.001800     YES
 RMS     Displacement     0.000099     0.001200     YES
 Predicted change in Energy=-5.600468D-09
 Optimization completed.
    -- Stationary point found.
                           ----------------------------
                           !   Optimized Parameters   !
                           ! (Angstroms and Degrees)  !
 --------------------------                            --------------------------
 ! Name  Definition              Value          Derivative Info.                !
 --------------------------------------------------------------------------------
 ! R1    R(1,2)                  1.504          -DE/DX =    0.0                 !
 ! R2    R(1,13)                 1.0991         -DE/DX =    0.0                 !
 ! R3    R(1,14)                 1.1006         -DE/DX =    0.0                 !
 ! R4    R(1,15)                 1.1014         -DE/DX =    0.0                 !
 ! R5    R(2,3)                  1.3996         -DE/DX =    0.0                 !
 ! R6    R(2,7)                  1.3937         -DE/DX =    0.0                 !
 ! R7    R(3,4)                  1.3247         -DE/DX =    0.0                 !
 ! R8    R(3,16)                 1.0974         -DE/DX =    0.0                 !
 ! R9    R(4,5)                  1.3313         -DE/DX =    0.0                 !
 ! R10   R(5,6)                  1.4058         -DE/DX =    0.0                 !
 ! R11   R(5,11)                 1.5226         -DE/DX =    0.0                 !
 ! R12   R(6,7)                  1.3957         -DE/DX =    0.0                 !
 ! R13   R(6,8)                  1.512          -DE/DX =    0.0                 !
 ! R14   R(7,17)                 1.0953         -DE/DX =    0.0                 !
 ! R15   R(8,9)                  1.5257         -DE/DX =    0.0                 !
 ! R16   R(8,18)                 1.1015         -DE/DX =    0.0                 !
 ! R17   R(8,19)                 1.1047         -DE/DX =    0.0                 !
 ! R18   R(9,10)                 1.523          -DE/DX =    0.0                 !
 ! R19   R(9,20)                 1.1042         -DE/DX =    0.0                 !
 ! R20   R(9,21)                 1.1004         -DE/DX =    0.0                 !
 ! R21   R(10,11)                1.529          -DE/DX =    0.0                 !
 ! R22   R(10,22)                1.1034         -DE/DX =    0.0                 !
 ! R23   R(10,23)                1.1022         -DE/DX =    0.0                 !
 ! R24   R(11,12)                1.4043         -DE/DX =    0.0                 !
 ! R25   R(11,24)                1.1108         -DE/DX =    0.0                 !
 ! R26   R(12,25)                0.9603         -DE/DX =    0.0                 !
 ! A1    A(2,1,13)             111.2833         -DE/DX =    0.0                 !
 ! A2    A(2,1,14)             111.3129         -DE/DX =    0.0                 !
 ! A3    A(2,1,15)             111.0489         -DE/DX =    0.0                 !
 ! A4    A(13,1,14)            107.9775         -DE/DX =    0.0                 !
 ! A5    A(13,1,15)            107.6857         -DE/DX =    0.0                 !
 ! A6    A(14,1,15)            107.3525         -DE/DX =    0.0                 !
 ! A7    A(1,2,3)              121.8339         -DE/DX =    0.0                 !
 ! A8    A(1,2,7)              122.0106         -DE/DX =    0.0                 !
 ! A9    A(3,2,7)              116.1553         -DE/DX =    0.0                 !
 ! A10   A(2,3,4)              123.9907         -DE/DX =    0.0                 !
 ! A11   A(2,3,16)             119.6057         -DE/DX =    0.0                 !
 ! A12   A(4,3,16)             116.4011         -DE/DX =    0.0                 !
 ! A13   A(3,4,5)              119.3067         -DE/DX =    0.0                 !
 ! A14   A(4,5,6)              122.2184         -DE/DX =    0.0                 !
 ! A15   A(4,5,11)             115.9361         -DE/DX =    0.0                 !
 ! A16   A(6,5,11)             121.798          -DE/DX =    0.0                 !
 ! A17   A(5,6,7)              117.3244         -DE/DX =    0.0                 !
 ! A18   A(5,6,8)              121.994          -DE/DX =    0.0                 !
 ! A19   A(7,6,8)              120.6809         -DE/DX =    0.0                 !
 ! A20   A(2,7,6)              120.9764         -DE/DX =    0.0                 !
 ! A21   A(2,7,17)             119.8081         -DE/DX =    0.0                 !
 ! A22   A(6,7,17)             119.2152         -DE/DX =    0.0                 !
 ! A23   A(6,8,9)              112.3146         -DE/DX =    0.0                 !
 ! A24   A(6,8,18)             109.4943         -DE/DX =    0.0                 !
 ! A25   A(6,8,19)             108.685          -DE/DX =    0.0                 !
 ! A26   A(9,8,18)             110.9652         -DE/DX =    0.0                 !
 ! A27   A(9,8,19)             109.091          -DE/DX =    0.0                 !
 ! A28   A(18,8,19)            106.0719         -DE/DX =    0.0                 !
 ! A29   A(8,9,10)             109.6963         -DE/DX =    0.0                 !
 ! A30   A(8,9,20)             109.7417         -DE/DX =    0.0                 !
 ! A31   A(8,9,21)             110.2099         -DE/DX =    0.0                 !
 ! A32   A(10,9,20)            109.7311         -DE/DX =    0.0                 !
 ! A33   A(10,9,21)            110.8115         -DE/DX =    0.0                 !
 ! A34   A(20,9,21)            106.6019         -DE/DX =    0.0                 !
 ! A35   A(9,10,11)            111.733          -DE/DX =    0.0                 !
 ! A36   A(9,10,22)            110.0087         -DE/DX =    0.0                 !
 ! A37   A(9,10,23)            111.2228         -DE/DX =    0.0                 !
 ! A38   A(11,10,22)           107.475          -DE/DX =    0.0                 !
 ! A39   A(11,10,23)           109.33           -DE/DX =    0.0                 !
 ! A40   A(22,10,23)           106.8848         -DE/DX =    0.0                 !
 ! A41   A(5,11,10)            112.281          -DE/DX =    0.0                 !
 ! A42   A(5,11,12)            108.5935         -DE/DX =    0.0                 !
 ! A43   A(5,11,24)            105.7065         -DE/DX =    0.0                 !
 ! A44   A(10,11,12)           111.3326         -DE/DX =    0.0                 !
 ! A45   A(10,11,24)           108.5822         -DE/DX =    0.0                 !
 ! A46   A(12,11,24)           110.1947         -DE/DX =    0.0                 !
 ! A47   A(11,12,25)           107.9581         -DE/DX =    0.0                 !
 ! D1    D(13,1,2,3)            -7.6413         -DE/DX =    0.0                 !
 ! D2    D(13,1,2,7)           172.1725         -DE/DX =    0.0                 !
 ! D3    D(14,1,2,3)          -128.1408         -DE/DX =    0.0                 !
 ! D4    D(14,1,2,7)            51.673          -DE/DX =    0.0                 !
 ! D5    D(15,1,2,3)           112.3095         -DE/DX =    0.0                 !
 ! D6    D(15,1,2,7)           -67.8767         -DE/DX =    0.0                 !
 ! D7    D(1,2,3,4)           -179.5129         -DE/DX =    0.0                 !
 ! D8    D(1,2,3,16)             1.0841         -DE/DX =    0.0                 !
 ! D9    D(7,2,3,4)              0.663          -DE/DX =    0.0                 !
 ! D10   D(7,2,3,16)          -178.74           -DE/DX =    0.0                 !
 ! D11   D(1,2,7,6)            179.2686         -DE/DX =    0.0                 !
 ! D12   D(1,2,7,17)            -0.9187         -DE/DX =    0.0                 !
 ! D13   D(3,2,7,6)             -0.9076         -DE/DX =    0.0                 !
 ! D14   D(3,2,7,17)           178.9051         -DE/DX =    0.0                 !
 ! D15   D(2,3,4,5)              0.7156         -DE/DX =    0.0                 !
 ! D16   D(16,3,4,5)          -179.8639         -DE/DX =    0.0                 !
 ! D17   D(3,4,5,6)             -1.8799         -DE/DX =    0.0                 !
 ! D18   D(3,4,5,11)          -179.4126         -DE/DX =    0.0                 !
 ! D19   D(4,5,6,7)              1.5912         -DE/DX =    0.0                 !
 ! D20   D(4,5,6,8)           -178.6841         -DE/DX =    0.0                 !
 ! D21   D(11,5,6,7)           178.9805         -DE/DX =    0.0                 !
 ! D22   D(11,5,6,8)            -1.2948         -DE/DX =    0.0                 !
 ! D23   D(4,5,11,10)         -168.6522         -DE/DX =    0.0                 !
 ! D24   D(4,5,11,12)          -45.1048         -DE/DX =    0.0                 !
 ! D25   D(4,5,11,24)           73.1213         -DE/DX =    0.0                 !
 ! D26   D(6,5,11,10)           13.8038         -DE/DX =    0.0                 !
 ! D27   D(6,5,11,12)          137.3512         -DE/DX =    0.0                 !
 ! D28   D(6,5,11,24)         -104.4227         -DE/DX =    0.0                 !
 ! D29   D(5,6,7,2)             -0.1407         -DE/DX =    0.0                 !
 ! D30   D(5,6,7,17)          -179.9545         -DE/DX =    0.0                 !
 ! D31   D(8,6,7,2)           -179.8692         -DE/DX =    0.0                 !
 ! D32   D(8,6,7,17)             0.317          -DE/DX =    0.0                 !
 ! D33   D(5,6,8,9)             19.4293         -DE/DX =    0.0                 !
 ! D34   D(5,6,8,18)           143.1799         -DE/DX =    0.0                 !
 ! D35   D(5,6,8,19)          -101.369          -DE/DX =    0.0                 !
 ! D36   D(7,6,8,9)           -160.8551         -DE/DX =    0.0                 !
 ! D37   D(7,6,8,18)           -37.1045         -DE/DX =    0.0                 !
 ! D38   D(7,6,8,19)            78.3466         -DE/DX =    0.0                 !
 ! D39   D(6,8,9,10)           -49.3641         -DE/DX =    0.0                 !
 ! D40   D(6,8,9,20)            71.263          -DE/DX =    0.0                 !
 ! D41   D(6,8,9,21)          -171.6342         -DE/DX =    0.0                 !
 ! D42   D(18,8,9,10)         -172.2907         -DE/DX =    0.0                 !
 ! D43   D(18,8,9,20)          -51.6636         -DE/DX =    0.0                 !
 ! D44   D(18,8,9,21)           65.4392         -DE/DX =    0.0                 !
 ! D45   D(19,8,9,10)           71.2001         -DE/DX =    0.0                 !
 ! D46   D(19,8,9,20)         -168.1729         -DE/DX =    0.0                 !
 ! D47   D(19,8,9,21)          -51.0701         -DE/DX =    0.0                 !
 ! D48   D(8,9,10,11)           63.7798         -DE/DX =    0.0                 !
 ! D49   D(8,9,10,22)          -55.5073         -DE/DX =    0.0                 !
 ! D50   D(8,9,10,23)         -173.7367         -DE/DX =    0.0                 !
 ! D51   D(20,9,10,11)         -56.8537         -DE/DX =    0.0                 !
 ! D52   D(20,9,10,22)        -176.1408         -DE/DX =    0.0                 !
 ! D53   D(20,9,10,23)          65.6298         -DE/DX =    0.0                 !
 ! D54   D(21,9,10,11)        -174.3089         -DE/DX =    0.0                 !
 ! D55   D(21,9,10,22)          66.404          -DE/DX =    0.0                 !
 ! D56   D(21,9,10,23)         -51.8254         -DE/DX =    0.0                 !
 ! D57   D(9,10,11,5)          -44.7022         -DE/DX =    0.0                 !
 ! D58   D(9,10,11,12)        -166.704          -DE/DX =    0.0                 !
 ! D59   D(9,10,11,24)          71.8105         -DE/DX =    0.0                 !
 ! D60   D(22,10,11,5)          76.0723         -DE/DX =    0.0                 !
 ! D61   D(22,10,11,12)        -45.9296         -DE/DX =    0.0                 !
 ! D62   D(22,10,11,24)       -167.4151         -DE/DX =    0.0                 !
 ! D63   D(23,10,11,5)        -168.2617         -DE/DX =    0.0                 !
 ! D64   D(23,10,11,12)         69.7365         -DE/DX =    0.0                 !
 ! D65   D(23,10,11,24)        -51.749          -DE/DX =    0.0                 !
 ! D66   D(5,11,12,25)         164.4837         -DE/DX =    0.0                 !
 ! D67   D(10,11,12,25)        -71.4026         -DE/DX =    0.0                 !
 ! D68   D(24,11,12,25)         49.1388         -DE/DX =    0.0                 !
 --------------------------------------------------------------------------------
 GradGradGradGradGradGradGradGradGradGradGradGradGradGradGradGradGradGrad

                          Input orientation:                          
 ---------------------------------------------------------------------
 Center     Atomic      Atomic             Coordinates (Angstroms)
 Number     Number       Type             X           Y           Z
 ---------------------------------------------------------------------
      1          6           0        3.903010    0.260240   -0.110760
      2          6           0        2.420120    0.027680   -0.016410
      3          6           0        1.884910   -1.248240    0.194310
      4          7           0        0.587430   -1.503030    0.275020
      5          6           0       -0.282520   -0.504720    0.137290
      6          6           0        0.127980    0.826110   -0.053840
      7          6           0        1.500400    1.068650   -0.129670
      8          6           0       -0.864060    1.960130   -0.180530
      9          6           0       -2.235520    1.595380    0.379760
     10          6           0       -2.679560    0.251950   -0.183890
     11          6           0       -1.752850   -0.881380    0.257410
     12          8           0       -1.979050   -2.047350   -0.491900
     13          1           0        4.466260   -0.649860    0.139160
     14          1           0        4.227000    1.058910    0.573630
     15          1           0        4.191870    0.563350   -1.129480
     16          1           0        2.558950   -2.106160    0.312510
     17          1           0        1.854640    2.094510   -0.277430
     18          1           0       -0.461720    2.857590    0.315360
     19          1           0       -0.968080    2.221680   -1.248820
     20          1           0       -2.185470    1.539260    1.481410
     21          1           0       -2.966330    2.381630    0.137890
     22          1           0       -2.664640    0.281730   -1.286800
     23          1           0       -3.713460    0.015530    0.116010
     24          1           0       -1.925260   -1.079670    1.336650
     25          1           0       -2.824920   -2.413180   -0.222170
 ---------------------------------------------------------------------
                    Distance matrix (angstroms):
                    1          2          3          4          5
     1  C    0.000000
     2  C    1.503978   0.000000
     3  C    2.537973   1.399580   0.000000
     4  N    3.775052   2.405568   1.324721   0.000000
     5  C    4.262083   2.758865   2.292123   1.331317   0.000000
     6  C    3.817630   2.427508   2.729709   2.396693   1.405756
     7  C    2.535038   1.393675   2.370821   2.758773   2.392815
     8  C    5.061566   3.814071   4.241577   3.782569   2.552388
     9  C    6.301171   4.928450   5.009841   4.192870   2.878093
    10  C    6.582981   5.107356   4.819543   3.736814   2.534069
    11  C    5.781660   4.279608   3.656756   2.421501   1.522554
    12  O    6.329998   4.887181   4.004953   2.733362   2.377772
    13  H    1.099087   2.161007   2.650371   3.973875   4.750998
    14  H    1.100560   2.162498   3.309412   4.460849   4.792818
    15  H    1.101411   2.159853   3.218127   4.385719   4.771336
    16  H    2.754179   2.163501   1.097419   2.062053   3.266384
    17  H    2.754659   2.158630   3.376008   3.854000   3.390493
    18  H    5.096928   4.052587   4.730662   4.485237   3.371787
    19  H    5.373076   4.220470   4.718318   4.314529   3.134414
    20  H    6.421876   5.073440   5.098507   4.289508   3.099311
    21  H    7.193744   5.880368   6.059181   5.266745   3.941301
    22  H    6.672148   5.247210   5.023236   4.024998   2.884620
    23  H    7.623774   6.135021   5.739773   4.563876   3.470225
    24  H    6.152974   4.683943   3.981300   2.760417   2.113676
    25  H    7.240485   5.788832   4.869604   3.566469   3.199254
                    6          7          8          9         10
     6  C    0.000000
     7  C    1.395748   0.000000
     8  C    1.512017   2.527448   0.000000
     9  C    2.523077   3.807107   1.525736   0.000000
    10  C    2.868598   4.259343   2.492776   1.523049   0.000000
    11  C    2.559281   3.812622   3.009305   2.526317   1.529043
    12  O    3.590020   4.684788   4.171337   3.754337   2.423296
    13  H    4.586547   3.438295   5.943615   7.071976   7.209741
    14  H    4.153297   2.815861   5.224926   6.487646   6.994683
    15  H    4.212036   2.915297   5.330472   6.682382   6.943174
    16  H    3.826491   3.375718   5.338052   6.057463   5.766202
    17  H    2.154109   1.095312   2.723743   4.172582   4.895176
    18  H    2.147316   2.692262   1.101462   2.178001   3.457951
    19  H    2.139378   2.945398   1.104750   2.156601   2.818346
    20  H    2.866640   4.050023   2.164555   1.104213   2.162063
    21  H    3.468596   4.663387   2.167624   1.100351   2.172859
    22  H    3.100849   4.393831   2.698694   2.165004   1.103413
    23  H    3.929701   5.324825   3.462439   2.179403   1.102172
    24  H    3.127500   4.301223   3.559265   2.857935   2.157365
    25  H    4.386451   5.553385   4.792968   4.096128   2.669366
                   11         12         13         14         15
    11  C    0.000000
    12  O    1.404321   0.000000
    13  H    6.224541   6.625197   0.000000
    14  H    6.294706   7.021343   1.779299   0.000000
    15  H    6.272990   6.730714   1.776687   1.774091   0.000000
    16  H    4.482716   4.609119   2.405970   3.587233   3.445584
    17  H    4.707012   5.647847   3.811256   2.724860   2.921144
    18  H    3.956042   5.197345   6.051301   5.028523   5.385815
    19  H    3.537453   4.451922   6.301133   5.626919   5.421198
    20  H    2.746786   4.098821   7.130175   6.494195   6.959857
    21  H    3.483397   4.581181   8.027037   7.326899   7.493477
    22  H    2.137468   2.554704   7.331504   7.180523   6.864094
    23  H    2.160656   2.762826   8.206772   8.021781   8.021571
    24  H    1.110767   2.069515   6.516920   6.557898   6.797102
    25  H    1.930218   0.960251   7.510071   7.900524   7.675825
                   16         17         18         19         20
    16  H    0.000000
    17  H    4.299966   0.000000
    18  H    5.810617   2.509824   0.000000
    19  H    5.797231   2.987895   1.762794   0.000000
    20  H    6.096305   4.441206   2.463530   3.066250   0.000000
    21  H    7.120356   4.847337   2.555603   2.437530   1.767590
    22  H    5.962022   4.972815   3.748977   2.577434   3.077982
    23  H    6.624448   5.956567   4.323293   3.777164   2.553590
    24  H    4.712821   5.193103   4.322846   4.301135   2.635803
    25  H    5.419059   6.497738   5.801264   5.097430   4.351191
                   21         22         23         24         25
    21  H    0.000000
[...]
 Alpha virt. eigenvalues --    3.13461   3.14111   3.15356   3.17839   3.18016
 Alpha virt. eigenvalues --    3.20180   3.21150   3.21457   3.23402   3.24579
 Alpha virt. eigenvalues --    3.25894   3.26281   3.26887   3.28566   3.30304
 Alpha virt. eigenvalues --    3.31056   3.32685   3.33470   3.33831   3.34740
 Alpha virt. eigenvalues --    3.35832   3.36428   3.38025   3.38347   3.40597
 Alpha virt. eigenvalues --    3.41859   3.42396   3.43380   3.43729   3.44871
 Alpha virt. eigenvalues --    3.45730   3.47193   3.48518   3.49587   3.50083
 Alpha virt. eigenvalues --    3.51439   3.54424   3.55148   3.57192   3.57792
 Alpha virt. eigenvalues --    3.59583   3.60197   3.61952   3.62572   3.63526
 Alpha virt. eigenvalues --    3.65421   3.66626   3.69140   3.70990   3.72504
 Alpha virt. eigenvalues --    3.74203   3.77892   3.78718   3.79301   3.81159
 Alpha virt. eigenvalues --    3.83271   3.84207   3.85295   3.85920   3.89268
 Alpha virt. eigenvalues --    3.91054   3.93741   3.96987   3.97664   3.99619
 Alpha virt. eigenvalues --    4.00545   4.02200   4.03118   4.06864   4.09699
 Alpha virt. eigenvalues --    4.11621   4.13490   4.13805   4.16573   4.18114
 Alpha virt. eigenvalues --    4.19815   4.21513   4.24384   4.24594   4.27733
 Alpha virt. eigenvalues --    4.29560   4.30829   4.31126   4.34290   4.35571
 Alpha virt. eigenvalues --    4.37321   4.40099   4.43646   4.46660   4.46983
 Alpha virt. eigenvalues --    4.52688   4.53555   4.56090   4.58215   4.60609
 Alpha virt. eigenvalues --    4.65174   4.66841   4.67586   4.68891   4.72063
 Alpha virt. eigenvalues --    4.73469   4.75655   4.78711   4.83581   4.87285
 Alpha virt. eigenvalues --    4.93807   4.95283   5.01151   5.03357   5.05132
 Alpha virt. eigenvalues --    5.06661   5.10319   5.13209   5.17447   5.20537
 Alpha virt. eigenvalues --    5.29837   5.31833   5.38358   5.39052   5.40844
 Alpha virt. eigenvalues --    5.42393   5.44023   5.52429   5.57383   5.59607
 Alpha virt. eigenvalues --    5.66636   5.76410   5.86715   5.90981   5.94468
 Alpha virt. eigenvalues --    6.00863   6.05769   6.27578   6.46017   6.62278
 Alpha virt. eigenvalues --    6.83981   6.94069   7.11079   7.30302  22.48523
 Alpha virt. eigenvalues --   22.56418  22.60132  22.63708  22.68927  22.83750
 Alpha virt. eigenvalues --   22.95083  23.04090  23.16735  23.45125  32.69651
 Alpha virt. eigenvalues --   44.11649
          Condensed to atoms (all electrons):
               1          2          3          4          5          6
     1  C    4.967007   0.280694  -0.041561   0.011234  -0.008979   0.022848
     2  C    0.280694   5.136899   0.474071  -0.042853  -0.124185   0.086482
     3  C   -0.041561   0.474071   4.796106   0.557804  -0.087761  -0.040215
     4  N    0.011234  -0.042853   0.557804   6.437341   0.503583  -0.058144
     5  C   -0.008979  -0.124185  -0.087761   0.503583   5.729501   0.063528
     6  C    0.022848   0.086482  -0.040215  -0.058144   0.063528   5.572229
     7  C   -0.106086   0.342293  -0.028616  -0.085799   0.078768   0.255755
     8  C    0.000727   0.023771  -0.002317   0.011910  -0.078135   0.296305
     9  C    0.000029   0.001980  -0.000292  -0.001685  -0.049324   0.018248
    10  C   -0.000048  -0.003174   0.000978   0.010535   0.110102  -0.112551
    11  C   -0.000374  -0.007173  -0.002134  -0.047924  -0.086551  -0.009280
    12  O   -0.000012  -0.001234   0.000477  -0.009927  -0.130586   0.000423
    13  H    0.425689  -0.062721  -0.001174   0.000139   0.000658  -0.001088
    14  H    0.416884  -0.041908  -0.000594  -0.000285   0.000081   0.000702
    15  H    0.403814  -0.029368  -0.003668  -0.000280   0.000153  -0.000792
    16  H   -0.003741  -0.100665   0.451577  -0.030332   0.004818  -0.001691
    17  H   -0.005014  -0.059881   0.004843  -0.002143   0.020658  -0.068298
    18  H   -0.000092  -0.000949   0.000184  -0.000453   0.004841  -0.049344
    19  H   -0.000020  -0.000987   0.000328  -0.000391  -0.003929  -0.041005
    20  H   -0.000004  -0.000142   0.000028  -0.000247  -0.002681  -0.002732
    21  H   -0.000000  -0.000030  -0.000007   0.000031   0.000300   0.011809
    22  H   -0.000002  -0.000038  -0.000035  -0.000461  -0.021151   0.001952
    23  H    0.000000   0.000041   0.000033  -0.000191   0.022186  -0.001887
    24  H   -0.000012   0.000807   0.000011  -0.006061  -0.101234   0.026007
    25  H    0.000001   0.000062   0.000028   0.000409   0.033833  -0.001386
               7          8          9         10         11         12
     1  C   -0.106086   0.000727   0.000029  -0.000048  -0.000374  -0.000012
     2  C    0.342293   0.023771   0.001980  -0.003174  -0.007173  -0.001234
     3  C   -0.028616  -0.002317  -0.000292   0.000978  -0.002134   0.000477
     4  N   -0.085799   0.011910  -0.001685   0.010535  -0.047924  -0.009927
     5  C    0.078768  -0.078135  -0.049324   0.110102  -0.086551  -0.130586
     6  C    0.255755   0.296305   0.018248  -0.112551  -0.009280   0.000423
     7  C    5.407327  -0.105107   0.003021   0.006766   0.028566   0.001406
     8  C   -0.105107   5.024096   0.347053  -0.043298  -0.029734  -0.000418
     9  C    0.003021   0.347053   4.997910   0.157699  -0.028152   0.017248
    10  C    0.006766  -0.043298   0.157699   5.221693   0.273846  -0.075311
    11  C    0.028566  -0.029734  -0.028152   0.273846   5.129143   0.414730
    12  O    0.001406  -0.000418   0.017248  -0.075311   0.414730   7.954262
    13  H    0.013098  -0.000001  -0.000001   0.000001   0.000006   0.000000
    14  H   -0.005215  -0.000086   0.000009  -0.000001   0.000002   0.000000
    15  H   -0.005481  -0.000034  -0.000004   0.000002  -0.000005  -0.000000
    16  H    0.008636   0.000242  -0.000030   0.000007  -0.000605   0.000079
    17  H    0.452259  -0.010113   0.000042   0.000470  -0.000062   0.000002
    18  H    0.004607   0.411343  -0.034300   0.009989  -0.000259  -0.000002
    19  H    0.001585   0.403928  -0.025212  -0.005412  -0.001726  -0.000006
    20  H    0.001242  -0.035938   0.419995  -0.042129   0.002092   0.000067
    21  H   -0.000519  -0.047209   0.407590  -0.019567   0.008140  -0.000373
    22  H    0.000490   0.004686  -0.028238   0.380804  -0.010276   0.010280
    23  H   -0.000184   0.009883  -0.027484   0.415244  -0.063486   0.001300
    24  H   -0.000608  -0.000578   0.015706  -0.115892   0.487510  -0.049889
    25  H   -0.000141   0.000268   0.000261   0.011497  -0.070509   0.299571
              13         14         15         16         17         18
     1  C    0.425689   0.416884   0.403814  -0.003741  -0.005014  -0.000092
     2  C   -0.062721  -0.041908  -0.029368  -0.100665  -0.059881  -0.000949
     3  C   -0.001174  -0.000594  -0.003668   0.451577   0.004843   0.000184
     4  N    0.000139  -0.000285  -0.000280  -0.030332  -0.002143  -0.000453
     5  C    0.000658   0.000081   0.000153   0.004818   0.020658   0.004841
     6  C   -0.001088   0.000702  -0.000792  -0.001691  -0.068298  -0.049344
     7  C    0.013098  -0.005215  -0.005481   0.008636   0.452259   0.004607
     8  C   -0.000001  -0.000086  -0.000034   0.000242  -0.010113   0.411343
     9  C   -0.000001   0.000009  -0.000004  -0.000030   0.000042  -0.034300
    10  C    0.000001  -0.000001   0.000002   0.000007   0.000470   0.009989
    11  C    0.000006   0.000002  -0.000005  -0.000605  -0.000062  -0.000259
    12  O    0.000000   0.000000  -0.000000   0.000079   0.000002  -0.000002
    13  H    0.539726  -0.021583  -0.020395   0.003286   0.000182   0.000002
    14  H   -0.021583   0.555659  -0.032177  -0.000109   0.000294  -0.000014
    15  H   -0.020395  -0.032177   0.555669  -0.000058   0.000229   0.000010
    16  H    0.003286  -0.000109  -0.000058   0.557492  -0.000248  -0.000005
    17  H    0.000182   0.000294   0.000229  -0.000248   0.544092   0.003760
    18  H    0.000002  -0.000014   0.000010  -0.000005   0.003760   0.572307
    19  H   -0.000001   0.000008  -0.000005  -0.000002   0.000339  -0.029466
    20  H    0.000000  -0.000000   0.000000  -0.000000   0.000022  -0.005059
    21  H    0.000000   0.000000  -0.000000   0.000000   0.000001  -0.003035
    22  H    0.000000  -0.000000   0.000000  -0.000002   0.000000   0.000625
    23  H   -0.000000  -0.000000   0.000000  -0.000000  -0.000005  -0.000410
    24  H    0.000000  -0.000001   0.000001  -0.000089  -0.000001   0.000422
    25  H   -0.000000  -0.000000   0.000000  -0.000002  -0.000001  -0.000004
              19         20         21         22         23         24
     1  C   -0.000020  -0.000004  -0.000000  -0.000002   0.000000  -0.000012
     2  C   -0.000987  -0.000142  -0.000030  -0.000038   0.000041   0.000807
     3  C    0.000328   0.000028  -0.000007  -0.000035   0.000033   0.000011
     4  N   -0.000391  -0.000247   0.000031  -0.000461  -0.000191  -0.006061
     5  C   -0.003929  -0.002681   0.000300  -0.021151   0.022186  -0.101234
     6  C   -0.041005  -0.002732   0.011809   0.001952  -0.001887   0.026007
     7  C    0.001585   0.001242  -0.000519   0.000490  -0.000184  -0.000608
     8  C    0.403928  -0.035938  -0.047209   0.004686   0.009883  -0.000578
     9  C   -0.025212   0.419995   0.407590  -0.028238  -0.027484   0.015706
    10  C   -0.005412  -0.042129  -0.019567   0.380804   0.415244  -0.115892
    11  C   -0.001726   0.002092   0.008140  -0.010276  -0.063486   0.487510
    12  O   -0.000006   0.000067  -0.000373   0.010280   0.001300  -0.049889
    13  H   -0.000001   0.000000   0.000000   0.000000  -0.000000   0.000000
    14  H    0.000008  -0.000000   0.000000  -0.000000  -0.000000  -0.000001
    15  H   -0.000005   0.000000  -0.000000   0.000000   0.000000   0.000001
    16  H   -0.000002  -0.000000   0.000000  -0.000002  -0.000000  -0.000089
    17  H    0.000339   0.000022   0.000001   0.000000  -0.000005  -0.000001
    18  H   -0.029466  -0.005059  -0.003035   0.000625  -0.000410   0.000422
    19  H    0.586590   0.006153  -0.004710   0.000336   0.000189  -0.000417
    20  H    0.006153   0.579161  -0.024467   0.005552  -0.002200   0.000913
    21  H   -0.004710  -0.024467   0.571916  -0.003629  -0.006885  -0.000576
    22  H    0.000336   0.005552  -0.003629   0.574261  -0.028644   0.010690
    23  H    0.000189  -0.002200  -0.006885  -0.028644   0.587895  -0.008783
    24  H   -0.000417   0.000913  -0.000576   0.010690  -0.008783   0.676305
    25  H    0.000000   0.000002  -0.000022  -0.002504   0.003659  -0.011507
              25
     1  C    0.000001
     2  C    0.000062
     3  C    0.000028
     4  N    0.000409
     5  C    0.033833
     6  C   -0.001386
     7  C   -0.000141
     8  C    0.000268
     9  C    0.000261
    10  C    0.011497
    11  C   -0.070509
    12  O    0.299571
    13  H   -0.000000
    14  H   -0.000000
    15  H    0.000000
    16  H   -0.000002
    17  H   -0.000001
    18  H   -0.000004
    19  H    0.000000
    20  H    0.000002
    21  H   -0.000022
    22  H   -0.002504
    23  H    0.003659
    24  H   -0.011507
    25  H    0.427900
 Mulliken charges:
               1
     1  C   -0.362983
     2  C    0.128208
     3  C   -0.078095
     4  N   -0.245813
     5  C    0.121508
     6  C    0.032124
     7  C   -0.268065
     8  C   -0.181244
     9  C   -0.192070
    10  C   -0.182251
    11  C    0.014214
    12  O   -0.432085
    13  H    0.124177
    14  H    0.128333
    15  H    0.132388
    16  H    0.111442
    17  H    0.118571
    18  H    0.115301
    19  H    0.113834
    20  H    0.100374
    21  H    0.111241
    22  H    0.105303
    23  H    0.099726
    24  H    0.077277
    25  H    0.308584
 Sum of Mulliken charges =  -0.00000
 Mulliken charges with hydrogens summed into heavy atoms:
               1
     1  C    0.021915
     2  C    0.128208
     3  C    0.033347
     4  N   -0.245813
     5  C    0.121508
     6  C    0.032124
     7  C   -0.149494
     8  C    0.047892
     9  C    0.019544
    10  C    0.022778
    11  C    0.091491
    12  O   -0.123500
 Electronic spatial extent (au):  <R**2>=           2194.9329
 Charge=              0.0000 electrons
 Dipole moment (field-independent basis, Debye):
    X=              0.4643    Y=              2.7053    Z=             -0.6269  Tot=              2.8155
 Quadrupole moment (field-independent basis, Debye-Ang):
   XX=            -57.9104   YY=            -73.0572   ZZ=            -73.7144
   XY=             -2.1161   XZ=             -2.2878   YZ=              2.1598
 Traceless Quadrupole moment (field-independent basis, Debye-Ang):
   XX=             10.3169   YY=             -4.8299   ZZ=             -5.4870
   XY=             -2.1161   XZ=             -2.2878   YZ=              2.1598
 Octapole moment (field-independent basis, Debye-Ang**2):
  XXX=             14.2998  YYY=              2.8136  ZZZ=              1.7609  XYY=              7.3654
  XXY=            -20.3821  XXZ=             -2.7822  XZZ=              4.5053  YZZ=             -0.0863
  YYZ=             -1.9385  XYZ=              3.5850
 Hexadecapole moment (field-independent basis, Debye-Ang**3):
 XXXX=          -1880.2843 YYYY=           -790.5172 ZZZZ=           -139.3907 XXXY=            -65.7831
 XXXZ=             -3.5450 YYYX=            -40.3778 YYYZ=              0.9464 ZZZX=             -1.6583
 ZZZY=             -0.1181 XXYY=           -404.4361 XXZZ=           -366.7741 YYZZ=           -161.2302
 XXYZ=              9.8251 YYXZ=             -1.3413 ZZXY=             -4.9780
 N-N= 6.982632034860D+02 E-N=-2.604159131313D+03  KE= 5.160981240223D+02
 Breneman (CHELPG) radii used.
 Read replacement radii for each type of atom:
 Atom Element Radius
    1     6    1.50
    2     6    1.50
    3     6    1.50
    4     7    1.70
    5     6    1.50
    6     6    1.50
    7     6    1.50
    8     6    1.50
    9     6    1.50
   10     6    1.50
   11     6    1.50
   12     8    1.70
   13     1    1.45
   14     1    1.45
   15     1    1.45
   16     1    1.45
   17     1    1.45
   18     1    1.45
   19     1    1.45
   20     1    1.45
   21     1    1.45
   22     1    1.45
   23     1    1.45
   24     1    1.45
   25     1    1.45
 Generate Potential Derived Charges using the Breneman model, NDens= 1.
 Grid spacing= 0.300 Box extension= 2.800
 NStep X,Y,Z=   47     38     28   Total possible points=       50008
 Number of Points to Fit=   15084

 **********************************************************************

            Electrostatic Properties Using The SCF Density.

 **********************************************************************

       Atomic Center    1 is at  -3.903011  0.260239  0.110759
       Atomic Center    2 is at  -2.420121  0.027679  0.016409
       Atomic Center    3 is at  -1.884911 -1.248241 -0.194311
       Atomic Center    4 is at  -0.587431 -1.503031 -0.275021
       Atomic Center    5 is at   0.282519 -0.504721 -0.137291
       Atomic Center    6 is at  -0.127981  0.826109  0.053839
       Atomic Center    7 is at  -1.500401  1.068649  0.129669
       Atomic Center    8 is at   0.864059  1.960129  0.180529
       Atomic Center    9 is at   2.235519  1.595378 -0.379761
       Atomic Center   10 is at   2.679559  0.251948  0.183889
       Atomic Center   11 is at   1.752849 -0.881381 -0.257411
       Atomic Center   12 is at   1.979049 -2.047352  0.491899
       Atomic Center   13 is at  -4.466261 -0.649861 -0.139161
       Atomic Center   14 is at  -4.227001  1.058909 -0.573631
       Atomic Center   15 is at  -4.191871  0.563349  1.129479
       Atomic Center   16 is at  -2.558951 -2.106161 -0.312511
       Atomic Center   17 is at  -1.854641  2.094509  0.277429
       Atomic Center   18 is at   0.461719  2.857589 -0.315361
       Atomic Center   19 is at   0.968079  2.221679  1.248819
       Atomic Center   20 is at   2.185469  1.539258 -1.481411
       Atomic Center   21 is at   2.966329  2.381628 -0.137891
       Atomic Center   22 is at   2.664639  0.281728  1.286799
       Atomic Center   23 is at   3.713459  0.015528 -0.116011
       Atomic Center   24 is at   1.925259 -1.079671 -1.336651
       Atomic Center   25 is at   2.824919 -2.413182  0.222169
   15084 points will be used for fitting atomic charges
 Fitting point charges to electrostatic potential
 Charges from ESP fit, RMS=   0.00300 RRMS=   0.18750:
 ESP charges:
               1
     1  C   -0.246587
     2  C    0.003490
     3  C    0.204349
     4  N   -0.568792
     5  C    0.422697
     6  C   -0.149599
     7  C   -0.092297
     8  C   -0.033355
     9  C   -0.033235
    10  C   -0.053139
    11  C    0.261942
    12  O   -0.628848
    13  H    0.070843
    14  H    0.076982
    15  H    0.086436
    16  H    0.062287
    17  H    0.110967
    18  H    0.032637
    19  H    0.044064
    20  H    0.002346
    21  H    0.027804
    22  H    0.021159
    23  H    0.012982
    24  H   -0.026374
    25  H    0.391240
 Sum of ESP charges =   0.00000
 ESP charges with hydrogens summed into heavy atoms:
               1
     1  C   -0.012326
     2  C    0.003490
     3  C    0.266637
     4  N   -0.568792
     5  C    0.422697
     6  C   -0.149599
     7  C    0.018670
     8  C    0.043346
     9  C   -0.003086
    10  C   -0.018998
    11  C    0.235568
    12  O   -0.237608
 Charge=   0.00000 Dipole=     0.4041     2.6990    -0.6161 Tot=     2.7977
 -----------------------------------------------------------------

              Electrostatic Properties (Atomic Units)

 -----------------------------------------------------------------
    Center     Electric         -------- Electric Field --------
               Potential          X             Y             Z
 -----------------------------------------------------------------
    1 Atom    -14.765993
    2 Atom    -14.759576
    3 Atom    -14.750268
    4 Atom    -18.413688
    5 Atom    -14.742699
    6 Atom    -14.759308
    7 Atom    -14.764086
    8 Atom    -14.760142
    9 Atom    -14.764290
   10 Atom    -14.772959
   11 Atom    -14.717285
   12 Atom    -22.368989
   13 Atom     -1.112659
   14 Atom     -1.110915
   15 Atom     -1.110842
   16 Atom     -1.117286
   17 Atom     -1.098931
   18 Atom     -1.116105
   19 Atom     -1.115788
   20 Atom     -1.122405
   21 Atom     -1.121664
   22 Atom     -1.125623
   23 Atom     -1.122016
   24 Atom     -1.125220
   25 Atom     -1.013452
 -----------------------------------------------------------------
 Unable to Open any file for archive entry.
 1\1\GINC-NOTCH425\SP\RwB97XD\def2TZVP\C10H13N1O1\U6053008\12-Jul-2024\
 0\\#N Guess=Read Geom=Check Integral(Ultrafine) Density Pop=(ChelpG,Re
 adRadii) NMR wB97XD def2TZVP\\12358222_5\\0,1\C,0,3.90301,0.26024,-0.1
 1076\C,0,2.42012,0.02768,-0.01641\C,0,1.88491,-1.24824,0.19431\N,0,0.5
 8743,-1.50303,0.27502\C,0,-0.28252,-0.50472,0.13729\C,0,0.12798,0.8261
 1,-0.05384\C,0,1.5004,1.06865,-0.12967\C,0,-0.86406,1.96013,-0.18053\C
 ,0,-2.23552,1.59538,0.37976\C,0,-2.67956,0.25195,-0.18389\C,0,-1.75285
 ,-0.88138,0.25741\O,0,-1.97905,-2.04735,-0.4919\H,0,4.46626,-0.64986,0
 .13916\H,0,4.227,1.05891,0.57363\H,0,4.19187,0.56335,-1.12948\H,0,2.55
 895,-2.10616,0.31251\H,0,1.85464,2.09451,-0.27743\H,0,-0.46172,2.85759
 ,0.31536\H,0,-0.96808,2.22168,-1.24882\H,0,-2.18547,1.53926,1.48141\H,
 0,-2.96633,2.38163,0.13789\H,0,-2.66464,0.28173,-1.2868\H,0,-3.71346,0
 .01553,0.11601\H,0,-1.92526,-1.07967,1.33665\H,0,-2.82492,-2.41318,-0.
 22217\\Version=ES64L-G16RevC.01\State=1-A\HF=-518.8939055\RMSD=2.603e-
 09\Dipole=-0.1826625,1.0643386,0.2466292\Quadrupole=7.6703871,-3.59092
 26,-4.0794645,1.5732988,-1.7008952,-1.6057735\PG=C01 [X(C10H13N1O1)]\\
 @
 The archive entry for this job was punched.


 QUANTUM MECHANICS IS BOHRING -- M.S. GORDON
 Job cpu time:       0 days  0 hours 32 minutes 48.6 seconds.
 Elapsed time:       0 days  0 hours  2 minutes 10.3 seconds.
 File lengths (MBytes):  RWF=    130 Int=      0 D2E=      0 Chk=     20 Scr=      2
 Normal termination of Gaussian 16 at Fri Jul 12 13:19:45 2024.
