 Entering Gaussian System, Link 0=g16
 Input=12356205_2.com
 Output=12356205_2.log
 Initial command:
 /uufs/chpc.utah.edu/sys/installdir/gaussian16/C01/AVX/g16/l1.exe "/scratch/general/vast/u6053008/1287153-notchpeak.peaks/Gau-1986680.inp" -scrdir="/scratch/general/vast/u6053008/1287153-notchpeak.peaks/"
 Entering Link 1 = /uufs/chpc.utah.edu/sys/installdir/gaussian16/C01/AVX/g16/l1.exe PID=   1986682.
  
 Copyright (c) 1988-2019, Gaussian, Inc.  All Rights Reserved.
  
 This is part of the Gaussian(R) 16 program.  It is based on
 the Gaussian(R) 09 system (copyright 2009, Gaussian, Inc.),
 the Gaussian(R) 03 system (copyright 2003, Gaussian, Inc.),
 the Gaussian(R) 98 system (copyright 1998, Gaussian, Inc.),
 the Gaussian(R) 94 system (copyright 1995, Gaussian, Inc.),
 the Gaussian 92(TM) system (copyright 1992, Gaussian, Inc.),
 the Gaussian 90(TM) system (copyright 1990, Gaussian, Inc.),
 the Gaussian 88(TM) system (copyright 1988, Gaussian, Inc.),
 the Gaussian 86(TM) system (copyright 1986, Carnegie Mellon
 University), and the Gaussian 82(TM) system (copyright 1983,
 Carnegie Mellon University). Gaussian is a federally registered
 trademark of Gaussian, Inc.
  
 This software contains proprietary and confidential information,
 including trade secrets, belonging to Gaussian, Inc.
  
 This software is provided under written license and may be
 used, copied, transmitted, or stored only in accord with that
 written license.
  
 The following legend is applicable only to US Government
 contracts under FAR:
  
                    RESTRICTED RIGHTS LEGEND
  
 Use, reproduction and disclosure by the US Government is
 subject to restrictions as set forth in subparagraphs (a)
 and (c) of the Commercial Computer Software - Restricted
 Rights clause in FAR 52.227-19.
  
 Gaussian, Inc.
 340 Quinnipiac St., Bldg. 40, Wallingford CT 06492
  
  
 ---------------------------------------------------------------
 Warning -- This program may not be used in any manner that
 competes with the business of Gaussian, Inc. or will provide
 assistance to any competitor of Gaussian, Inc.  The licensee
 of this program is prohibited from giving any competitor of
 Gaussian, Inc. access to this program.  By using this program,
 the user acknowledges that Gaussian, Inc. is engaged in the
 business of creating and licensing software in the field of
 computational chemistry and represents and warrants to the
 licensee that it is not a competitor of Gaussian, Inc. and that
 it will not use this program in any manner prohibited above.
 ---------------------------------------------------------------
  

 Cite this work as:
 Gaussian 16, Revision C.01,
 M. J. Frisch, G. W. Trucks, H. B. Schlegel, G. E. Scuseria, 
 M. A. Robb, J. R. Cheeseman, G. Scalmani, V. Barone, 
 G. A. Petersson, H. Nakatsuji, X. Li, M. Caricato, A. V. Marenich, 
 J. Bloino, B. G. Janesko, R. Gomperts, B. Mennucci, H. P. Hratchian, 
 J. V. Ortiz, A. F. Izmaylov, J. L. Sonnenberg, D. Williams-Young, 
 F. Ding, F. Lipparini, F. Egidi, J. Goings, B. Peng, A. Petrone, 
 T. Henderson, D. Ranasinghe, V. G. Zakrzewski, J. Gao, N. Rega, 
 G. Zheng, W. Liang, M. Hada, M. Ehara, K. Toyota, R. Fukuda, 
 J. Hasegawa, M. Ishida, T. Nakajima, Y. Honda, O. Kitao, H. Nakai, 
 T. Vreven, K. Throssell, J. A. Montgomery, Jr., J. E. Peralta, 
 F. Ogliaro, M. J. Bearpark, J. J. Heyd, E. N. Brothers, K. N. Kudin, 
 V. N. Staroverov, T. A. Keith, R. Kobayashi, J. Normand, 
 K. Raghavachari, A. P. Rendell, J. C. Burant, S. S. Iyengar, 
 J. Tomasi, M. Cossi, J. M. Millam, M. Klene, C. Adamo, R. Cammi, 
 J. W. Ochterski, R. L. Martin, K. Morokuma, O. Farkas, 
 J. B. Foresman, and D. J. Fox, Gaussian, Inc., Wallingford CT, 2019.
 
 ******************************************
 Gaussian 16:  ES64L-G16RevC.01  3-Jul-2019
                12-Jul-2024 
 ******************************************
 %NProcShared=16
 Will use up to   16 processors via shared memory.
 %Mem=32GB
 %chk=12356205_2.chk
 ------------------------------------------------------
 #N OPT FREQ=NORAMAN Integral(Ultrafine) wB97XD def2SVP
 ------------------------------------------------------
 1/18=20,19=15,26=4,38=1/1,3;
 2/9=110,12=2,17=6,18=5,40=1/2;
 3/5=43,7=101,11=2,25=1,30=1,71=1,74=-58,75=-5/1,2,3;
 4//1;
 5/5=2,38=5/2;
 6/7=2,8=2,9=2,10=2,28=1/1;
 7//1,2,3,16;
 1/18=20,19=15,26=4/3(2);
 2/9=110/2;
 99//99;
 2/9=110/2;
 3/5=43,7=101,11=2,25=1,30=1,71=1,74=-58,75=-5/1,2,3;
 4/5=5,16=3,69=1/1;
 5/5=2,38=5/2;
 7//1,2,3,16;
 1/18=20,19=15,26=4/3(-5);
 2/9=110/2;
 6/7=2,8=2,9=2,10=2,19=2,28=1/1;
 99/9=1/99;
 ----------
 12356205_2
 ----------
 Symbolic Z-matrix:
 Charge =  0 Multiplicity = 1
 C                     3.71991  -0.4707    0.00245 
 O                     2.42286   0.1028    0.00276 
 C                     1.39803  -0.75228  -0.00091 
 O                     1.55256  -1.94835  -0.00389 
 C                     0.05285  -0.09496  -0.00052 
 C                    -1.03374  -0.97277   0.00002 
 C                    -2.34111  -0.49428   0.00071 
 C                    -3.52909  -1.41587   0.00113 
 C                    -2.47644   0.89572   0.00076 
 N                    -1.45883   1.74869  -0.00015 
 C                    -0.20213   1.29674  -0.00084 
 C                     0.8596    2.36376  -0.00207 
 H                     4.42402   0.36861   0.00547 
 H                     3.87148  -1.09284  -0.89111 
 H                     3.86973  -1.09778   0.89283 
 H                    -0.82408  -2.04534  -0.00009 
 H                    -4.47203  -0.85138   0.00435 
 H                    -3.52681  -2.06589  -0.88712 
 H                    -3.52311  -2.06998   0.88633 
 H                    -3.47844   1.34314   0.00152 
 H                     0.35865   3.33888  -0.00612 
 H                     1.51295   2.27912  -0.88119 
 H                     1.50866   2.28488   0.88082 
 

 GradGradGradGradGradGradGradGradGradGradGradGradGradGradGradGradGradGrad
 Berny optimization.
 Initialization pass.
                           ----------------------------
                           !    Initial Parameters    !
                           ! (Angstroms and Degrees)  !
 --------------------------                            --------------------------
 ! Name  Definition              Value          Derivative Info.                !
 --------------------------------------------------------------------------------
 ! R1    R(1,2)                  1.4182         estimate D2E/DX2                !
 ! R2    R(1,13)                 1.0955         estimate D2E/DX2                !
 ! R3    R(1,14)                 1.0993         estimate D2E/DX2                !
 ! R4    R(1,15)                 1.0993         estimate D2E/DX2                !
 ! R5    R(2,3)                  1.3347         estimate D2E/DX2                !
 ! R6    R(3,4)                  1.206          estimate D2E/DX2                !
 ! R7    R(3,5)                  1.4972         estimate D2E/DX2                !
 ! R8    R(5,6)                  1.3969         estimate D2E/DX2                !
 ! R9    R(5,11)                 1.4149         estimate D2E/DX2                !
 ! R10   R(6,7)                  1.3922         estimate D2E/DX2                !
 ! R11   R(6,16)                 1.0929         estimate D2E/DX2                !
 ! R12   R(7,8)                  1.5035         estimate D2E/DX2                !
 ! R13   R(7,9)                  1.3966         estimate D2E/DX2                !
 ! R14   R(8,17)                 1.099          estimate D2E/DX2                !
 ! R15   R(8,18)                 1.1007         estimate D2E/DX2                !
 ! R16   R(8,19)                 1.1007         estimate D2E/DX2                !
 ! R17   R(9,10)                 1.3278         estimate D2E/DX2                !
 ! R18   R(9,20)                 1.0974         estimate D2E/DX2                !
 ! R19   R(10,11)                1.3355         estimate D2E/DX2                !
 ! R20   R(11,12)                1.5053         estimate D2E/DX2                !
 ! R21   R(12,21)                1.0963         estimate D2E/DX2                !
 ! R22   R(12,22)                1.0986         estimate D2E/DX2                !
 ! R23   R(12,23)                1.0986         estimate D2E/DX2                !
 ! A1    A(2,1,13)             106.1407         estimate D2E/DX2                !
 ! A2    A(2,1,14)             110.8019         estimate D2E/DX2                !
 ! A3    A(2,1,15)             110.8026         estimate D2E/DX2                !
 ! A4    A(13,1,14)            110.316          estimate D2E/DX2                !
 ! A5    A(13,1,15)            110.3158         estimate D2E/DX2                !
 ! A6    A(14,1,15)            108.4658         estimate D2E/DX2                !
 ! A7    A(1,2,3)              116.3065         estimate D2E/DX2                !
 ! A8    A(2,3,4)              122.4788         estimate D2E/DX2                !
 ! A9    A(2,3,5)              114.1171         estimate D2E/DX2                !
 ! A10   A(4,3,5)              123.404          estimate D2E/DX2                !
 ! A11   A(3,5,6)              115.0244         estimate D2E/DX2                !
 ! A12   A(3,5,11)             126.4247         estimate D2E/DX2                !
 ! A13   A(6,5,11)             118.551          estimate D2E/DX2                !
 ! A14   A(5,6,7)              120.9644         estimate D2E/DX2                !
 ! A15   A(5,6,16)             117.8729         estimate D2E/DX2                !
 ! A16   A(7,6,16)             121.1627         estimate D2E/DX2                !
 ! A17   A(6,7,8)              122.0947         estimate D2E/DX2                !
 ! A18   A(6,7,9)              115.6631         estimate D2E/DX2                !
 ! A19   A(8,7,9)              122.2422         estimate D2E/DX2                !
 ! A20   A(7,8,17)             111.2902         estimate D2E/DX2                !
 ! A21   A(7,8,18)             111.1075         estimate D2E/DX2                !
 ! A22   A(7,8,19)             111.1123         estimate D2E/DX2                !
 ! A23   A(17,8,18)            107.9072         estimate D2E/DX2                !
 ! A24   A(17,8,19)            107.9119         estimate D2E/DX2                !
 ! A25   A(18,8,19)            107.3402         estimate D2E/DX2                !
 ! A26   A(7,9,10)             124.4093         estimate D2E/DX2                !
 ! A27   A(7,9,20)             119.6228         estimate D2E/DX2                !
 ! A28   A(10,9,20)            115.9679         estimate D2E/DX2                !
 ! A29   A(9,10,11)            120.2497         estimate D2E/DX2                !
 ! A30   A(5,11,10)            120.1625         estimate D2E/DX2                !
 ! A31   A(5,11,12)            124.7601         estimate D2E/DX2                !
 ! A32   A(10,11,12)           115.0774         estimate D2E/DX2                !
 ! A33   A(11,12,21)           107.9514         estimate D2E/DX2                !
 ! A34   A(11,12,22)           111.4399         estimate D2E/DX2                !
 ! A35   A(11,12,23)           111.4174         estimate D2E/DX2                !
 ! A36   A(21,12,22)           109.7146         estimate D2E/DX2                !
 ! A37   A(21,12,23)           109.6818         estimate D2E/DX2                !
 ! A38   A(22,12,23)           106.6306         estimate D2E/DX2                !
 ! D1    D(13,1,2,3)           179.9861         estimate D2E/DX2                !
 ! D2    D(14,1,2,3)            60.2111         estimate D2E/DX2                !
 ! D3    D(15,1,2,3)           -60.2388         estimate D2E/DX2                !
 ! D4    D(1,2,3,4)              0.0243         estimate D2E/DX2                !
 ! D5    D(1,2,3,5)           -179.995          estimate D2E/DX2                !
 ! D6    D(2,3,5,6)           -179.8032         estimate D2E/DX2                !
 ! D7    D(2,3,5,11)             0.2064         estimate D2E/DX2                !
 ! D8    D(4,3,5,6)              0.1772         estimate D2E/DX2                !
 ! D9    D(4,3,5,11)          -179.8131         estimate D2E/DX2                !
 ! D10   D(3,5,6,7)            179.9863         estimate D2E/DX2                !
 ! D11   D(3,5,6,16)            -0.0121         estimate D2E/DX2                !
 ! D12   D(11,5,6,7)            -0.0225         estimate D2E/DX2                !
 ! D13   D(11,5,6,16)          179.9791         estimate D2E/DX2                !
 ! D14   D(3,5,11,10)         -179.9863         estimate D2E/DX2                !
 ! D15   D(3,5,11,12)            0.0199         estimate D2E/DX2                !
 ! D16   D(6,5,11,10)            0.0236         estimate D2E/DX2                !
 ! D17   D(6,5,11,12)         -179.9702         estimate D2E/DX2                !
 ! D18   D(5,6,7,8)            179.9923         estimate D2E/DX2                !
 ! D19   D(5,6,7,9)              0.0026         estimate D2E/DX2                !
 ! D20   D(16,6,7,8)            -0.0094         estimate D2E/DX2                !
 ! D21   D(16,6,7,9)          -179.9991         estimate D2E/DX2                !
 ! D22   D(6,7,8,17)           179.8495         estimate D2E/DX2                !
 ! D23   D(6,7,8,18)           -59.8751         estimate D2E/DX2                !
 ! D24   D(6,7,8,19)            59.565          estimate D2E/DX2                !
 ! D25   D(9,7,8,17)            -0.1614         estimate D2E/DX2                !
 ! D26   D(9,7,8,18)           120.1139         estimate D2E/DX2                !
 ! D27   D(9,7,8,19)          -120.4459         estimate D2E/DX2                !
 ! D28   D(6,7,9,10)             0.0185         estimate D2E/DX2                !
 ! D29   D(6,7,9,20)          -179.986          estimate D2E/DX2                !
 ! D30   D(8,7,9,10)          -179.9712         estimate D2E/DX2                !
 ! D31   D(8,7,9,20)             0.0243         estimate D2E/DX2                !
 ! D32   D(7,9,10,11)           -0.018          estimate D2E/DX2                !
 ! D33   D(20,9,10,11)         179.9864         estimate D2E/DX2                !
 ! D34   D(9,10,11,5)           -0.004          estimate D2E/DX2                !
 ! D35   D(9,10,11,12)         179.9904         estimate D2E/DX2                !
 ! D36   D(5,11,12,21)         179.7759         estimate D2E/DX2                !
 ! D37   D(5,11,12,22)          59.2328         estimate D2E/DX2                !
 ! D38   D(5,11,12,23)         -59.7351         estimate D2E/DX2                !
 ! D39   D(10,11,12,21)         -0.2181         estimate D2E/DX2                !
 ! D40   D(10,11,12,22)       -120.7612         estimate D2E/DX2                !
 ! D41   D(10,11,12,23)        120.2709         estimate D2E/DX2                !
 --------------------------------------------------------------------------------
 Trust Radius=3.00D-01 FncErr=1.00D-07 GrdErr=1.00D-06 EigMax=2.50D+02 EigMin=1.00D-04
 Number of steps in this run=    112 maximum allowed number of steps=    138.
 GradGradGradGradGradGradGradGradGradGradGradGradGradGradGradGradGradGrad

                          Input orientation:                          
 ---------------------------------------------------------------------
 Center     Atomic      Atomic             Coordinates (Angstroms)
 Number     Number       Type             X           Y           Z
 ---------------------------------------------------------------------
      1          6           0        3.719910   -0.470700    0.002450
      2          8           0        2.422860    0.102800    0.002760
      3          6           0        1.398030   -0.752280   -0.000910
      4          8           0        1.552560   -1.948350   -0.003890
      5          6           0        0.052850   -0.094960   -0.000520
      6          6           0       -1.033740   -0.972770    0.000020
      7          6           0       -2.341110   -0.494280    0.000710
      8          6           0       -3.529090   -1.415870    0.001130
      9          6           0       -2.476440    0.895720    0.000760
     10          7           0       -1.458830    1.748690   -0.000150
     11          6           0       -0.202130    1.296740   -0.000840
     12          6           0        0.859600    2.363760   -0.002070
     13          1           0        4.424020    0.368610    0.005470
     14          1           0        3.871480   -1.092840   -0.891110
     15          1           0        3.869730   -1.097780    0.892830
     16          1           0       -0.824080   -2.045340   -0.000090
     17          1           0       -4.472030   -0.851380    0.004350
     18          1           0       -3.526810   -2.065890   -0.887120
     19          1           0       -3.523110   -2.069980    0.886330
     20          1           0       -3.478440    1.343140    0.001520
     21          1           0        0.358650    3.338880   -0.006120
     22          1           0        1.512950    2.279120   -0.881190
     23          1           0        1.508660    2.284880    0.880820
 ---------------------------------------------------------------------
                    Distance matrix (angstroms):
                    1          2          3          4          5
     1  C    0.000000
     2  O    1.418182   0.000000
     3  C    2.338894   1.334710   0.000000
     4  O    2.623146   2.228157   1.206015   0.000000
     5  C    3.686261   2.378249   1.497190   2.384155   0.000000
     6  C    4.780091   3.620075   2.441746   2.764185   1.396864
     7  C    6.061066   4.801241   3.748031   4.156321   2.427036
     8  C    7.310359   6.142644   4.971606   5.109474   3.817735
     9  C    6.345223   4.963050   4.210395   4.931693   2.716387
    10  N    5.634274   4.216216   3.796907   4.768290   2.384161
    11  C    4.301889   2.883761   2.599807   3.689113   1.414865
    12  C    4.026855   2.748772   3.162217   4.367435   2.587692
    13  H    1.095546   2.018738   3.226926   3.689671   4.395687
    14  H    1.099309   2.080158   2.650734   2.626109   4.046091
    15  H    1.099296   2.080156   2.650932   2.626186   4.046269
    16  H    4.809090   3.893216   2.570949   2.378621   2.138455
    17  H    8.200781   6.960601   5.870899   6.123651   4.587672
    18  H    7.473347   6.394816   5.173489   5.156928   4.181458
    19  H    7.469958   6.391888   5.171184   5.154582   4.180275
    20  H    7.423359   6.030239   5.307613   6.012063   3.812892
    21  H    5.080457   3.838392   4.221129   5.420353   3.447434
    22  H    3.634969   2.519062   3.158716   4.317722   2.922966
    23  H    3.640657   2.523534   3.164495   4.324913   2.925710
                    6          7          8          9         10
     6  C    0.000000
     7  C    1.392182   0.000000
     8  C    2.534386   1.503537   0.000000
     9  C    2.360644   1.396572   2.539984   0.000000
    10  N    2.754459   2.410256   3.781589   1.327814   0.000000
    11  C    2.417075   2.789801   4.292659   2.309395   1.335498
    12  C    3.836297   4.291031   5.791909   3.644765   2.398631
    13  H    5.620185   6.819940   8.150849   6.920565   6.042564
    14  H    4.986954   6.304752   7.461158   6.711624   6.105760
    15  H    4.985655   6.303541   7.459145   6.711461   6.106829
    16  H    1.092869   2.169601   2.777285   3.373445   3.846761
    17  H    3.440435   2.160637   1.098997   2.652310   3.979919
    18  H    2.863097   2.159649   1.100690   3.265385   4.428801
    19  H    2.861185   2.159694   1.100670   3.267282   4.430501
    20  H    3.367492   2.160933   2.759475   1.097356   2.059927
    21  H    4.530906   4.688482   6.141842   3.742568   2.414948
    22  H    4.223381   4.829418   6.312971   4.313567   3.144688
    23  H    4.225150   4.828981   6.312553   4.311066   3.141593
                   11         12         13         14         15
    11  C    0.000000
    12  C    1.505259   0.000000
    13  H    4.718340   4.084822   0.000000
    14  H    4.805931   4.670107   1.801386   0.000000
    15  H    4.807537   4.673755   1.801373   1.783948   0.000000
    16  H    3.399459   4.719634   5.776655   4.873341   4.871040
    17  H    4.779800   6.226030   8.979314   8.394898   8.392560
    18  H    4.811057   6.296484   8.362966   7.462006   7.669046
    19  H    4.811526   6.297257   8.359397   7.667728   7.456494
    20  H    3.276639   4.456486   7.962324   7.794364   7.794108
    21  H    2.117744   1.096278   5.034866   5.723926   5.728852
    22  H    2.163697   1.098582   3.593124   4.114958   4.483861
    23  H    2.163457   1.098634   3.596895   4.486830   4.125189
                   16         17         18         19         20
    16  H    0.000000
    17  H    3.838372   0.000000
    18  H    2.844643   1.778537   0.000000
    19  H    2.840970   1.778574   1.773459   0.000000
    20  H    4.304350   2.408972   3.523281   3.526226   0.000000
    21  H    5.512596   6.394831   6.714499   6.717164   4.325078
    22  H    4.993896   6.812063   6.654196   6.884816   5.154533
    23  H    4.996847   6.809771   6.885548   6.654588   5.150845
                   21         22         23
    21  H    0.000000
    22  H    1.794783   0.000000
    23  H    1.794464   1.762025   0.000000
 Stoichiometry    C9H11NO2
 Framework group  C1[X(C9H11NO2)]
 Deg. of freedom    63
 Full point group                 C1      NOp   1
 Largest Abelian subgroup         C1      NOp   1
 Largest concise Abelian subgroup C1      NOp   1
                         Standard orientation:                         
 ---------------------------------------------------------------------
 Center     Atomic      Atomic             Coordinates (Angstroms)
 Number     Number       Type             X           Y           Z
 ---------------------------------------------------------------------
      1          6           0        3.719911   -0.470704    0.002450
      2          8           0        2.422862    0.102798    0.002760
      3          6           0        1.398031   -0.752281   -0.000910
      4          8           0        1.552560   -1.948352   -0.003890
      5          6           0        0.052852   -0.094960   -0.000520
      6          6           0       -1.033739   -0.972769    0.000020
      7          6           0       -2.341109   -0.494278    0.000710
      8          6           0       -3.529090   -1.415867    0.001130
      9          6           0       -2.476437    0.895722    0.000760
     10          7           0       -1.458827    1.748691   -0.000150
     11          6           0       -0.202127    1.296740   -0.000840
     12          6           0        0.859604    2.363759   -0.002070
     13          1           0        4.424022    0.368606    0.005470
     14          1           0        3.871481   -1.092844   -0.891110
     15          1           0        3.869731   -1.097784    0.892830
     16          1           0       -0.824080   -2.045339   -0.000090
     17          1           0       -4.472029   -0.851376    0.004350
     18          1           0       -3.526810   -2.065887   -0.887120
     19          1           0       -3.523110   -2.069977    0.886330
     20          1           0       -3.478437    1.343143    0.001520
     21          1           0        0.358655    3.338880   -0.006120
     22          1           0        1.512954    2.279118   -0.881190
     23          1           0        1.508664    2.284878    0.880820
 ---------------------------------------------------------------------
 Rotational constants (GHZ):           1.7288028           0.6472319           0.4751352
 Standard basis: def2SVP (5D, 7F)
 There are   235 symmetry adapted cartesian basis functions of A   symmetry.
 There are   223 symmetry adapted basis functions of A   symmetry.
   223 basis functions,   377 primitive gaussians,   235 cartesian basis functions
    44 alpha electrons       44 beta electrons
       nuclear repulsion energy       686.0479161855 Hartrees.
 NAtoms=   23 NActive=   23 NUniq=   23 SFac= 1.00D+00 NAtFMM=   60 NAOKFM=F Big=F
 Integral buffers will be    131072 words long.
 Raffenetti 2 integral format.
 Two-electron integral symmetry is turned on.
 Nuclear repulsion after empirical dispersion term =      686.0357878204 Hartrees.
 One-electron integrals computed using PRISM.
   1 Symmetry operations used in ECPInt.
 ECPInt:  NShTT=    5565 NPrTT=   20089 LenC2=    5330 LenP2D=   14397.
 LDataN:  DoStor=T MaxTD1= 4 Len=   56
 NBasis=   223 RedAO= T EigKep=  5.85D-04  NBF=   223
 NBsUse=   223 1.00D-06 EigRej= -1.00D+00 NBFU=   223
 ExpMin= 1.22D-01 ExpMax= 2.27D+03 ExpMxC= 3.41D+02 IAcc=3 IRadAn=         5 AccDes= 0.00D+00
 Harris functional with IExCor= 4639 and IRadAn=       5 diagonalized for initial guess.
 HarFok:  IExCor= 4639 AccDes= 0.00D+00 IRadAn=         5 IDoV= 1 UseB2=F ITyADJ=14
 ICtDFT=  3500011 ScaDFX=  1.000000  1.000000  1.000000  1.000000
 FoFCou: FMM=F IPFlag=           0 FMFlag=      100000 FMFlg1=           0
         NFxFlg=           0 DoJE=T BraDBF=F KetDBF=T FulRan=T
         wScrn=  0.000000 ICntrl=       500 IOpCl=  0 I1Cent=   200000004 NGrid=           0
         NMat0=    1 NMatS0=      1 NMatT0=    0 NMatD0=    1 NMtDS0=    0 NMtDT0=    0
 Petite list used in FoFCou.
 Requested convergence on RMS density matrix=1.00D-08 within 128 cycles.
 Requested convergence on MAX density matrix=1.00D-06.
 Requested convergence on             energy=1.00D-06.
 No special actions if energy rises.
 Integral accuracy reduced to 1.0D-05 until final iterations.
 Initial convergence to 1.0D-05 achieved.  Increase integral accuracy.
 SCF Done:  E(RwB97XD) =  -554.216202817     A.U. after   15 cycles
            NFock= 15  Conv=0.71D-08     -V/T= 2.0101

 **********************************************************************

            Population analysis using the SCF Density.

 **********************************************************************

 Orbital symmetries:
       Occupied  (A) (A) (A) (A) (A) (A) (A) (A) (A) (A) (A) (A)
                 (A) (A) (A) (A) (A) (A) (A) (A) (A) (A) (A) (A)
                 (A) (A) (A) (A) (A) (A) (A) (A) (A) (A) (A) (A)
                 (A) (A) (A) (A) (A) (A) (A) (A)
       Virtual   (A) (A) (A) (A) (A) (A) (A) (A) (A) (A) (A) (A)
                 (A) (A) (A) (A) (A) (A) (A) (A) (A) (A) (A) (A)
                 (A) (A) (A) (A) (A) (A) (A) (A) (A) (A) (A) (A)
                 (A) (A) (A) (A) (A) (A) (A) (A) (A) (A) (A) (A)
                 (A) (A) (A) (A) (A) (A) (A) (A) (A) (A) (A) (A)
                 (A) (A) (A) (A) (A) (A) (A) (A) (A) (A) (A) (A)
                 (A) (A) (A) (A) (A) (A) (A) (A) (A) (A) (A) (A)
                 (A) (A) (A) (A) (A) (A) (A) (A) (A) (A) (A) (A)
                 (A) (A) (A) (A) (A) (A) (A) (A) (A) (A) (A) (A)
                 (A) (A) (A) (A) (A) (A) (A) (A) (A) (A) (A) (A)
                 (A) (A) (A) (A) (A) (A) (A) (A) (A) (A) (A) (A)
                 (A) (A) (A) (A) (A) (A) (A) (A) (A) (A) (A) (A)
                 (A) (A) (A) (A) (A) (A) (A) (A) (A) (A) (A) (A)
                 (A) (A) (A) (A) (A) (A) (A) (A) (A) (A) (A) (A)
                 (A) (A) (A) (A) (A) (A) (A) (A) (A) (A) (A)
 The electronic state is 1-A.
 Alpha  occ. eigenvalues --  -19.31043 -19.24572 -14.43773 -10.43352 -10.36007
 Alpha  occ. eigenvalues --  -10.35084 -10.33815 -10.32097 -10.32047 -10.31773
 Alpha  occ. eigenvalues --  -10.30747 -10.28889  -1.21240  -1.11365  -1.04438
 Alpha  occ. eigenvalues --   -0.91655  -0.89721  -0.83234  -0.82557  -0.76292
 Alpha  occ. eigenvalues --   -0.73588  -0.69699  -0.66338  -0.61922  -0.59595
 Alpha  occ. eigenvalues --   -0.58670  -0.58013  -0.55774  -0.52907  -0.51813
 Alpha  occ. eigenvalues --   -0.50726  -0.49889  -0.49747  -0.48950  -0.47676
 Alpha  occ. eigenvalues --   -0.46714  -0.45584  -0.45015  -0.43335  -0.39548
 Alpha  occ. eigenvalues --   -0.37401  -0.36646  -0.33466  -0.32999
 Alpha virt. eigenvalues --    0.01321   0.04537   0.12548   0.14692   0.14844
 Alpha virt. eigenvalues --    0.17832   0.18240   0.19027   0.19752   0.20795
 Alpha virt. eigenvalues --    0.21466   0.21738   0.22243   0.22803   0.23515
 Alpha virt. eigenvalues --    0.27338   0.28890   0.30228   0.32131   0.32845
 Alpha virt. eigenvalues --    0.34460   0.37043   0.38088   0.39992   0.43815
 Alpha virt. eigenvalues --    0.44208   0.47606   0.48727   0.50623   0.51228
 Alpha virt. eigenvalues --    0.52121   0.52646   0.52866   0.54499   0.57301
 Alpha virt. eigenvalues --    0.57981   0.58945   0.60238   0.62455   0.64281
 Alpha virt. eigenvalues --    0.64892   0.66572   0.68782   0.68980   0.69943
 Alpha virt. eigenvalues --    0.71696   0.72435   0.72756   0.72802   0.73439
 Alpha virt. eigenvalues --    0.74087   0.75508   0.75533   0.76046   0.76310
 Alpha virt. eigenvalues --    0.76511   0.77965   0.78688   0.80620   0.80884
 Alpha virt. eigenvalues --    0.81454   0.82886   0.83970   0.86078   0.87850
 Alpha virt. eigenvalues --    0.90618   0.92766   0.93979   0.99840   1.00135
 Alpha virt. eigenvalues --    1.03722   1.07408   1.08580   1.12621   1.15942
 Alpha virt. eigenvalues --    1.18789   1.22002   1.23723   1.24553   1.27491
 Alpha virt. eigenvalues --    1.28697   1.32996   1.33324   1.34799   1.36396
 Alpha virt. eigenvalues --    1.36976   1.41200   1.42425   1.44675   1.50779
 Alpha virt. eigenvalues --    1.53015   1.56539   1.57356   1.58963   1.61136
 Alpha virt. eigenvalues --    1.62589   1.63020   1.64193   1.66259   1.67523
 Alpha virt. eigenvalues --    1.67825   1.75918   1.76895   1.79455   1.80124
 Alpha virt. eigenvalues --    1.81088   1.81520   1.83768   1.85564   1.85615
 Alpha virt. eigenvalues --    1.86160   1.88488   1.89435   1.89906   1.90433
 Alpha virt. eigenvalues --    1.93003   1.94009   1.94341   1.97893   2.00390
 Alpha virt. eigenvalues --    2.03502   2.04859   2.05118   2.06635   2.07995
 Alpha virt. eigenvalues --    2.08452   2.13429   2.14928   2.15946   2.20989
 Alpha virt. eigenvalues --    2.21895   2.25308   2.31362   2.31574   2.34216
 Alpha virt. eigenvalues --    2.36188   2.38864   2.40155   2.42738   2.42848
 Alpha virt. eigenvalues --    2.46330   2.49028   2.49340   2.49443   2.52151
 Alpha virt. eigenvalues --    2.52306   2.58919   2.64599   2.65110   2.67756
 Alpha virt. eigenvalues --    2.71614   2.73916   2.74220   2.75529   2.79542
 Alpha virt. eigenvalues --    2.81002   2.81658   2.87040   2.88194   2.89284
 Alpha virt. eigenvalues --    2.97839   2.98002   2.98866   3.01004   3.02800
 Alpha virt. eigenvalues --    3.04590   3.05041   3.06665   3.09698   3.15145
 Alpha virt. eigenvalues --    3.17242   3.19010   3.27347   3.30451   3.42299
 Alpha virt. eigenvalues --    3.53783   3.63193   3.76718   3.78202
          Condensed to atoms (all electrons):
               1          2          3          4          5          6
     1  C    4.406792   0.263328  -0.031696   0.002480   0.011993  -0.000250
     2  O    0.263328   7.944004   0.406701  -0.084201  -0.129009   0.003668
     3  C   -0.031696   0.406701   4.585776   0.735833   0.151496  -0.064843
     4  O    0.002480  -0.084201   0.735833   7.680537  -0.137458   0.012065
     5  C    0.011993  -0.129009   0.151496  -0.137458   5.629734   0.454095
     6  C   -0.000250   0.003668  -0.064843   0.012065   0.454095   4.936824
     7  C    0.000001   0.000022   0.020648   0.002026   0.006229   0.373288
     8  C   -0.000000  -0.000000  -0.000176  -0.000028   0.010065  -0.078059
     9  C    0.000001  -0.000001  -0.000288  -0.000017  -0.068543  -0.016457
    10  N    0.000002   0.000032   0.005260  -0.000014  -0.059039  -0.044564
    11  C   -0.000319  -0.000298  -0.041635   0.001018   0.361319  -0.041218
    12  C    0.000086  -0.012846  -0.010106  -0.000035  -0.089172   0.002032
    13  H    0.398479  -0.023794   0.004889   0.000788   0.000081   0.000005
    14  H    0.406362  -0.025569  -0.004855   0.006835   0.000598   0.000022
    15  H    0.406368  -0.025549  -0.004859   0.006838   0.000580   0.000025
    16  H   -0.000062   0.000776  -0.017827   0.019984  -0.048471   0.438153
    17  H    0.000000  -0.000000   0.000008  -0.000000  -0.000456   0.009446
    18  H    0.000000  -0.000000  -0.000010  -0.000003   0.000398  -0.006427
    19  H    0.000000  -0.000000  -0.000010  -0.000003   0.000407  -0.006452
    20  H    0.000000  -0.000000   0.000074  -0.000000   0.001408   0.006464
    21  H   -0.000016   0.000861   0.000079   0.000005   0.013037  -0.000116
    22  H   -0.000083   0.006760   0.000753   0.000016  -0.007193   0.000182
    23  H   -0.000082   0.006701   0.000746   0.000016  -0.007052   0.000171
               7          8          9         10         11         12
     1  C    0.000001  -0.000000   0.000001   0.000002  -0.000319   0.000086
     2  O    0.000022  -0.000000  -0.000001   0.000032  -0.000298  -0.012846
     3  C    0.020648  -0.000176  -0.000288   0.005260  -0.041635  -0.010106
     4  O    0.002026  -0.000028  -0.000017  -0.000014   0.001018  -0.000035
     5  C    0.006229   0.010065  -0.068543  -0.059039   0.361319  -0.089172
     6  C    0.373288  -0.078059  -0.016457  -0.044564  -0.041218   0.002032
     7  C    5.198727   0.382620   0.445291  -0.043734  -0.065408   0.001204
     8  C    0.382620   4.549515  -0.054161   0.005441   0.000852   0.000060
     9  C    0.445291  -0.054161   4.753045   0.537420  -0.059702   0.005934
    10  N   -0.043734   0.005441   0.537420   6.245164   0.585116  -0.081081
    11  C   -0.065408   0.000852  -0.059702   0.585116   4.983044   0.417941
    12  C    0.001204   0.000060   0.005934  -0.081081   0.417941   4.571997
    13  H   -0.000001   0.000000   0.000000   0.000000   0.000062  -0.000080
    14  H    0.000000   0.000000   0.000000   0.000000  -0.000086   0.000045
    15  H    0.000000   0.000000   0.000000   0.000000  -0.000085   0.000043
    16  H   -0.062479  -0.009307   0.009041  -0.000301   0.011211  -0.000182
    17  H   -0.021362   0.390822  -0.007162   0.000233   0.000017  -0.000000
    18  H   -0.014602   0.389895   0.001273  -0.000149   0.000019  -0.000001
    19  H   -0.014644   0.389922   0.001330  -0.000150   0.000018  -0.000001
    20  H   -0.070202  -0.007159   0.424058  -0.034827   0.004456  -0.000227
    21  H    0.000220  -0.000006   0.000879   0.012420  -0.013375   0.357137
    22  H   -0.000007  -0.000001  -0.000217   0.002257  -0.003360   0.374964
    23  H   -0.000005  -0.000001  -0.000218   0.002205  -0.003418   0.374979
              13         14         15         16         17         18
     1  C    0.398479   0.406362   0.406368  -0.000062   0.000000   0.000000
     2  O   -0.023794  -0.025569  -0.025549   0.000776  -0.000000  -0.000000
     3  C    0.004889  -0.004855  -0.004859  -0.017827   0.000008  -0.000010
     4  O    0.000788   0.006835   0.006838   0.019984  -0.000000  -0.000003
     5  C    0.000081   0.000598   0.000580  -0.048471  -0.000456   0.000398
     6  C    0.000005   0.000022   0.000025   0.438153   0.009446  -0.006427
     7  C   -0.000001   0.000000   0.000000  -0.062479  -0.021362  -0.014602
     8  C    0.000000   0.000000   0.000000  -0.009307   0.390822   0.389895
     9  C    0.000000   0.000000   0.000000   0.009041  -0.007162   0.001273
    10  N    0.000000   0.000000   0.000000  -0.000301   0.000233  -0.000149
    11  C    0.000062  -0.000086  -0.000085   0.011211   0.000017   0.000019
    12  C   -0.000080   0.000045   0.000043  -0.000182  -0.000000  -0.000001
    13  H    0.613144  -0.023963  -0.023969  -0.000001  -0.000000   0.000000
    14  H   -0.023963   0.615453  -0.029148  -0.000009   0.000000  -0.000000
    15  H   -0.023969  -0.029148   0.615444  -0.000009   0.000000   0.000000
    16  H   -0.000001  -0.000009  -0.000009   0.619710  -0.000026   0.001735
    17  H   -0.000000   0.000000   0.000000  -0.000026   0.623161  -0.019737
    18  H    0.000000  -0.000000   0.000000   0.001735  -0.019737   0.609043
    19  H    0.000000   0.000000  -0.000000   0.001753  -0.019769  -0.019189
    20  H    0.000000  -0.000000  -0.000000  -0.000256   0.006399   0.000033
    21  H   -0.000023   0.000003   0.000003   0.000007  -0.000000   0.000000
    22  H    0.000021  -0.000189   0.000110   0.000002  -0.000000  -0.000000
    23  H    0.000022   0.000109  -0.000184   0.000002  -0.000000   0.000000
              19         20         21         22         23
     1  C    0.000000   0.000000  -0.000016  -0.000083  -0.000082
     2  O   -0.000000  -0.000000   0.000861   0.006760   0.006701
     3  C   -0.000010   0.000074   0.000079   0.000753   0.000746
     4  O   -0.000003  -0.000000   0.000005   0.000016   0.000016
     5  C    0.000407   0.001408   0.013037  -0.007193  -0.007052
     6  C   -0.006452   0.006464  -0.000116   0.000182   0.000171
     7  C   -0.014644  -0.070202   0.000220  -0.000007  -0.000005
     8  C    0.389922  -0.007159  -0.000006  -0.000001  -0.000001
     9  C    0.001330   0.424058   0.000879  -0.000217  -0.000218
    10  N   -0.000150  -0.034827   0.012420   0.002257   0.002205
    11  C    0.000018   0.004456  -0.013375  -0.003360  -0.003418
    12  C   -0.000001  -0.000227   0.357137   0.374964   0.374979
    13  H    0.000000   0.000000  -0.000023   0.000021   0.000022
    14  H    0.000000  -0.000000   0.000003  -0.000189   0.000109
    15  H   -0.000000  -0.000000   0.000003   0.000110  -0.000184
    16  H    0.001753  -0.000256   0.000007   0.000002   0.000002
    17  H   -0.019769   0.006399  -0.000000  -0.000000  -0.000000
    18  H   -0.019189   0.000033   0.000000  -0.000000   0.000000
    19  H    0.609156   0.000032   0.000000   0.000000  -0.000000
    20  H    0.000032   0.645111  -0.000214   0.000008   0.000009
    21  H    0.000000  -0.000214   0.616616  -0.015118  -0.015045
    22  H    0.000000   0.000008  -0.015118   0.615935  -0.019731
    23  H   -0.000000   0.000009  -0.015045  -0.019731   0.615685
 Mulliken charges:
               1
     1  C    0.136616
     2  O   -0.331584
     3  C    0.264042
     4  O   -0.246681
     5  C   -0.095047
     6  C    0.021945
     7  C   -0.137834
     8  C    0.029709
     9  C    0.028496
    10  N   -0.131693
    11  C   -0.136169
    12  C    0.087309
    13  H    0.054339
    14  H    0.054391
    15  H    0.054391
    16  H    0.036557
    17  H    0.038426
    18  H    0.057723
    19  H    0.057602
    20  H    0.024836
    21  H    0.042647
    22  H    0.044890
    23  H    0.045090
 Sum of Mulliken charges =  -0.00000
 Mulliken charges with hydrogens summed into heavy atoms:
               1
     1  C    0.299737
     2  O   -0.331584
     3  C    0.264042
     4  O   -0.246681
     5  C   -0.095047
     6  C    0.058502
     7  C   -0.137834
     8  C    0.183459
     9  C    0.053332
    10  N   -0.131693
    11  C   -0.136169
    12  C    0.219935
 Electronic spatial extent (au):  <R**2>=           2334.5512
 Charge=             -0.0000 electrons
 Dipole moment (field-independent basis, Debye):
    X=              0.5490    Y=             -0.3523    Z=              0.0055  Tot=              0.6523
 Quadrupole moment (field-independent basis, Debye-Ang):
   XX=            -54.9663   YY=            -77.0682   ZZ=            -70.4488
   XY=              6.6429   XZ=              0.0085   YZ=             -0.0175
 Traceless Quadrupole moment (field-independent basis, Debye-Ang):
   XX=             12.5282   YY=             -9.5738   ZZ=             -2.9543
   XY=              6.6429   XZ=              0.0085   YZ=             -0.0175
 Octapole moment (field-independent basis, Debye-Ang**2):
  XXX=             38.3656  YYY=             -4.8028  ZZZ=             -0.0057  XYY=              1.6980
  XXY=             -9.3007  XXZ=              0.0429  XZZ=             10.6926  YZZ=             -3.8093
  YYZ=              0.0468  XYZ=             -0.0337
 Hexadecapole moment (field-independent basis, Debye-Ang**3):
 XXXX=          -1843.5933 YYYY=           -877.6900 ZZZZ=            -88.6549 XXXY=            -25.4134
 XXXZ=              0.0853 YYYX=             43.8270 YYYZ=             -0.0620 ZZZX=              0.0186
 ZZZY=              0.0713 XXYY=           -503.0255 XXZZ=           -370.5155 YYZZ=           -151.6771
 XXYZ=              0.0072 YYXZ=              0.0926 ZZXY=             -2.5441
 N-N= 6.860357878204D+02 E-N=-2.661614978874D+03  KE= 5.486888120943D+02
   1 Symmetry operations used in ECPInt.
 ECPInt:  NShTT=    5565 NPrTT=   20089 LenC2=    5330 LenP2D=   14397.
 LDataN:  DoStor=T MaxTD1= 5 Len=  102
 Calling FoFJK, ICntrl=      2127 FMM=F ISym2X=0 I1Cent= 0 IOpClX= 0 NMat=1 NMatS=1 NMatT=0.
 ***** Axes restored to original set *****
 -------------------------------------------------------------------
 Center     Atomic                   Forces (Hartrees/Bohr)
 Number     Number              X              Y              Z
 -------------------------------------------------------------------
      1        6           0.000000783   -0.000005872   -0.000004813
      2        8          -0.000002080   -0.000004860   -0.000000041
      3        6          -0.000001628    0.000002091    0.000002363
      4        8           0.000000290    0.000000931    0.000000162
      5        6           0.000001637   -0.000002535    0.000000148
      6        6           0.000001692    0.000000406   -0.000001022
      7        6           0.000000670    0.000003820   -0.000000268
      8        6          -0.000002679    0.000002732    0.000001269
      9        6          -0.000001377   -0.000000734    0.000000331
     10        7           0.000007637   -0.000002038   -0.000000868
     11        6          -0.000003259    0.000003852    0.000000522
     12        6           0.000001792   -0.000005453   -0.000004496
     13        1           0.000000059   -0.000001760    0.000000248
     14        1          -0.000001034    0.000000877    0.000004915
     15        1          -0.000001203   -0.000001942    0.000002179
     16        1          -0.000001920    0.000002051    0.000001101
     17        1           0.000001450    0.000000921   -0.000001343
     18        1          -0.000001798    0.000001906    0.000001059
     19        1          -0.000001042    0.000002339   -0.000000160
     20        1          -0.000000290    0.000001605   -0.000001436
     21        1           0.000000831    0.000002572   -0.000000999
     22        1           0.000000252   -0.000000187    0.000000758
     23        1           0.000001217   -0.000000723    0.000000391
 -------------------------------------------------------------------
 Cartesian Forces:  Max     0.000007637 RMS     0.000002323

 GradGradGradGradGradGradGradGradGradGradGradGradGradGradGradGradGradGrad
 Berny optimization.
 FormGI is forming the generalized inverse of G from B-inverse, IUseBI=4.
 Internal  Forces:  Max     0.000005205 RMS     0.000001195
 Search for a local minimum.
 Step number   1 out of a maximum of  112
 All quantities printed in internal units (Hartrees-Bohrs-Radians)
 Mixed Optimization -- En-DIIS/RFO-DIIS
 Second derivative matrix not updated -- first step.
 ITU=  0
     Eigenvalues ---    0.00696   0.00719   0.00803   0.01379   0.01434
     Eigenvalues ---    0.01451   0.01559   0.01643   0.02025   0.02160
     Eigenvalues ---    0.02173   0.02298   0.02481   0.02555   0.07149
     Eigenvalues ---    0.07203   0.07210   0.07464   0.10226   0.10638
     Eigenvalues ---    0.16000   0.16000   0.16000   0.16000   0.16000
     Eigenvalues ---    0.16000   0.16000   0.16000   0.16000   0.16000
     Eigenvalues ---    0.16000   0.23284   0.23480   0.25000   0.25000
     Eigenvalues ---    0.25000   0.25000   0.25000   0.25000   0.25000
     Eigenvalues ---    0.31832   0.32009   0.32674   0.33606   0.33608
     Eigenvalues ---    0.33759   0.33760   0.33793   0.33834   0.33839
     Eigenvalues ---    0.33976   0.34097   0.34179   0.34483   0.41149
     Eigenvalues ---    0.42735   0.44175   0.45112   0.46474   0.56386
     Eigenvalues ---    0.58407   0.58627   1.01858
 RFO step:  Lambda= 0.00000000D+00 EMin= 6.96384865D-03
 Linear search not attempted -- first point.
 Iteration  1 RMS(Cart)=  0.00002009 RMS(Int)=  0.00000000
 Iteration  2 RMS(Cart)=  0.00000000 RMS(Int)=  0.00000000
 Variable       Old X    -DE/DX   Delta X   Delta X   Delta X     New X
                                 (Linear)    (Quad)   (Total)
    R1        2.67998  -0.00000   0.00000  -0.00000  -0.00000   2.67998
    R2        2.07028   0.00000   0.00000   0.00000   0.00000   2.07028
    R3        2.07739  -0.00001   0.00000  -0.00002  -0.00002   2.07738
    R4        2.07737   0.00000   0.00000   0.00000   0.00000   2.07737
    R5        2.52224  -0.00000   0.00000  -0.00001  -0.00001   2.52223
    R6        2.27904  -0.00000   0.00000  -0.00000  -0.00000   2.27904
    R7        2.82928  -0.00000   0.00000  -0.00001  -0.00001   2.82927
    R8        2.63969  -0.00000   0.00000  -0.00000  -0.00000   2.63969
    R9        2.67371   0.00000   0.00000   0.00000   0.00000   2.67371
   R10        2.63084   0.00000   0.00000   0.00000   0.00000   2.63084
   R11        2.06522  -0.00000   0.00000  -0.00001  -0.00001   2.06522
   R12        2.84127   0.00000   0.00000   0.00000   0.00000   2.84128
   R13        2.63914  -0.00000   0.00000  -0.00001  -0.00001   2.63913
   R14        2.07680  -0.00000   0.00000  -0.00001  -0.00001   2.07680
   R15        2.08000  -0.00000   0.00000  -0.00000  -0.00000   2.08000
   R16        2.07997  -0.00000   0.00000  -0.00000  -0.00000   2.07996
   R17        2.50920   0.00000   0.00000   0.00000   0.00000   2.50921
   R18        2.07370   0.00000   0.00000   0.00000   0.00000   2.07370
   R19        2.52372  -0.00001   0.00000  -0.00001  -0.00001   2.52372
   R20        2.84453  -0.00000   0.00000  -0.00001  -0.00001   2.84452
   R21        2.07167   0.00000   0.00000   0.00001   0.00001   2.07167
   R22        2.07602  -0.00000   0.00000  -0.00001  -0.00001   2.07601
   R23        2.07612   0.00000   0.00000   0.00000   0.00000   2.07612
    A1        1.85251  -0.00000   0.00000  -0.00001  -0.00001   1.85250
    A2        1.93386   0.00000   0.00000   0.00000   0.00000   1.93386
    A3        1.93387  -0.00000   0.00000  -0.00001  -0.00001   1.93386
    A4        1.92538   0.00000   0.00000  -0.00000  -0.00000   1.92538
    A5        1.92537   0.00000   0.00000   0.00000   0.00000   1.92538
    A6        1.89309   0.00000   0.00000   0.00001   0.00001   1.89309
    A7        2.02993   0.00000   0.00000   0.00000   0.00000   2.02993
    A8        2.13766  -0.00000   0.00000  -0.00001  -0.00001   2.13765
    A9        1.99172   0.00000   0.00000   0.00000   0.00000   1.99172
   A10        2.15381   0.00000   0.00000   0.00001   0.00001   2.15381
   A11        2.00755   0.00000   0.00000   0.00000   0.00000   2.00756
   A12        2.20653   0.00000   0.00000   0.00000   0.00000   2.20653
   A13        2.06911  -0.00000   0.00000  -0.00000  -0.00000   2.06910
   A14        2.11123   0.00000   0.00000   0.00000   0.00000   2.11123
   A15        2.05727   0.00000   0.00000   0.00000   0.00000   2.05727
   A16        2.11469  -0.00000   0.00000  -0.00000  -0.00000   2.11468
   A17        2.13095   0.00000   0.00000   0.00000   0.00000   2.13096
   A18        2.01870   0.00000   0.00000   0.00000   0.00000   2.01870
   A19        2.13353  -0.00000   0.00000  -0.00000  -0.00000   2.13352
   A20        1.94238   0.00000   0.00000   0.00000   0.00000   1.94238
   A21        1.93919   0.00000   0.00000   0.00000   0.00000   1.93919
   A22        1.93927  -0.00000   0.00000   0.00000   0.00000   1.93928
   A23        1.88334  -0.00000   0.00000  -0.00001  -0.00001   1.88333
   A24        1.88342   0.00000   0.00000   0.00000   0.00000   1.88342
   A25        1.87344  -0.00000   0.00000  -0.00000  -0.00000   1.87344
   A26        2.17135  -0.00000   0.00000  -0.00001  -0.00001   2.17134
   A27        2.08781   0.00000   0.00000  -0.00000  -0.00000   2.08781
   A28        2.02402   0.00000   0.00000   0.00001   0.00001   2.02403
   A29        2.09875   0.00000   0.00000   0.00001   0.00001   2.09876
   A30        2.09723   0.00000   0.00000   0.00000   0.00000   2.09723
   A31        2.17747  -0.00000   0.00000  -0.00000  -0.00000   2.17747
   A32        2.00848   0.00000   0.00000   0.00000   0.00000   2.00848
   A33        1.88411   0.00000   0.00000   0.00000   0.00000   1.88411
   A34        1.94499   0.00000   0.00000   0.00001   0.00001   1.94500
   A35        1.94460  -0.00000   0.00000  -0.00001  -0.00001   1.94459
   A36        1.91488  -0.00000   0.00000  -0.00000  -0.00000   1.91488
   A37        1.91431  -0.00000   0.00000  -0.00000  -0.00000   1.91430
   A38        1.86106   0.00000   0.00000   0.00000   0.00000   1.86106
    D1        3.14135   0.00000   0.00000  -0.00000  -0.00000   3.14135
    D2        1.05088   0.00000   0.00000   0.00000   0.00000   1.05088
    D3       -1.05137  -0.00000   0.00000  -0.00000  -0.00000  -1.05137
    D4        0.00042  -0.00000   0.00000  -0.00004  -0.00004   0.00038
    D5       -3.14151   0.00000   0.00000   0.00003   0.00003  -3.14148
    D6       -3.13816  -0.00000   0.00000  -0.00004  -0.00004  -3.13820
    D7        0.00360  -0.00000   0.00000  -0.00003  -0.00003   0.00357
    D8        0.00309   0.00000   0.00000   0.00003   0.00003   0.00312
    D9       -3.13833   0.00000   0.00000   0.00004   0.00004  -3.13830
   D10        3.14135  -0.00000   0.00000  -0.00000  -0.00000   3.14135
   D11       -0.00021   0.00000   0.00000   0.00001   0.00001  -0.00020
   D12       -0.00039  -0.00000   0.00000  -0.00001  -0.00001  -0.00040
   D13        3.14123   0.00000   0.00000   0.00001   0.00001   3.14123
   D14       -3.14135  -0.00000   0.00000  -0.00000  -0.00000  -3.14136
   D15        0.00035   0.00000   0.00000   0.00001   0.00001   0.00035
   D16        0.00041   0.00000   0.00000   0.00000   0.00000   0.00042
   D17       -3.14107   0.00000   0.00000   0.00001   0.00001  -3.14106
   D18        3.14146   0.00000   0.00000   0.00001   0.00001   3.14147
   D19        0.00004   0.00000   0.00000   0.00000   0.00000   0.00005
   D20       -0.00016  -0.00000   0.00000  -0.00001  -0.00001  -0.00017
   D21       -3.14158  -0.00000   0.00000  -0.00001  -0.00001  -3.14159
   D22        3.13897   0.00000   0.00000   0.00003   0.00003   3.13899
   D23       -1.04502  -0.00000   0.00000   0.00002   0.00002  -1.04500
   D24        1.03961  -0.00000   0.00000   0.00002   0.00002   1.03962
   D25       -0.00282   0.00000   0.00000   0.00003   0.00003  -0.00279
   D26        2.09638  -0.00000   0.00000   0.00002   0.00002   2.09641
   D27       -2.10218   0.00000   0.00000   0.00002   0.00002  -2.10215
   D28        0.00032   0.00000   0.00000   0.00000   0.00000   0.00032
   D29       -3.14135  -0.00000   0.00000  -0.00001  -0.00001  -3.14136
   D30       -3.14109  -0.00000   0.00000  -0.00000  -0.00000  -3.14109
   D31        0.00042  -0.00000   0.00000  -0.00002  -0.00002   0.00041
   D32       -0.00031  -0.00000   0.00000  -0.00000  -0.00000  -0.00032
   D33        3.14135   0.00000   0.00000   0.00001   0.00001   3.14137
   D34       -0.00007  -0.00000   0.00000   0.00000   0.00000  -0.00007
   D35        3.14142  -0.00000   0.00000  -0.00001  -0.00001   3.14142
   D36        3.13768   0.00000   0.00000   0.00002   0.00002   3.13770
   D37        1.03381   0.00000   0.00000   0.00002   0.00002   1.03382
   D38       -1.04257  -0.00000   0.00000   0.00001   0.00001  -1.04256
   D39       -0.00381   0.00000   0.00000   0.00003   0.00003  -0.00378
   D40       -2.10768   0.00000   0.00000   0.00002   0.00002  -2.10766
   D41        2.09912  -0.00000   0.00000   0.00002   0.00002   2.09914
         Item               Value     Threshold  Converged?
 Maximum Force            0.000005     0.000450     YES
 RMS     Force            0.000001     0.000300     YES
 Maximum Displacement     0.000087     0.001800     YES
 RMS     Displacement     0.000020     0.001200     YES
 Predicted change in Energy=-2.909159D-10
 Optimization completed.
    -- Stationary point found.
                           ----------------------------
                           !   Optimized Parameters   !
                           ! (Angstroms and Degrees)  !
 --------------------------                            --------------------------
 ! Name  Definition              Value          Derivative Info.                !
 --------------------------------------------------------------------------------
 ! R1    R(1,2)                  1.4182         -DE/DX =    0.0                 !
 ! R2    R(1,13)                 1.0955         -DE/DX =    0.0                 !
 ! R3    R(1,14)                 1.0993         -DE/DX =    0.0                 !
 ! R4    R(1,15)                 1.0993         -DE/DX =    0.0                 !
 ! R5    R(2,3)                  1.3347         -DE/DX =    0.0                 !
 ! R6    R(3,4)                  1.206          -DE/DX =    0.0                 !
 ! R7    R(3,5)                  1.4972         -DE/DX =    0.0                 !
 ! R8    R(5,6)                  1.3969         -DE/DX =    0.0                 !
 ! R9    R(5,11)                 1.4149         -DE/DX =    0.0                 !
 ! R10   R(6,7)                  1.3922         -DE/DX =    0.0                 !
 ! R11   R(6,16)                 1.0929         -DE/DX =    0.0                 !
 ! R12   R(7,8)                  1.5035         -DE/DX =    0.0                 !
 ! R13   R(7,9)                  1.3966         -DE/DX =    0.0                 !
 ! R14   R(8,17)                 1.099          -DE/DX =    0.0                 !
 ! R15   R(8,18)                 1.1007         -DE/DX =    0.0                 !
 ! R16   R(8,19)                 1.1007         -DE/DX =    0.0                 !
 ! R17   R(9,10)                 1.3278         -DE/DX =    0.0                 !
 ! R18   R(9,20)                 1.0974         -DE/DX =    0.0                 !
 ! R19   R(10,11)                1.3355         -DE/DX =    0.0                 !
 ! R20   R(11,12)                1.5053         -DE/DX =    0.0                 !
 ! R21   R(12,21)                1.0963         -DE/DX =    0.0                 !
 ! R22   R(12,22)                1.0986         -DE/DX =    0.0                 !
 ! R23   R(12,23)                1.0986         -DE/DX =    0.0                 !
 ! A1    A(2,1,13)             106.1407         -DE/DX =    0.0                 !
 ! A2    A(2,1,14)             110.8019         -DE/DX =    0.0                 !
 ! A3    A(2,1,15)             110.8026         -DE/DX =    0.0                 !
 ! A4    A(13,1,14)            110.316          -DE/DX =    0.0                 !
 ! A5    A(13,1,15)            110.3158         -DE/DX =    0.0                 !
 ! A6    A(14,1,15)            108.4658         -DE/DX =    0.0                 !
 ! A7    A(1,2,3)              116.3065         -DE/DX =    0.0                 !
 ! A8    A(2,3,4)              122.4788         -DE/DX =    0.0                 !
 ! A9    A(2,3,5)              114.1171         -DE/DX =    0.0                 !
 ! A10   A(4,3,5)              123.404          -DE/DX =    0.0                 !
 ! A11   A(3,5,6)              115.0244         -DE/DX =    0.0                 !
 ! A12   A(3,5,11)             126.4247         -DE/DX =    0.0                 !
 ! A13   A(6,5,11)             118.551          -DE/DX =    0.0                 !
 ! A14   A(5,6,7)              120.9644         -DE/DX =    0.0                 !
 ! A15   A(5,6,16)             117.8729         -DE/DX =    0.0                 !
 ! A16   A(7,6,16)             121.1627         -DE/DX =    0.0                 !
 ! A17   A(6,7,8)              122.0947         -DE/DX =    0.0                 !
 ! A18   A(6,7,9)              115.6631         -DE/DX =    0.0                 !
 ! A19   A(8,7,9)              122.2422         -DE/DX =    0.0                 !
 ! A20   A(7,8,17)             111.2902         -DE/DX =    0.0                 !
 ! A21   A(7,8,18)             111.1075         -DE/DX =    0.0                 !
 ! A22   A(7,8,19)             111.1123         -DE/DX =    0.0                 !
 ! A23   A(17,8,18)            107.9072         -DE/DX =    0.0                 !
 ! A24   A(17,8,19)            107.9119         -DE/DX =    0.0                 !
 ! A25   A(18,8,19)            107.3402         -DE/DX =    0.0                 !
 ! A26   A(7,9,10)             124.4093         -DE/DX =    0.0                 !
 ! A27   A(7,9,20)             119.6228         -DE/DX =    0.0                 !
 ! A28   A(10,9,20)            115.9679         -DE/DX =    0.0                 !
 ! A29   A(9,10,11)            120.2497         -DE/DX =    0.0                 !
 ! A30   A(5,11,10)            120.1625         -DE/DX =    0.0                 !
 ! A31   A(5,11,12)            124.7601         -DE/DX =    0.0                 !
 ! A32   A(10,11,12)           115.0774         -DE/DX =    0.0                 !
 ! A33   A(11,12,21)           107.9514         -DE/DX =    0.0                 !
 ! A34   A(11,12,22)           111.4399         -DE/DX =    0.0                 !
 ! A35   A(11,12,23)           111.4174         -DE/DX =    0.0                 !
 ! A36   A(21,12,22)           109.7146         -DE/DX =    0.0                 !
 ! A37   A(21,12,23)           109.6818         -DE/DX =    0.0                 !
 ! A38   A(22,12,23)           106.6306         -DE/DX =    0.0                 !
 ! D1    D(13,1,2,3)           179.9861         -DE/DX =    0.0                 !
 ! D2    D(14,1,2,3)            60.2111         -DE/DX =    0.0                 !
 ! D3    D(15,1,2,3)           -60.2388         -DE/DX =    0.0                 !
 ! D4    D(1,2,3,4)              0.0243         -DE/DX =    0.0                 !
 ! D5    D(1,2,3,5)           -179.995          -DE/DX =    0.0                 !
 ! D6    D(2,3,5,6)           -179.8032         -DE/DX =    0.0                 !
 ! D7    D(2,3,5,11)             0.2064         -DE/DX =    0.0                 !
 ! D8    D(4,3,5,6)              0.1772         -DE/DX =    0.0                 !
 ! D9    D(4,3,5,11)          -179.8131         -DE/DX =    0.0                 !
 ! D10   D(3,5,6,7)            179.9863         -DE/DX =    0.0                 !
 ! D11   D(3,5,6,16)            -0.0121         -DE/DX =    0.0                 !
 ! D12   D(11,5,6,7)            -0.0225         -DE/DX =    0.0                 !
 ! D13   D(11,5,6,16)          179.9791         -DE/DX =    0.0                 !
 ! D14   D(3,5,11,10)         -179.9863         -DE/DX =    0.0                 !
 ! D15   D(3,5,11,12)            0.0199         -DE/DX =    0.0                 !
 ! D16   D(6,5,11,10)            0.0236         -DE/DX =    0.0                 !
 ! D17   D(6,5,11,12)         -179.9702         -DE/DX =    0.0                 !
 ! D18   D(5,6,7,8)            179.9923         -DE/DX =    0.0                 !
 ! D19   D(5,6,7,9)              0.0026         -DE/DX =    0.0                 !
 ! D20   D(16,6,7,8)            -0.0094         -DE/DX =    0.0                 !
 ! D21   D(16,6,7,9)          -179.9991         -DE/DX =    0.0                 !
 ! D22   D(6,7,8,17)           179.8495         -DE/DX =    0.0                 !
 ! D23   D(6,7,8,18)           -59.8751         -DE/DX =    0.0                 !
 ! D24   D(6,7,8,19)            59.565          -DE/DX =    0.0                 !
 ! D25   D(9,7,8,17)            -0.1614         -DE/DX =    0.0                 !
 ! D26   D(9,7,8,18)           120.1139         -DE/DX =    0.0                 !
 ! D27   D(9,7,8,19)          -120.4459         -DE/DX =    0.0                 !
 ! D28   D(6,7,9,10)             0.0185         -DE/DX =    0.0                 !
 ! D29   D(6,7,9,20)          -179.986          -DE/DX =    0.0                 !
 ! D30   D(8,7,9,10)          -179.9712         -DE/DX =    0.0                 !
 ! D31   D(8,7,9,20)             0.0243         -DE/DX =    0.0                 !
 ! D32   D(7,9,10,11)           -0.018          -DE/DX =    0.0                 !
 ! D33   D(20,9,10,11)         179.9864         -DE/DX =    0.0                 !
 ! D34   D(9,10,11,5)           -0.004          -DE/DX =    0.0                 !
 ! D35   D(9,10,11,12)         179.9904         -DE/DX =    0.0                 !
 ! D36   D(5,11,12,21)         179.7759         -DE/DX =    0.0                 !
 ! D37   D(5,11,12,22)          59.2328         -DE/DX =    0.0                 !
 ! D38   D(5,11,12,23)         -59.7351         -DE/DX =    0.0                 !
 ! D39   D(10,11,12,21)         -0.2181         -DE/DX =    0.0                 !
 ! D40   D(10,11,12,22)       -120.7612         -DE/DX =    0.0                 !
 ! D41   D(10,11,12,23)        120.2709         -DE/DX =    0.0                 !
 --------------------------------------------------------------------------------
 GradGradGradGradGradGradGradGradGradGradGradGradGradGradGradGradGradGrad

                          Input orientation:                          
 ---------------------------------------------------------------------
 Center     Atomic      Atomic             Coordinates (Angstroms)
 Number     Number       Type             X           Y           Z
 ---------------------------------------------------------------------
      1          6           0        3.719910   -0.470700    0.002450
      2          8           0        2.422860    0.102800    0.002760
      3          6           0        1.398030   -0.752280   -0.000910
      4          8           0        1.552560   -1.948350   -0.003890
      5          6           0        0.052850   -0.094960   -0.000520
      6          6           0       -1.033740   -0.972770    0.000020
      7          6           0       -2.341110   -0.494280    0.000710
      8          6           0       -3.529090   -1.415870    0.001130
      9          6           0       -2.476440    0.895720    0.000760
     10          7           0       -1.458830    1.748690   -0.000150
     11          6           0       -0.202130    1.296740   -0.000840
     12          6           0        0.859600    2.363760   -0.002070
     13          1           0        4.424020    0.368610    0.005470
     14          1           0        3.871480   -1.092840   -0.891110
     15          1           0        3.869730   -1.097780    0.892830
     16          1           0       -0.824080   -2.045340   -0.000090
     17          1           0       -4.472030   -0.851380    0.004350
     18          1           0       -3.526810   -2.065890   -0.887120
     19          1           0       -3.523110   -2.069980    0.886330
     20          1           0       -3.478440    1.343140    0.001520
     21          1           0        0.358650    3.338880   -0.006120
     22          1           0        1.512950    2.279120   -0.881190
     23          1           0        1.508660    2.284880    0.880820
 ---------------------------------------------------------------------
                    Distance matrix (angstroms):
                    1          2          3          4          5
     1  C    0.000000
     2  O    1.418182   0.000000
     3  C    2.338894   1.334710   0.000000
     4  O    2.623146   2.228157   1.206015   0.000000
     5  C    3.686261   2.378249   1.497190   2.384155   0.000000
     6  C    4.780091   3.620075   2.441746   2.764185   1.396864
     7  C    6.061066   4.801241   3.748031   4.156321   2.427036
     8  C    7.310359   6.142644   4.971606   5.109474   3.817735
     9  C    6.345223   4.963050   4.210395   4.931693   2.716387
    10  N    5.634274   4.216216   3.796907   4.768290   2.384161
    11  C    4.301889   2.883761   2.599807   3.689113   1.414865
    12  C    4.026855   2.748772   3.162217   4.367435   2.587692
    13  H    1.095546   2.018738   3.226926   3.689671   4.395687
    14  H    1.099309   2.080158   2.650734   2.626109   4.046091
    15  H    1.099296   2.080156   2.650932   2.626186   4.046269
    16  H    4.809090   3.893216   2.570949   2.378621   2.138455
    17  H    8.200781   6.960601   5.870899   6.123651   4.587672
    18  H    7.473347   6.394816   5.173489   5.156928   4.181458
    19  H    7.469958   6.391888   5.171184   5.154582   4.180275
    20  H    7.423359   6.030239   5.307613   6.012063   3.812892
    21  H    5.080457   3.838392   4.221129   5.420353   3.447434
    22  H    3.634969   2.519062   3.158716   4.317722   2.922966
    23  H    3.640657   2.523534   3.164495   4.324913   2.925710
                    6          7          8          9         10
     6  C    0.000000
     7  C    1.392182   0.000000
     8  C    2.534386   1.503537   0.000000
     9  C    2.360644   1.396572   2.539984   0.000000
    10  N    2.754459   2.410256   3.781589   1.327814   0.000000
    11  C    2.417075   2.789801   4.292659   2.309395   1.335498
    12  C    3.836297   4.291031   5.791909   3.644765   2.398631
    13  H    5.620185   6.819940   8.150849   6.920565   6.042564
    14  H    4.986954   6.304752   7.461158   6.711624   6.105760
    15  H    4.985655   6.303541   7.459145   6.711461   6.106829
    16  H    1.092869   2.169601   2.777285   3.373445   3.846761
    17  H    3.440435   2.160637   1.098997   2.652310   3.979919
    18  H    2.863097   2.159649   1.100690   3.265385   4.428801
    19  H    2.861185   2.159694   1.100670   3.267282   4.430501
    20  H    3.367492   2.160933   2.759475   1.097356   2.059927
    21  H    4.530906   4.688482   6.141842   3.742568   2.414948
    22  H    4.223381   4.829418   6.312971   4.313567   3.144688
    23  H    4.225150   4.828981   6.312553   4.311066   3.141593
                   11         12         13         14         15
    11  C    0.000000
    12  C    1.505259   0.000000
    13  H    4.718340   4.084822   0.000000
    14  H    4.805931   4.670107   1.801386   0.000000
    15  H    4.807537   4.673755   1.801373   1.783948   0.000000
    16  H    3.399459   4.719634   5.776655   4.873341   4.871040
    17  H    4.779800   6.226030   8.979314   8.394898   8.392560
    18  H    4.811057   6.296484   8.362966   7.462006   7.669046
    19  H    4.811526   6.297257   8.359397   7.667728   7.456494
    20  H    3.276639   4.456486   7.962324   7.794364   7.794108
    21  H    2.117744   1.096278   5.034866   5.723926   5.728852
    22  H    2.163697   1.098582   3.593124   4.114958   4.483861
    23  H    2.163457   1.098634   3.596895   4.486830   4.125189
                   16         17         18         19         20
    16  H    0.000000
    17  H    3.838372   0.000000
    18  H    2.844643   1.778537   0.000000
    19  H    2.840970   1.778574   1.773459   0.000000
    20  H    4.304350   2.408972   3.523281   3.526226   0.000000
    21  H    5.512596   6.394831   6.714499   6.717164   4.325078
    22  H    4.993896   6.812063   6.654196   6.884816   5.154533
    23  H    4.996847   6.809771   6.885548   6.654588   5.150845
                   21         22         23
    21  H    0.000000
    22  H    1.794783   0.000000
    23  H    1.794464   1.762025   0.000000
 Stoichiometry    C9H11NO2
 Framework group  C1[X(C9H11NO2)]
 Deg. of freedom    63
 Full point group                 C1      NOp   1
 Largest Abelian subgroup         C1      NOp   1
 Largest concise Abelian subgroup C1      NOp   1
                         Standard orientation:                         
 ---------------------------------------------------------------------
 Center     Atomic      Atomic             Coordinates (Angstroms)
 Number     Number       Type             X           Y           Z
 ---------------------------------------------------------------------
      1          6           0        3.719911   -0.470704    0.002450
      2          8           0        2.422862    0.102798    0.002760
      3          6           0        1.398031   -0.752281   -0.000910
      4          8           0        1.552560   -1.948352   -0.003890
      5          6           0        0.052852   -0.094960   -0.000520
      6          6           0       -1.033739   -0.972769    0.000020
      7          6           0       -2.341109   -0.494278    0.000710
      8          6           0       -3.529090   -1.415867    0.001130
      9          6           0       -2.476437    0.895722    0.000760
     10          7           0       -1.458827    1.748691   -0.000150
     11          6           0       -0.202127    1.296740   -0.000840
     12          6           0        0.859604    2.363759   -0.002070
     13          1           0        4.424022    0.368606    0.005470
     14          1           0        3.871481   -1.092844   -0.891110
     15          1           0        3.869731   -1.097784    0.892830
     16          1           0       -0.824080   -2.045339   -0.000090
     17          1           0       -4.472029   -0.851376    0.004350
     18          1           0       -3.526810   -2.065887   -0.887120
     19          1           0       -3.523110   -2.069977    0.886330
     20          1           0       -3.478437    1.343143    0.001520
     21          1           0        0.358655    3.338880   -0.006120
     22          1           0        1.512954    2.279118   -0.881190
     23          1           0        1.508664    2.284878    0.880820
 ---------------------------------------------------------------------
 Rotational constants (GHZ):           1.7288028           0.6472319           0.4751352
 Unable to Open any file for archive entry.
 1\1\GINC-NOTCH340\FOpt\RwB97XD\def2SVP\C9H11N1O2\U6053008\12-Jul-2024\
 0\\#N OPT FREQ=NORAMAN Integral(Ultrafine) wB97XD def2SVP\\12356205_2\
 \0,1\C,3.71991,-0.4707,0.00245\O,2.42286,0.1028,0.00276\C,1.39803,-0.7
 5228,-0.00091\O,1.55256,-1.94835,-0.00389\C,0.05285,-0.09496,-0.00052\
 C,-1.03374,-0.97277,0.00002\C,-2.34111,-0.49428,0.00071\C,-3.52909,-1.
 41587,0.00113\C,-2.47644,0.89572,0.00076\N,-1.45883,1.74869,-0.00015\C
 ,-0.20213,1.29674,-0.00084\C,0.8596,2.36376,-0.00207\H,4.42402,0.36861
 ,0.00547\H,3.87148,-1.09284,-0.89111\H,3.86973,-1.09778,0.89283\H,-0.8
 2408,-2.04534,-0.00009\H,-4.47203,-0.85138,0.00435\H,-3.52681,-2.06589
 ,-0.88712\H,-3.52311,-2.06998,0.88633\H,-3.47844,1.34314,0.00152\H,0.3
 5865,3.33888,-0.00612\H,1.51295,2.27912,-0.88119\H,1.50866,2.28488,0.8
 8082\\Version=ES64L-G16RevC.01\State=1-A\HF=-554.2162028\RMSD=7.125e-0
 9\RMSF=2.323e-06\Dipole=0.2159796,-0.1385867,0.0021784\Quadrupole=9.31
 43655,-7.117888,-2.1964775,4.938829,0.0062826,-0.0130363\PG=C01 [X(C9H
 11N1O2)]\\@
 The archive entry for this job was punched.


 Cherishing children is the mark of a civilized society.
 -- Joan Ganz Cooney
 Job cpu time:       0 days  0 hours  9 minutes 25.5 seconds.
 Elapsed time:       0 days  0 hours  0 minutes 36.0 seconds.
 File lengths (MBytes):  RWF=     46 Int=      0 D2E=      0 Chk=      6 Scr=      2
 Normal termination of Gaussian 16 at Fri Jul 12 13:10:01 2024.
 Link1:  Proceeding to internal job step number  2.
 --------------------------------------------------------------------
 #N Geom=AllCheck Guess=TCheck SCRF=Check GenChk RwB97XD/def2SVP Freq
 --------------------------------------------------------------------
 1/10=4,29=7,30=1,38=1,40=1/1,3;
 2/12=2,40=1/2;
 3/5=43,7=101,11=2,14=-4,25=1,30=1,70=2,71=2,74=-58,75=-5,116=1,140=1/1,2,3;
 4/5=101/1;
 5/5=2,38=6,98=1/2;
 8/6=4,10=90,11=11/1;
 11/6=1,8=1,9=11,15=111,16=1/1,2,10;
 10/6=1/2;
 6/7=2,8=2,9=2,10=2,28=1/1;
 7/8=1,10=1,25=1/1,2,3,16;
 1/10=4,30=1/3;
 99//99;
 Structure from the checkpoint file:  "12356205_2.chk"
 ----------
 12356205_2
 ----------
 Charge =  0 Multiplicity = 1
 Redundant internal coordinates found in file.  (old form).
 C,0,3.71991,-0.4707,0.00245
 O,0,2.42286,0.1028,0.00276
 C,0,1.39803,-0.75228,-0.00091
 O,0,1.55256,-1.94835,-0.00389
 C,0,0.05285,-0.09496,-0.00052
 C,0,-1.03374,-0.97277,0.00002
 C,0,-2.34111,-0.49428,0.00071
 C,0,-3.52909,-1.41587,0.00113
 C,0,-2.47644,0.89572,0.00076
 N,0,-1.45883,1.74869,-0.00015
 C,0,-0.20213,1.29674,-0.00084
 C,0,0.8596,2.36376,-0.00207
 H,0,4.42402,0.36861,0.00547
 H,0,3.87148,-1.09284,-0.89111
 H,0,3.86973,-1.09778,0.89283
 H,0,-0.82408,-2.04534,-0.00009
 H,0,-4.47203,-0.85138,0.00435
 H,0,-3.52681,-2.06589,-0.88712
 H,0,-3.52311,-2.06998,0.88633
 H,0,-3.47844,1.34314,0.00152
 H,0,0.35865,3.33888,-0.00612
 H,0,1.51295,2.27912,-0.88119
 H,0,1.50866,2.28488,0.88082
 Recover connectivity data from disk.

 GradGradGradGradGradGradGradGradGradGradGradGradGradGradGradGradGradGrad
 Berny optimization.
 Initialization pass.
                           ----------------------------
                           !    Initial Parameters    !
                           ! (Angstroms and Degrees)  !
 --------------------------                            --------------------------
 ! Name  Definition              Value          Derivative Info.                !
 --------------------------------------------------------------------------------
 ! R1    R(1,2)                  1.4182         calculate D2E/DX2 analytically  !
 ! R2    R(1,13)                 1.0955         calculate D2E/DX2 analytically  !
 ! R3    R(1,14)                 1.0993         calculate D2E/DX2 analytically  !
 ! R4    R(1,15)                 1.0993         calculate D2E/DX2 analytically  !
 ! R5    R(2,3)                  1.3347         calculate D2E/DX2 analytically  !
 ! R6    R(3,4)                  1.206          calculate D2E/DX2 analytically  !
 ! R7    R(3,5)                  1.4972         calculate D2E/DX2 analytically  !
 ! R8    R(5,6)                  1.3969         calculate D2E/DX2 analytically  !
 ! R9    R(5,11)                 1.4149         calculate D2E/DX2 analytically  !
 ! R10   R(6,7)                  1.3922         calculate D2E/DX2 analytically  !
 ! R11   R(6,16)                 1.0929         calculate D2E/DX2 analytically  !
 ! R12   R(7,8)                  1.5035         calculate D2E/DX2 analytically  !
 ! R13   R(7,9)                  1.3966         calculate D2E/DX2 analytically  !
 ! R14   R(8,17)                 1.099          calculate D2E/DX2 analytically  !
 ! R15   R(8,18)                 1.1007         calculate D2E/DX2 analytically  !
 ! R16   R(8,19)                 1.1007         calculate D2E/DX2 analytically  !
 ! R17   R(9,10)                 1.3278         calculate D2E/DX2 analytically  !
 ! R18   R(9,20)                 1.0974         calculate D2E/DX2 analytically  !
 ! R19   R(10,11)                1.3355         calculate D2E/DX2 analytically  !
 ! R20   R(11,12)                1.5053         calculate D2E/DX2 analytically  !
 ! R21   R(12,21)                1.0963         calculate D2E/DX2 analytically  !
 ! R22   R(12,22)                1.0986         calculate D2E/DX2 analytically  !
 ! R23   R(12,23)                1.0986         calculate D2E/DX2 analytically  !
 ! A1    A(2,1,13)             106.1407         calculate D2E/DX2 analytically  !
 ! A2    A(2,1,14)             110.8019         calculate D2E/DX2 analytically  !
 ! A3    A(2,1,15)             110.8026         calculate D2E/DX2 analytically  !
 ! A4    A(13,1,14)            110.316          calculate D2E/DX2 analytically  !
 ! A5    A(13,1,15)            110.3158         calculate D2E/DX2 analytically  !
 ! A6    A(14,1,15)            108.4658         calculate D2E/DX2 analytically  !
 ! A7    A(1,2,3)              116.3065         calculate D2E/DX2 analytically  !
 ! A8    A(2,3,4)              122.4788         calculate D2E/DX2 analytically  !
 ! A9    A(2,3,5)              114.1171         calculate D2E/DX2 analytically  !
 ! A10   A(4,3,5)              123.404          calculate D2E/DX2 analytically  !
 ! A11   A(3,5,6)              115.0244         calculate D2E/DX2 analytically  !
 ! A12   A(3,5,11)             126.4247         calculate D2E/DX2 analytically  !
 ! A13   A(6,5,11)             118.551          calculate D2E/DX2 analytically  !
 ! A14   A(5,6,7)              120.9644         calculate D2E/DX2 analytically  !
 ! A15   A(5,6,16)             117.8729         calculate D2E/DX2 analytically  !
 ! A16   A(7,6,16)             121.1627         calculate D2E/DX2 analytically  !
 ! A17   A(6,7,8)              122.0947         calculate D2E/DX2 analytically  !
 ! A18   A(6,7,9)              115.6631         calculate D2E/DX2 analytically  !
 ! A19   A(8,7,9)              122.2422         calculate D2E/DX2 analytically  !
 ! A20   A(7,8,17)             111.2902         calculate D2E/DX2 analytically  !
 ! A21   A(7,8,18)             111.1075         calculate D2E/DX2 analytically  !
 ! A22   A(7,8,19)             111.1123         calculate D2E/DX2 analytically  !
 ! A23   A(17,8,18)            107.9072         calculate D2E/DX2 analytically  !
 ! A24   A(17,8,19)            107.9119         calculate D2E/DX2 analytically  !
 ! A25   A(18,8,19)            107.3402         calculate D2E/DX2 analytically  !
 ! A26   A(7,9,10)             124.4093         calculate D2E/DX2 analytically  !
 ! A27   A(7,9,20)             119.6228         calculate D2E/DX2 analytically  !
 ! A28   A(10,9,20)            115.9679         calculate D2E/DX2 analytically  !
 ! A29   A(9,10,11)            120.2497         calculate D2E/DX2 analytically  !
 ! A30   A(5,11,10)            120.1625         calculate D2E/DX2 analytically  !
 ! A31   A(5,11,12)            124.7601         calculate D2E/DX2 analytically  !
 ! A32   A(10,11,12)           115.0774         calculate D2E/DX2 analytically  !
 ! A33   A(11,12,21)           107.9514         calculate D2E/DX2 analytically  !
 ! A34   A(11,12,22)           111.4399         calculate D2E/DX2 analytically  !
 ! A35   A(11,12,23)           111.4174         calculate D2E/DX2 analytically  !
 ! A36   A(21,12,22)           109.7146         calculate D2E/DX2 analytically  !
 ! A37   A(21,12,23)           109.6818         calculate D2E/DX2 analytically  !
 ! A38   A(22,12,23)           106.6306         calculate D2E/DX2 analytically  !
 ! D1    D(13,1,2,3)           179.9861         calculate D2E/DX2 analytically  !
 ! D2    D(14,1,2,3)            60.2111         calculate D2E/DX2 analytically  !
 ! D3    D(15,1,2,3)           -60.2388         calculate D2E/DX2 analytically  !
 ! D4    D(1,2,3,4)              0.0243         calculate D2E/DX2 analytically  !
 ! D5    D(1,2,3,5)           -179.995          calculate D2E/DX2 analytically  !
 ! D6    D(2,3,5,6)           -179.8032         calculate D2E/DX2 analytically  !
 ! D7    D(2,3,5,11)             0.2064         calculate D2E/DX2 analytically  !
 ! D8    D(4,3,5,6)              0.1772         calculate D2E/DX2 analytically  !
 ! D9    D(4,3,5,11)          -179.8131         calculate D2E/DX2 analytically  !
 ! D10   D(3,5,6,7)            179.9863         calculate D2E/DX2 analytically  !
 ! D11   D(3,5,6,16)            -0.0121         calculate D2E/DX2 analytically  !
 ! D12   D(11,5,6,7)            -0.0225         calculate D2E/DX2 analytically  !
 ! D13   D(11,5,6,16)          179.9791         calculate D2E/DX2 analytically  !
 ! D14   D(3,5,11,10)         -179.9863         calculate D2E/DX2 analytically  !
 ! D15   D(3,5,11,12)            0.0199         calculate D2E/DX2 analytically  !
 ! D16   D(6,5,11,10)            0.0236         calculate D2E/DX2 analytically  !
 ! D17   D(6,5,11,12)         -179.9702         calculate D2E/DX2 analytically  !
 ! D18   D(5,6,7,8)            179.9923         calculate D2E/DX2 analytically  !
 ! D19   D(5,6,7,9)              0.0026         calculate D2E/DX2 analytically  !
 ! D20   D(16,6,7,8)            -0.0094         calculate D2E/DX2 analytically  !
 ! D21   D(16,6,7,9)          -179.9991         calculate D2E/DX2 analytically  !
 ! D22   D(6,7,8,17)           179.8495         calculate D2E/DX2 analytically  !
 ! D23   D(6,7,8,18)           -59.8751         calculate D2E/DX2 analytically  !
[...]
 Alpha virt. eigenvalues --    1.53517   1.55843   1.56185   1.58721   1.59047
 Alpha virt. eigenvalues --    1.59461   1.60498   1.60652   1.60873   1.60931
 Alpha virt. eigenvalues --    1.62654   1.62750   1.64808   1.65465   1.66264
 Alpha virt. eigenvalues --    1.67063   1.68236   1.70763   1.72321   1.72531
 Alpha virt. eigenvalues --    1.73000   1.74868   1.76839   1.77368   1.78849
 Alpha virt. eigenvalues --    1.80751   1.82176   1.82607   1.85466   1.86557
 Alpha virt. eigenvalues --    1.92173   1.93303   1.96366   2.00301   2.01118
 Alpha virt. eigenvalues --    2.01630   2.02700   2.02857   2.04031   2.05465
 Alpha virt. eigenvalues --    2.07738   2.09295   2.10339   2.10715   2.11459
 Alpha virt. eigenvalues --    2.12149   2.14888   2.16754   2.17872   2.19720
 Alpha virt. eigenvalues --    2.20438   2.22731   2.22746   2.25372   2.27116
 Alpha virt. eigenvalues --    2.30367   2.31634   2.32230   2.33114   2.36378
 Alpha virt. eigenvalues --    2.37691   2.39452   2.41334   2.42088   2.42430
 Alpha virt. eigenvalues --    2.44012   2.44114   2.46515   2.47853   2.47993
 Alpha virt. eigenvalues --    2.50656   2.51260   2.51631   2.54869   2.56650
 Alpha virt. eigenvalues --    2.57079   2.59370   2.60568   2.61489   2.61964
 Alpha virt. eigenvalues --    2.63121   2.63623   2.64722   2.66563   2.71545
 Alpha virt. eigenvalues --    2.74868   2.75420   2.75876   2.78072   2.79716
 Alpha virt. eigenvalues --    2.81484   2.82491   2.83891   2.84599   2.86906
 Alpha virt. eigenvalues --    2.87926   2.90167   2.90172   2.92243   2.93019
 Alpha virt. eigenvalues --    2.95105   2.95341   2.95874   3.00039   3.00253
 Alpha virt. eigenvalues --    3.03725   3.03837   3.04769   3.06988   3.07055
 Alpha virt. eigenvalues --    3.08915   3.09533   3.10967   3.11581   3.13879
 Alpha virt. eigenvalues --    3.14901   3.17641   3.17874   3.19394   3.20160
 Alpha virt. eigenvalues --    3.22543   3.23794   3.24793   3.27186   3.28305
 Alpha virt. eigenvalues --    3.28579   3.29402   3.29489   3.31509   3.31609
 Alpha virt. eigenvalues --    3.32848   3.34842   3.35092   3.35171   3.36444
 Alpha virt. eigenvalues --    3.36852   3.37423   3.40045   3.40113   3.41371
 Alpha virt. eigenvalues --    3.42242   3.42360   3.44005   3.44211   3.46589
 Alpha virt. eigenvalues --    3.46645   3.48792   3.49036   3.51193   3.51488
 Alpha virt. eigenvalues --    3.52703   3.55073   3.56641   3.59172   3.62346
 Alpha virt. eigenvalues --    3.62870   3.63121   3.64476   3.64919   3.66833
 Alpha virt. eigenvalues --    3.71281   3.75701   3.75725   3.78692   3.78986
 Alpha virt. eigenvalues --    3.79361   3.82550   3.83294   3.85469   3.85485
 Alpha virt. eigenvalues --    3.90605   3.91250   3.95576   3.96363   3.97421
 Alpha virt. eigenvalues --    4.00329   4.02239   4.07588   4.08407   4.12714
 Alpha virt. eigenvalues --    4.15409   4.19853   4.20537   4.23331   4.25018
 Alpha virt. eigenvalues --    4.25565   4.26341   4.27665   4.32022   4.34020
 Alpha virt. eigenvalues --    4.37718   4.38828   4.39813   4.44218   4.46134
 Alpha virt. eigenvalues --    4.47670   4.51174   4.52323   4.53227   4.53877
 Alpha virt. eigenvalues --    4.60214   4.62015   4.66655   4.68825   4.69262
 Alpha virt. eigenvalues --    4.69654   4.73702   4.80738   4.82663   4.90518
 Alpha virt. eigenvalues --    5.00485   5.01207   5.02879   5.04558   5.16350
 Alpha virt. eigenvalues --    5.16778   5.24943   5.25664   5.29343   5.32185
 Alpha virt. eigenvalues --    5.36425   5.36843   5.38259   5.40342   5.41208
 Alpha virt. eigenvalues --    5.50049   5.55919   5.59924   5.65176   5.75449
 Alpha virt. eigenvalues --    5.76922   5.77353   5.86805   5.91943   6.01654
 Alpha virt. eigenvalues --    6.07113   6.20340   6.23130   6.28173   6.41868
 Alpha virt. eigenvalues --    6.43939   6.53957   6.67192   6.74646   6.85453
 Alpha virt. eigenvalues --    6.85713   6.97544   7.05636   7.15313   7.24889
 Alpha virt. eigenvalues --    7.44034   7.53983  22.45025  22.48394  22.55684
 Alpha virt. eigenvalues --   22.63167  22.91725  23.05765  23.15143  23.34928
 Alpha virt. eigenvalues --   23.59987  32.66580  44.04293  44.30136
          Condensed to atoms (all electrons):
               1          2          3          4          5          6
     1  C    4.772268   0.220890  -0.044802   0.007826   0.009998  -0.001565
     2  O    0.220890   7.965987   0.402734  -0.084797  -0.125086   0.007454
     3  C   -0.044802   0.402734   4.491998   0.630815   0.277504  -0.099344
     4  O    0.007826  -0.084797   0.630815   7.906548  -0.148810   0.031158
     5  C    0.009998  -0.125086   0.277504  -0.148810   5.422556   0.369370
     6  C   -0.001565   0.007454  -0.099344   0.031158   0.369370   5.272547
     7  C    0.000032  -0.000070   0.006799   0.001273  -0.011224   0.393798
     8  C   -0.000001  -0.000009  -0.000955  -0.000390   0.013382  -0.082766
     9  C   -0.000019   0.000099   0.000498   0.000428  -0.037704  -0.028450
    10  N    0.000034   0.000129   0.004470  -0.000311  -0.047161  -0.075974
    11  C   -0.001124  -0.004514  -0.028559   0.002241   0.358881  -0.016940
    12  C   -0.001311  -0.013203  -0.016558   0.000279  -0.039266   0.005675
    13  H    0.396879  -0.035137   0.005804   0.001757   0.002686  -0.000043
    14  H    0.419303  -0.032637  -0.008937   0.004687  -0.002422  -0.000058
    15  H    0.419226  -0.032570  -0.008956   0.004686  -0.002454  -0.000050
    16  H   -0.000208   0.001022  -0.014999   0.022793  -0.038166   0.432395
    17  H    0.000000  -0.000000  -0.000009   0.000001  -0.000953   0.014949
    18  H   -0.000000   0.000000  -0.000013  -0.000002   0.000251  -0.007667
    19  H   -0.000000   0.000000  -0.000016  -0.000002   0.000280  -0.007684
    20  H    0.000000  -0.000001   0.000176  -0.000001  -0.002051   0.008960
    21  H   -0.000054   0.002005   0.000154   0.000024   0.006013   0.000104
    22  H    0.000015   0.001273  -0.004903  -0.000015   0.006675   0.000365
    23  H    0.000023   0.001309  -0.004862  -0.000014   0.006661   0.000302
               7          8          9         10         11         12
     1  C    0.000032  -0.000001  -0.000019   0.000034  -0.001124  -0.001311
     2  O   -0.000070  -0.000009   0.000099   0.000129  -0.004514  -0.013203
     3  C    0.006799  -0.000955   0.000498   0.004470  -0.028559  -0.016558
     4  O    0.001273  -0.000390   0.000428  -0.000311   0.002241   0.000279
     5  C   -0.011224   0.013382  -0.037704  -0.047161   0.358881  -0.039266
     6  C    0.393798  -0.082766  -0.028450  -0.075974  -0.016940   0.005675
     7  C    5.094266   0.270858   0.495704  -0.049615  -0.037023   0.000012
     8  C    0.270858   4.956252  -0.046654   0.009803  -0.000678   0.000063
     9  C    0.495704  -0.046654   4.762757   0.547046  -0.100395   0.003934
    10  N   -0.049615   0.009803   0.547046   6.444426   0.524122  -0.058213
    11  C   -0.037023  -0.000678  -0.100395   0.524122   5.035223   0.284828
    12  C    0.000012   0.000063   0.003934  -0.058213   0.284828   4.917598
    13  H    0.000000   0.000000  -0.000001   0.000002   0.000258  -0.000973
    14  H    0.000002  -0.000000  -0.000000   0.000001  -0.000196   0.000165
    15  H    0.000002  -0.000000  -0.000000   0.000001  -0.000188   0.000157
    16  H   -0.050640  -0.002779   0.004017  -0.001660   0.008979   0.000113
    17  H   -0.064261   0.425516  -0.002480   0.000204   0.000516   0.000001
    18  H   -0.032458   0.411212  -0.001926  -0.000244  -0.000004  -0.000003
    19  H   -0.032731   0.411537  -0.001862  -0.000245  -0.000003  -0.000003
    20  H   -0.091485  -0.004337   0.445774  -0.027932   0.004914  -0.000275
    21  H    0.000385  -0.000021   0.001489   0.011997  -0.071797   0.430143
    22  H    0.000140  -0.000004  -0.000452   0.000491  -0.036777   0.404246
    23  H    0.000152  -0.000004  -0.000461   0.000439  -0.036040   0.403409
              13         14         15         16         17         18
     1  C    0.396879   0.419303   0.419226  -0.000208   0.000000  -0.000000
     2  O   -0.035137  -0.032637  -0.032570   0.001022  -0.000000   0.000000
     3  C    0.005804  -0.008937  -0.008956  -0.014999  -0.000009  -0.000013
     4  O    0.001757   0.004687   0.004686   0.022793   0.000001  -0.000002
     5  C    0.002686  -0.002422  -0.002454  -0.038166  -0.000953   0.000251
     6  C   -0.000043  -0.000058  -0.000050   0.432395   0.014949  -0.007667
     7  C    0.000000   0.000002   0.000002  -0.050640  -0.064261  -0.032458
     8  C    0.000000  -0.000000  -0.000000  -0.002779   0.425516   0.411212
     9  C   -0.000001  -0.000000  -0.000000   0.004017  -0.002480  -0.001926
    10  N    0.000002   0.000001   0.000001  -0.001660   0.000204  -0.000244
    11  C    0.000258  -0.000196  -0.000188   0.008979   0.000516  -0.000004
    12  C   -0.000973   0.000165   0.000157   0.000113   0.000001  -0.000003
    13  H    0.545285  -0.024309  -0.024296  -0.000001  -0.000000  -0.000000
    14  H   -0.024309   0.544953  -0.035227  -0.000023   0.000000   0.000000
    15  H   -0.024296  -0.035227   0.544990  -0.000022   0.000000   0.000000
    16  H   -0.000001  -0.000023  -0.000022   0.473701   0.000157  -0.000103
    17  H   -0.000000   0.000000   0.000000   0.000157   0.541139  -0.020748
    18  H   -0.000000   0.000000   0.000000  -0.000103  -0.020748   0.546861
    19  H   -0.000000   0.000000   0.000000  -0.000107  -0.020776  -0.030524
    20  H    0.000000   0.000000   0.000000  -0.000139   0.003357  -0.000064
    21  H   -0.000051   0.000007   0.000007   0.000010   0.000000   0.000000
    22  H    0.000165  -0.000269   0.000143  -0.000003  -0.000000  -0.000001
    23  H    0.000162   0.000141  -0.000261  -0.000004  -0.000000   0.000001
              19         20         21         22         23
     1  C   -0.000000   0.000000  -0.000054   0.000015   0.000023
     2  O    0.000000  -0.000001   0.002005   0.001273   0.001309
     3  C   -0.000016   0.000176   0.000154  -0.004903  -0.004862
     4  O   -0.000002  -0.000001   0.000024  -0.000015  -0.000014
     5  C    0.000280  -0.002051   0.006013   0.006675   0.006661
     6  C   -0.007684   0.008960   0.000104   0.000365   0.000302
     7  C   -0.032731  -0.091485   0.000385   0.000140   0.000152
     8  C    0.411537  -0.004337  -0.000021  -0.000004  -0.000004
     9  C   -0.001862   0.445774   0.001489  -0.000452  -0.000461
    10  N   -0.000245  -0.027932   0.011997   0.000491   0.000439
    11  C   -0.000003   0.004914  -0.071797  -0.036777  -0.036040
    12  C   -0.000003  -0.000275   0.430143   0.404246   0.403409
    13  H   -0.000000   0.000000  -0.000051   0.000165   0.000162
    14  H    0.000000   0.000000   0.000007  -0.000269   0.000141
    15  H    0.000000   0.000000   0.000007   0.000143  -0.000261
    16  H   -0.000107  -0.000139   0.000010  -0.000003  -0.000004
    17  H   -0.020776   0.003357   0.000000  -0.000000  -0.000000
    18  H   -0.030524  -0.000064   0.000000  -0.000001   0.000001
    19  H    0.546809  -0.000066   0.000000   0.000001  -0.000001
    20  H   -0.000066   0.543523  -0.000315   0.000006   0.000006
    21  H    0.000000  -0.000315   0.521572  -0.019590  -0.019555
    22  H    0.000001   0.000006  -0.019590   0.556411  -0.028397
    23  H   -0.000001   0.000006  -0.019555  -0.028397   0.556575
 Mulliken charges:
               1
     1  C   -0.197412
     2  O   -0.274879
     3  C    0.411962
     4  O   -0.380174
     5  C   -0.018961
     6  C   -0.216537
     7  C    0.106083
     8  C   -0.360027
     9  C   -0.041341
    10  N   -0.281811
    11  C    0.114274
    12  C   -0.320821
    13  H    0.131812
    14  H    0.134819
    15  H    0.134814
    16  H    0.165668
    17  H    0.123387
    18  H    0.135431
    19  H    0.135391
    20  H    0.119951
    21  H    0.137472
    22  H    0.120478
    23  H    0.120418
 Sum of Mulliken charges =  -0.00000
 Mulliken charges with hydrogens summed into heavy atoms:
               1
     1  C    0.204034
     2  O   -0.274879
     3  C    0.411962
     4  O   -0.380174
     5  C   -0.018961
     6  C   -0.050868
     7  C    0.106083
     8  C    0.034182
     9  C    0.078610
    10  N   -0.281811
    11  C    0.114274
    12  C    0.057548
 Electronic spatial extent (au):  <R**2>=           2335.7330
 Charge=             -0.0000 electrons
 Dipole moment (field-independent basis, Debye):
    X=              0.3896    Y=             -0.1941    Z=              0.0056  Tot=              0.4353
 Quadrupole moment (field-independent basis, Debye-Ang):
   XX=            -55.5597   YY=            -77.6707   ZZ=            -70.8423
   XY=              7.0261   XZ=              0.0081   YZ=             -0.0191
 Traceless Quadrupole moment (field-independent basis, Debye-Ang):
   XX=             12.4645   YY=             -9.6465   ZZ=             -2.8180
   XY=              7.0261   XZ=              0.0081   YZ=             -0.0191
 Octapole moment (field-independent basis, Debye-Ang**2):
  XXX=             34.1829  YYY=             -3.9641  ZZZ=             -0.0057  XYY=              1.4065
  XXY=             -7.4616  XXZ=              0.0468  XZZ=             10.6500  YZZ=             -4.0128
  YYZ=              0.0463  XYZ=             -0.0336
 Hexadecapole moment (field-independent basis, Debye-Ang**3):
 XXXX=          -1869.7898 YYYY=           -894.0163 ZZZZ=            -92.5508 XXXY=            -24.2252
 XXXZ=              0.0672 YYYX=             46.0849 YYYZ=             -0.0878 ZZZX=              0.0205
 ZZZY=              0.0694 XXYY=           -511.1367 XXZZ=           -375.1791 YYZZ=           -155.2217
 XXYZ=              0.0095 YYXZ=              0.0963 ZZXY=             -1.4849
 N-N= 6.860357878204D+02 E-N=-2.666043807446D+03  KE= 5.520082837978D+02
 Breneman (CHELPG) radii used.
 Read replacement radii for each type of atom:
 Atom Element Radius
    1     6    1.50
    2     8    1.70
    3     6    1.50
    4     8    1.70
    5     6    1.50
    6     6    1.50
    7     6    1.50
    8     6    1.50
    9     6    1.50
   10     7    1.70
   11     6    1.50
   12     6    1.50
   13     1    1.45
   14     1    1.45
   15     1    1.45
   16     1    1.45
   17     1    1.45
   18     1    1.45
   19     1    1.45
   20     1    1.45
   21     1    1.45
   22     1    1.45
   23     1    1.45
 Generate Potential Derived Charges using the Breneman model, NDens= 1.
 Grid spacing= 0.300 Box extension= 2.800
 NStep X,Y,Z=   50     38     26   Total possible points=       49400
 Number of Points to Fit=   14888

 **********************************************************************

            Electrostatic Properties Using The SCF Density.

 **********************************************************************

       Atomic Center    1 is at   3.719911 -0.470704  0.002450
       Atomic Center    2 is at   2.422862  0.102798  0.002760
       Atomic Center    3 is at   1.398031 -0.752281 -0.000910
       Atomic Center    4 is at   1.552560 -1.948352 -0.003890
       Atomic Center    5 is at   0.052852 -0.094960 -0.000520
       Atomic Center    6 is at  -1.033739 -0.972769  0.000020
       Atomic Center    7 is at  -2.341109 -0.494278  0.000710
       Atomic Center    8 is at  -3.529090 -1.415867  0.001130
       Atomic Center    9 is at  -2.476437  0.895722  0.000760
       Atomic Center   10 is at  -1.458827  1.748691 -0.000150
       Atomic Center   11 is at  -0.202127  1.296740 -0.000840
       Atomic Center   12 is at   0.859604  2.363759 -0.002070
       Atomic Center   13 is at   4.424022  0.368606  0.005470
       Atomic Center   14 is at   3.871481 -1.092844 -0.891110
       Atomic Center   15 is at   3.869731 -1.097784  0.892830
       Atomic Center   16 is at  -0.824080 -2.045339 -0.000090
       Atomic Center   17 is at  -4.472029 -0.851376  0.004350
       Atomic Center   18 is at  -3.526810 -2.065887 -0.887120
       Atomic Center   19 is at  -3.523110 -2.069977  0.886330
       Atomic Center   20 is at  -3.478437  1.343143  0.001520
       Atomic Center   21 is at   0.358655  3.338880 -0.006120
       Atomic Center   22 is at   1.512954  2.279118 -0.881190
       Atomic Center   23 is at   1.508664  2.284878  0.880820
   14888 points will be used for fitting atomic charges
 Fitting point charges to electrostatic potential
 Charges from ESP fit, RMS=   0.00276 RRMS=   0.22908:
 ESP charges:
               1
     1  C   -0.093996
     2  O   -0.259158
     3  C    0.720738
     4  O   -0.534387
     5  C   -0.417827
     6  C    0.068554
     7  C   -0.030625
     8  C   -0.277363
     9  C    0.257740
    10  N   -0.611573
    11  C    0.540200
    12  C   -0.206078
    13  H    0.097585
    14  H    0.084713
    15  H    0.084781
    16  H    0.097777
    17  H    0.082274
    18  H    0.092222
    19  H    0.092496
    20  H    0.058228
    21  H    0.059954
    22  H    0.046998
    23  H    0.046746
 Sum of ESP charges =   0.00000
 ESP charges with hydrogens summed into heavy atoms:
               1
     1  C    0.173082
     2  O   -0.259158
     3  C    0.720738
     4  O   -0.534387
     5  C   -0.417827
     6  C    0.166331
     7  C   -0.030625
     8  C   -0.010370
     9  C    0.315968
    10  N   -0.611573
    11  C    0.540200
    12  C   -0.052380
 Charge=   0.00000 Dipole=     0.3567    -0.1786     0.0065 Tot=     0.3989
 -----------------------------------------------------------------

              Electrostatic Properties (Atomic Units)

 -----------------------------------------------------------------
    Center     Electric         -------- Electric Field --------
               Potential          X             Y             Z
 -----------------------------------------------------------------
    1 Atom    -14.708847
    2 Atom    -22.306041
    3 Atom    -14.637419
    4 Atom    -22.379587
    5 Atom    -14.745225
    6 Atom    -14.751520
    7 Atom    -14.750094
    8 Atom    -14.759825
    9 Atom    -14.733505
   10 Atom    -18.401335
   11 Atom    -14.716528
   12 Atom    -14.777613
   13 Atom     -1.097241
   14 Atom     -1.101082
   15 Atom     -1.101089
   16 Atom     -1.094302
   17 Atom     -1.106265
   18 Atom     -1.105214
   19 Atom     -1.105220
   20 Atom     -1.102575
   21 Atom     -1.125102
   22 Atom     -1.116130
   23 Atom     -1.116073
 -----------------------------------------------------------------
 Unable to Open any file for archive entry.
 1\1\GINC-NOTCH340\SP\RwB97XD\def2TZVP\C9H11N1O2\U6053008\12-Jul-2024\0
 \\#N Guess=Read Geom=Check Integral(Ultrafine) Density Pop=(ChelpG,Rea
 dRadii) NMR wB97XD def2TZVP\\12356205_2\\0,1\C,0,3.71991,-0.4707,0.002
 45\O,0,2.42286,0.1028,0.00276\C,0,1.39803,-0.75228,-0.00091\O,0,1.5525
 6,-1.94835,-0.00389\C,0,0.05285,-0.09496,-0.00052\C,0,-1.03374,-0.9727
 7,0.00002\C,0,-2.34111,-0.49428,0.00071\C,0,-3.52909,-1.41587,0.00113\
 C,0,-2.47644,0.89572,0.00076\N,0,-1.45883,1.74869,-0.00015\C,0,-0.2021
 3,1.29674,-0.00084\C,0,0.8596,2.36376,-0.00207\H,0,4.42402,0.36861,0.0
 0547\H,0,3.87148,-1.09284,-0.89111\H,0,3.86973,-1.09778,0.89283\H,0,-0
 .82408,-2.04534,-0.00009\H,0,-4.47203,-0.85138,0.00435\H,0,-3.52681,-2
 .06589,-0.88712\H,0,-3.52311,-2.06998,0.88633\H,0,-3.47844,1.34314,0.0
 0152\H,0,0.35865,3.33888,-0.00612\H,0,1.51295,2.27912,-0.88119\H,0,1.5
 0866,2.28488,0.88082\\Version=ES64L-G16RevC.01\State=1-A\HF=-554.82085
 98\RMSD=1.514e-09\Dipole=0.1532784,-0.0763681,0.0022062\Quadrupole=9.2
 670636,-7.1719154,-2.0951482,5.2237653,0.00604,-0.0141753\PG=C01 [X(C9
 H11N1O2)]\\@
 The archive entry for this job was punched.


 EDUCATION WITHOUT COMMON SENSE IS A LOAD OF BOOKS ON THE BACK OF AN ASS.
 Job cpu time:       0 days  0 hours 34 minutes 12.2 seconds.
 Elapsed time:       0 days  0 hours  2 minutes 16.7 seconds.
 File lengths (MBytes):  RWF=    125 Int=      0 D2E=      0 Chk=     18 Scr=      2
 Normal termination of Gaussian 16 at Fri Jul 12 13:23:06 2024.
