 Entering Gaussian System, Link 0=g16
 Input=12356206_1.com
 Output=12356206_1.log
 Initial command:
 /uufs/chpc.utah.edu/sys/installdir/gaussian16/C01/AVX/g16/l1.exe "/scratch/general/vast/u6053008/1287154-notchpeak.peaks/Gau-2896452.inp" -scrdir="/scratch/general/vast/u6053008/1287154-notchpeak.peaks/"
 Entering Link 1 = /uufs/chpc.utah.edu/sys/installdir/gaussian16/C01/AVX/g16/l1.exe PID=   2896453.
  
 Copyright (c) 1988-2019, Gaussian, Inc.  All Rights Reserved.
  
 This is part of the Gaussian(R) 16 program.  It is based on
 the Gaussian(R) 09 system (copyright 2009, Gaussian, Inc.),
 the Gaussian(R) 03 system (copyright 2003, Gaussian, Inc.),
 the Gaussian(R) 98 system (copyright 1998, Gaussian, Inc.),
 the Gaussian(R) 94 system (copyright 1995, Gaussian, Inc.),
 the Gaussian 92(TM) system (copyright 1992, Gaussian, Inc.),
 the Gaussian 90(TM) system (copyright 1990, Gaussian, Inc.),
 the Gaussian 88(TM) system (copyright 1988, Gaussian, Inc.),
 the Gaussian 86(TM) system (copyright 1986, Carnegie Mellon
 University), and the Gaussian 82(TM) system (copyright 1983,
 Carnegie Mellon University). Gaussian is a federally registered
 trademark of Gaussian, Inc.
  
 This software contains proprietary and confidential information,
 including trade secrets, belonging to Gaussian, Inc.
  
 This software is provided under written license and may be
 used, copied, transmitted, or stored only in accord with that
 written license.
  
 The following legend is applicable only to US Government
 contracts under FAR:
  
                    RESTRICTED RIGHTS LEGEND
  
 Use, reproduction and disclosure by the US Government is
 subject to restrictions as set forth in subparagraphs (a)
 and (c) of the Commercial Computer Software - Restricted
 Rights clause in FAR 52.227-19.
  
 Gaussian, Inc.
 340 Quinnipiac St., Bldg. 40, Wallingford CT 06492
  
  
 ---------------------------------------------------------------
 Warning -- This program may not be used in any manner that
 competes with the business of Gaussian, Inc. or will provide
 assistance to any competitor of Gaussian, Inc.  The licensee
 of this program is prohibited from giving any competitor of
 Gaussian, Inc. access to this program.  By using this program,
 the user acknowledges that Gaussian, Inc. is engaged in the
 business of creating and licensing software in the field of
 computational chemistry and represents and warrants to the
 licensee that it is not a competitor of Gaussian, Inc. and that
 it will not use this program in any manner prohibited above.
 ---------------------------------------------------------------
  

 Cite this work as:
 Gaussian 16, Revision C.01,
 M. J. Frisch, G. W. Trucks, H. B. Schlegel, G. E. Scuseria, 
 M. A. Robb, J. R. Cheeseman, G. Scalmani, V. Barone, 
 G. A. Petersson, H. Nakatsuji, X. Li, M. Caricato, A. V. Marenich, 
 J. Bloino, B. G. Janesko, R. Gomperts, B. Mennucci, H. P. Hratchian, 
 J. V. Ortiz, A. F. Izmaylov, J. L. Sonnenberg, D. Williams-Young, 
 F. Ding, F. Lipparini, F. Egidi, J. Goings, B. Peng, A. Petrone, 
 T. Henderson, D. Ranasinghe, V. G. Zakrzewski, J. Gao, N. Rega, 
 G. Zheng, W. Liang, M. Hada, M. Ehara, K. Toyota, R. Fukuda, 
 J. Hasegawa, M. Ishida, T. Nakajima, Y. Honda, O. Kitao, H. Nakai, 
 T. Vreven, K. Throssell, J. A. Montgomery, Jr., J. E. Peralta, 
 F. Ogliaro, M. J. Bearpark, J. J. Heyd, E. N. Brothers, K. N. Kudin, 
 V. N. Staroverov, T. A. Keith, R. Kobayashi, J. Normand, 
 K. Raghavachari, A. P. Rendell, J. C. Burant, S. S. Iyengar, 
 J. Tomasi, M. Cossi, J. M. Millam, M. Klene, C. Adamo, R. Cammi, 
 J. W. Ochterski, R. L. Martin, K. Morokuma, O. Farkas, 
 J. B. Foresman, and D. J. Fox, Gaussian, Inc., Wallingford CT, 2019.
 
 ******************************************
 Gaussian 16:  ES64L-G16RevC.01  3-Jul-2019
                12-Jul-2024 
 ******************************************
 %NProcShared=16
 Will use up to   16 processors via shared memory.
 %Mem=32GB
 %chk=12356206_1.chk
 ------------------------------------------------------
 #N OPT FREQ=NORAMAN Integral(Ultrafine) wB97XD def2SVP
 ------------------------------------------------------
 1/18=20,19=15,26=4,38=1/1,3;
 2/9=110,12=2,17=6,18=5,40=1/2;
 3/5=43,7=101,11=2,25=1,30=1,71=1,74=-58,75=-5/1,2,3;
 4//1;
 5/5=2,38=5/2;
 6/7=2,8=2,9=2,10=2,28=1/1;
 7//1,2,3,16;
 1/18=20,19=15,26=4/3(2);
 2/9=110/2;
 99//99;
 2/9=110/2;
 3/5=43,7=101,11=2,25=1,30=1,71=1,74=-58,75=-5/1,2,3;
 4/5=5,16=3,69=1/1;
 5/5=2,38=5/2;
 7//1,2,3,16;
 1/18=20,19=15,26=4/3(-5);
 2/9=110/2;
 6/7=2,8=2,9=2,10=2,19=2,28=1/1;
 99/9=1/99;
 ----------
 12356206_1
 ----------
 Symbolic Z-matrix:
 Charge =  0 Multiplicity = 1
 C                    -3.04076  -2.23396  -0.00419 
 O                    -1.77519  -1.59672  -0.00559 
 C                    -1.78789  -0.25509   0.00261 
 O                    -2.81344   0.37725   0.01054 
 C                    -0.4097    0.31888   0.0007 
 C                     0.69221  -0.54995   0.00111 
 C                     1.97521  -0.01826   0.00018 
 O                     3.11921  -0.72841   0.00076 
 C                     3.03902  -2.12841   0.00217 
 C                     2.09298   1.38025  -0.00161 
 N                     1.05629   2.19675  -0.00266 
 C                    -0.19359   1.71068  -0.00144 
 C                    -1.29285   2.73611  -0.00237 
 H                    -3.61647  -1.9598    0.89154 
 H                    -3.62358  -1.94932  -0.89202 
 H                    -2.8416   -3.31132  -0.01136 
 H                     0.50987  -1.62321   0.00224 
 H                     4.06937  -2.50335   0.00238 
 H                     2.52033  -2.50878  -0.89522 
 H                     2.52063  -2.507     0.90048 
 H                     3.09561   1.82239  -0.00236 
 H                    -1.93688   2.63535   0.88242 
 H                    -0.83103   3.73055  -0.01499 
 H                    -1.95274   2.61862  -0.8731 
 

 GradGradGradGradGradGradGradGradGradGradGradGradGradGradGradGradGradGrad
 Berny optimization.
 Initialization pass.
                           ----------------------------
                           !    Initial Parameters    !
                           ! (Angstroms and Degrees)  !
 --------------------------                            --------------------------
 ! Name  Definition              Value          Derivative Info.                !
 --------------------------------------------------------------------------------
 ! R1    R(1,2)                  1.4169         estimate D2E/DX2                !
 ! R2    R(1,14)                 1.0995         estimate D2E/DX2                !
 ! R3    R(1,15)                 1.0995         estimate D2E/DX2                !
 ! R4    R(1,16)                 1.0956         estimate D2E/DX2                !
 ! R5    R(2,3)                  1.3417         estimate D2E/DX2                !
 ! R6    R(3,4)                  1.2049         estimate D2E/DX2                !
 ! R7    R(3,5)                  1.4929         estimate D2E/DX2                !
 ! R8    R(5,6)                  1.4032         estimate D2E/DX2                !
 ! R9    R(5,12)                 1.4085         estimate D2E/DX2                !
 ! R10   R(6,7)                  1.3888         estimate D2E/DX2                !
 ! R11   R(6,17)                 1.0886         estimate D2E/DX2                !
 ! R12   R(7,8)                  1.3465         estimate D2E/DX2                !
 ! R13   R(7,10)                 1.4035         estimate D2E/DX2                !
 ! R14   R(8,9)                  1.4023         estimate D2E/DX2                !
 ! R15   R(9,18)                 1.0964         estimate D2E/DX2                !
 ! R16   R(9,19)                 1.1041         estimate D2E/DX2                !
 ! R17   R(9,20)                 1.1041         estimate D2E/DX2                !
 ! R18   R(10,11)                1.3196         estimate D2E/DX2                !
 ! R19   R(10,21)                1.0958         estimate D2E/DX2                !
 ! R20   R(11,12)                1.3411         estimate D2E/DX2                !
 ! R21   R(12,13)                1.5033         estimate D2E/DX2                !
 ! R22   R(13,22)                1.099          estimate D2E/DX2                !
 ! R23   R(13,23)                1.0965         estimate D2E/DX2                !
 ! R24   R(13,24)                1.0988         estimate D2E/DX2                !
 ! A1    A(2,1,14)             110.8751         estimate D2E/DX2                !
 ! A2    A(2,1,15)             110.8681         estimate D2E/DX2                !
 ! A3    A(2,1,16)             106.252          estimate D2E/DX2                !
 ! A4    A(14,1,15)            108.4042         estimate D2E/DX2                !
 ! A5    A(14,1,16)            110.2243         estimate D2E/DX2                !
 ! A6    A(15,1,16)            110.2201         estimate D2E/DX2                !
 ! A7    A(1,2,3)              116.1829         estimate D2E/DX2                !
 ! A8    A(2,3,4)              122.201          estimate D2E/DX2                !
 ! A9    A(2,3,5)              112.0668         estimate D2E/DX2                !
 ! A10   A(4,3,5)              125.7322         estimate D2E/DX2                !
 ! A11   A(3,5,6)              119.1349         estimate D2E/DX2                !
 ! A12   A(3,5,12)             121.4362         estimate D2E/DX2                !
 ! A13   A(6,5,12)             119.4289         estimate D2E/DX2                !
 ! A14   A(5,6,7)              119.2354         estimate D2E/DX2                !
 ! A15   A(5,6,17)             118.6128         estimate D2E/DX2                !
 ! A16   A(7,6,17)             122.1518         estimate D2E/DX2                !
 ! A17   A(6,7,8)              125.6599         estimate D2E/DX2                !
 ! A18   A(6,7,10)             117.3233         estimate D2E/DX2                !
 ! A19   A(8,7,10)             117.0168         estimate D2E/DX2                !
 ! A20   A(7,8,9)              118.5521         estimate D2E/DX2                !
 ! A21   A(8,9,18)             106.718          estimate D2E/DX2                !
 ! A22   A(8,9,19)             111.7151         estimate D2E/DX2                !
 ! A23   A(8,9,20)             111.7158         estimate D2E/DX2                !
 ! A24   A(18,9,19)            108.8937         estimate D2E/DX2                !
 ! A25   A(18,9,20)            108.8929         estimate D2E/DX2                !
 ! A26   A(19,9,20)            108.8197         estimate D2E/DX2                !
 ! A27   A(7,10,11)            123.4105         estimate D2E/DX2                !
 ! A28   A(7,10,21)            118.6101         estimate D2E/DX2                !
 ! A29   A(11,10,21)           117.9793         estimate D2E/DX2                !
 ! A30   A(10,11,12)           120.5251         estimate D2E/DX2                !
 ! A31   A(5,12,11)            120.0768         estimate D2E/DX2                !
 ! A32   A(5,12,13)            124.1838         estimate D2E/DX2                !
 ! A33   A(11,12,13)           115.7394         estimate D2E/DX2                !
 ! A34   A(12,13,22)           111.4372         estimate D2E/DX2                !
 ! A35   A(12,13,23)           108.0988         estimate D2E/DX2                !
 ! A36   A(12,13,24)           111.5117         estimate D2E/DX2                !
 ! A37   A(22,13,23)           109.8299         estimate D2E/DX2                !
 ! A38   A(22,13,24)           106.0358         estimate D2E/DX2                !
 ! A39   A(23,13,24)           109.9243         estimate D2E/DX2                !
 ! D1    D(14,1,2,3)           -60.2168         estimate D2E/DX2                !
 ! D2    D(15,1,2,3)            60.2476         estimate D2E/DX2                !
 ! D3    D(16,1,2,3)          -179.989          estimate D2E/DX2                !
 ! D4    D(1,2,3,4)             -0.0101         estimate D2E/DX2                !
 ! D5    D(1,2,3,5)            179.9858         estimate D2E/DX2                !
 ! D6    D(2,3,5,6)             -0.4676         estimate D2E/DX2                !
 ! D7    D(2,3,5,12)           179.5352         estimate D2E/DX2                !
 ! D8    D(4,3,5,6)            179.5282         estimate D2E/DX2                !
 ! D9    D(4,3,5,12)            -0.469          estimate D2E/DX2                !
 ! D10   D(3,5,6,7)           -179.9601         estimate D2E/DX2                !
 ! D11   D(3,5,6,17)             0.0346         estimate D2E/DX2                !
 ! D12   D(12,5,6,7)             0.0372         estimate D2E/DX2                !
 ! D13   D(12,5,6,17)         -179.9681         estimate D2E/DX2                !
 ! D14   D(3,5,12,11)          179.9771         estimate D2E/DX2                !
 ! D15   D(3,5,12,13)           -0.0164         estimate D2E/DX2                !
 ! D16   D(6,5,12,11)           -0.0201         estimate D2E/DX2                !
 ! D17   D(6,5,12,13)          179.9864         estimate D2E/DX2                !
 ! D18   D(5,6,7,8)            179.9828         estimate D2E/DX2                !
 ! D19   D(5,6,7,10)            -0.0218         estimate D2E/DX2                !
 ! D20   D(17,6,7,8)            -0.0118         estimate D2E/DX2                !
 ! D21   D(17,6,7,10)          179.9837         estimate D2E/DX2                !
 ! D22   D(6,7,8,9)              0.0128         estimate D2E/DX2                !
 ! D23   D(10,7,8,9)          -179.9827         estimate D2E/DX2                !
 ! D24   D(6,7,10,11)           -0.0118         estimate D2E/DX2                !
 ! D25   D(6,7,10,21)          179.9994         estimate D2E/DX2                !
 ! D26   D(8,7,10,11)          179.984          estimate D2E/DX2                !
 ! D27   D(8,7,10,21)           -0.0047         estimate D2E/DX2                !
 ! D28   D(7,8,9,18)           179.9974         estimate D2E/DX2                !
 ! D29   D(7,8,9,19)            61.0799         estimate D2E/DX2                !
 ! D30   D(7,8,9,20)           -61.0858         estimate D2E/DX2                !
 ! D31   D(7,10,11,12)           0.0299         estimate D2E/DX2                !
 ! D32   D(21,10,11,12)       -179.9812         estimate D2E/DX2                !
 ! D33   D(10,11,12,5)          -0.0132         estimate D2E/DX2                !
 ! D34   D(10,11,12,13)        179.9808         estimate D2E/DX2                !
 ! D35   D(5,12,13,22)          59.8213         estimate D2E/DX2                !
 ! D36   D(5,12,13,23)        -179.399          estimate D2E/DX2                !
 ! D37   D(5,12,13,24)         -58.4565         estimate D2E/DX2                !
 ! D38   D(11,12,13,22)       -120.1725         estimate D2E/DX2                !
 ! D39   D(11,12,13,23)          0.6072         estimate D2E/DX2                !
 ! D40   D(11,12,13,24)        121.5497         estimate D2E/DX2                !
 --------------------------------------------------------------------------------
 Trust Radius=3.00D-01 FncErr=1.00D-07 GrdErr=1.00D-06 EigMax=2.50D+02 EigMin=1.00D-04
 Number of steps in this run=    113 maximum allowed number of steps=    144.
 GradGradGradGradGradGradGradGradGradGradGradGradGradGradGradGradGradGrad

                          Input orientation:                          
 ---------------------------------------------------------------------
 Center     Atomic      Atomic             Coordinates (Angstroms)
 Number     Number       Type             X           Y           Z
 ---------------------------------------------------------------------
      1          6           0       -3.040760   -2.233960   -0.004190
      2          8           0       -1.775190   -1.596720   -0.005590
      3          6           0       -1.787890   -0.255090    0.002610
      4          8           0       -2.813440    0.377250    0.010540
      5          6           0       -0.409700    0.318880    0.000700
      6          6           0        0.692210   -0.549950    0.001110
      7          6           0        1.975210   -0.018260    0.000180
      8          8           0        3.119210   -0.728410    0.000760
      9          6           0        3.039020   -2.128410    0.002170
     10          6           0        2.092980    1.380250   -0.001610
     11          7           0        1.056290    2.196750   -0.002660
     12          6           0       -0.193590    1.710680   -0.001440
     13          6           0       -1.292850    2.736110   -0.002370
     14          1           0       -3.616470   -1.959800    0.891540
     15          1           0       -3.623580   -1.949320   -0.892020
     16          1           0       -2.841600   -3.311320   -0.011360
     17          1           0        0.509870   -1.623210    0.002240
     18          1           0        4.069370   -2.503350    0.002380
     19          1           0        2.520330   -2.508780   -0.895220
     20          1           0        2.520630   -2.507000    0.900480
     21          1           0        3.095610    1.822390   -0.002360
     22          1           0       -1.936880    2.635350    0.882420
     23          1           0       -0.831030    3.730550   -0.014990
     24          1           0       -1.952740    2.618620   -0.873100
 ---------------------------------------------------------------------
                    Distance matrix (angstroms):
                    1          2          3          4          5
     1  C    0.000000
     2  O    1.416949   0.000000
     3  C    2.342148   1.341715   0.000000
     4  O    2.621127   2.230422   1.204853   0.000000
     5  C    3.665991   2.352472   1.492934   2.404469   0.000000
     6  C    4.095239   2.680268   2.497567   3.626206   1.403236
     7  C    5.483548   4.069038   3.770546   4.804967   2.408622
     8  O    6.341288   4.970830   4.929875   6.034809   3.681035
     9  C    6.080699   4.843488   5.177682   6.366293   4.228818
    10  C    6.278360   4.881097   4.211354   5.007905   2.718441
    11  N    6.034651   4.733677   3.755117   4.276162   2.382338
    12  C    4.864830   3.666111   2.531020   2.939693   1.408480
    13  C    5.268471   4.359596   3.031892   2.806525   2.573512
    14  H    1.099517   2.080140   2.653288   2.623513   4.033529
    15  H    1.099519   2.080055   2.653401   2.623713   4.033696
    16  H    1.095637   2.019187   3.232807   3.688743   4.369512
    17  H    3.602781   2.285227   2.674220   3.878956   2.148796
    18  H    7.115235   5.914467   6.273928   7.461300   5.294058
    19  H    5.638722   4.480490   4.944287   6.131776   4.169342
    20  H    5.641102   4.483709   4.943745   6.128882   4.169177
    21  H    7.355883   5.951052   5.307026   6.083212   3.814151
    22  H    5.070977   4.327253   3.025047   2.574402   2.911313
    23  H    6.360692   5.410299   4.098929   3.895539   3.437624
    24  H    5.048398   4.307341   3.008696   2.558391   2.904015
                    6          7          8          9         10
     6  C    0.000000
     7  C    1.388807   0.000000
     8  O    2.433552   1.346495   0.000000
     9  C    2.828260   2.363140   1.402295   0.000000
    10  C    2.384918   1.403461   2.345123   3.633965   0.000000
    11  N    2.770727   2.398060   3.579415   4.757967   1.319621
    12  C    2.427982   2.773613   4.113856   5.018804   2.310322
    13  C    3.839097   4.273965   5.609740   6.513730   3.647218
    14  H    4.620094   5.985899   6.905012   6.716767   6.674689
    15  H    4.624063   5.989279   6.910347   6.724722   6.675172
    16  H    4.484767   5.834898   6.496370   5.998429   6.808892
    17  H    1.088640   2.173267   2.758500   2.579114   3.395147
    18  H    3.901408   3.249797   2.013261   1.096449   4.357578
    19  H    2.825322   2.702145   2.081143   1.104097   4.013193
    20  H    2.825249   2.702194   2.081148   1.104092   4.013398
    21  H    3.377031   2.154831   2.550911   3.951208   1.095790
    22  H    4.223145   4.808788   6.136469   6.944626   4.312373
    23  H    4.543479   4.682819   5.957094   7.021751   3.751523
    24  H    4.218986   4.810878   6.139293   6.943922   4.319827
                   11         12         13         14         15
    11  N    0.000000
    12  C    1.341069   0.000000
    13  C    2.410263   1.503290   0.000000
    14  H    6.317530   5.097641   5.315059   0.000000
    15  H    6.315223   5.094464   5.308204   1.783605   0.000000
    16  H    6.747774   5.677371   6.242605   1.800627   1.800583
    17  H    3.858846   3.407300   4.717361   4.234481   4.241634
    18  H    5.582976   5.994238   7.497024   7.756171   7.764559
    19  H    5.008202   5.095885   6.545716   6.415154   6.169330
    20  H    5.008515   5.096006   6.545836   6.161453   6.424592
    21  H    2.073396   3.291097   4.482574   7.756032   7.756598
    22  H    3.151952   2.162240   1.098991   4.892495   5.197383
    23  H    2.432010   2.118110   1.096516   6.400043   6.389714
    24  H    3.160681   2.163043   1.098831   5.181108   4.863963
                   16         17         18         19         20
    16  H    0.000000
    17  H    3.752633   0.000000
    18  H    6.958054   3.666700   0.000000
    19  H    5.493230   2.373103   1.790318   0.000000
    20  H    5.498354   2.372989   1.790305   1.795701   0.000000
    21  H    7.848919   4.307927   4.433989   4.459504   4.459747
    22  H    6.081138   4.989653   7.953348   7.034828   6.805401
    23  H    7.323274   5.519154   7.929422   7.136922   7.139940
    24  H    6.057793   4.982348   7.954046   6.804342   7.030548
                   21         22         23         24
    21  H    0.000000
    22  H    5.173944   0.000000
    23  H    4.365746   1.796583   0.000000
    24  H    5.184400   1.755671   1.797491   0.000000
 Stoichiometry    C9H11NO3
 Framework group  C1[X(C9H11NO3)]
 Deg. of freedom    66
 Full point group                 C1      NOp   1
 Largest Abelian subgroup         C1      NOp   1
 Largest concise Abelian subgroup C1      NOp   1
                         Standard orientation:                         
 ---------------------------------------------------------------------
 Center     Atomic      Atomic             Coordinates (Angstroms)
 Number     Number       Type             X           Y           Z
 ---------------------------------------------------------------------
      1          6           0       -3.040759   -2.233959   -0.004190
      2          8           0       -1.775189   -1.596719   -0.005590
      3          6           0       -1.787890   -0.255089    0.002610
      4          8           0       -2.813440    0.377251    0.010540
      5          6           0       -0.409700    0.318882    0.000700
      6          6           0        0.692211   -0.549948    0.001110
      7          6           0        1.975210   -0.018258    0.000180
      8          8           0        3.119211   -0.728408    0.000760
      9          6           0        3.039021   -2.128408    0.002170
     10          6           0        2.092980    1.380252   -0.001610
     11          7           0        1.056290    2.196752   -0.002660
     12          6           0       -0.193590    1.710682   -0.001440
     13          6           0       -1.292850    2.736111   -0.002370
     14          1           0       -3.616469   -1.959799    0.891540
     15          1           0       -3.623579   -1.949319   -0.892020
     16          1           0       -2.841599   -3.311319   -0.011360
     17          1           0        0.509871   -1.623208    0.002240
     18          1           0        4.069371   -2.503348    0.002380
     19          1           0        2.520331   -2.508778   -0.895220
     20          1           0        2.520631   -2.506998    0.900480
     21          1           0        3.095610    1.822392   -0.002360
     22          1           0       -1.936880    2.635351    0.882420
     23          1           0       -0.831030    3.730552   -0.014990
     24          1           0       -1.952740    2.618621   -0.873100
 ---------------------------------------------------------------------
 Rotational constants (GHZ):           1.0916511           0.6138727           0.3958651
 Standard basis: def2SVP (5D, 7F)
 There are   250 symmetry adapted cartesian basis functions of A   symmetry.
 There are   237 symmetry adapted basis functions of A   symmetry.
   237 basis functions,   402 primitive gaussians,   250 cartesian basis functions
    48 alpha electrons       48 beta electrons
       nuclear repulsion energy       791.5181831815 Hartrees.
 NAtoms=   24 NActive=   24 NUniq=   24 SFac= 1.00D+00 NAtFMM=   60 NAOKFM=F Big=F
 Integral buffers will be    131072 words long.
 Raffenetti 2 integral format.
 Two-electron integral symmetry is turned on.
 Nuclear repulsion after empirical dispersion term =      791.5055740264 Hartrees.
 One-electron integrals computed using PRISM.
   1 Symmetry operations used in ECPInt.
 ECPInt:  NShTT=    6216 NPrTT=   22568 LenC2=    5915 LenP2D=   15800.
 LDataN:  DoStor=T MaxTD1= 4 Len=   56
 NBasis=   237 RedAO= T EigKep=  5.19D-04  NBF=   237
 NBsUse=   237 1.00D-06 EigRej= -1.00D+00 NBFU=   237
 ExpMin= 1.22D-01 ExpMax= 2.27D+03 ExpMxC= 3.41D+02 IAcc=3 IRadAn=         5 AccDes= 0.00D+00
 Harris functional with IExCor= 4639 and IRadAn=       5 diagonalized for initial guess.
 HarFok:  IExCor= 4639 AccDes= 0.00D+00 IRadAn=         5 IDoV= 1 UseB2=F ITyADJ=14
 ICtDFT=  3500011 ScaDFX=  1.000000  1.000000  1.000000  1.000000
 FoFCou: FMM=F IPFlag=           0 FMFlag=      100000 FMFlg1=           0
         NFxFlg=           0 DoJE=T BraDBF=F KetDBF=T FulRan=T
         wScrn=  0.000000 ICntrl=       500 IOpCl=  0 I1Cent=   200000004 NGrid=           0
         NMat0=    1 NMatS0=      1 NMatT0=    0 NMatD0=    1 NMtDS0=    0 NMtDT0=    0
 Petite list used in FoFCou.
 Requested convergence on RMS density matrix=1.00D-08 within 128 cycles.
 Requested convergence on MAX density matrix=1.00D-06.
 Requested convergence on             energy=1.00D-06.
 No special actions if energy rises.
 Integral accuracy reduced to 1.0D-05 until final iterations.
 Initial convergence to 1.0D-05 achieved.  Increase integral accuracy.
 SCF Done:  E(RwB97XD) =  -629.340366472     A.U. after   16 cycles
            NFock= 16  Conv=0.41D-08     -V/T= 2.0096

 **********************************************************************

            Population analysis using the SCF Density.

 **********************************************************************

 Orbital symmetries:
       Occupied  (A) (A) (A) (A) (A) (A) (A) (A) (A) (A) (A) (A)
                 (A) (A) (A) (A) (A) (A) (A) (A) (A) (A) (A) (A)
                 (A) (A) (A) (A) (A) (A) (A) (A) (A) (A) (A) (A)
                 (A) (A) (A) (A) (A) (A) (A) (A) (A) (A) (A) (A)
       Virtual   (A) (A) (A) (A) (A) (A) (A) (A) (A) (A) (A) (A)
                 (A) (A) (A) (A) (A) (A) (A) (A) (A) (A) (A) (A)
                 (A) (A) (A) (A) (A) (A) (A) (A) (A) (A) (A) (A)
                 (A) (A) (A) (A) (A) (A) (A) (A) (A) (A) (A) (A)
                 (A) (A) (A) (A) (A) (A) (A) (A) (A) (A) (A) (A)
                 (A) (A) (A) (A) (A) (A) (A) (A) (A) (A) (A) (A)
                 (A) (A) (A) (A) (A) (A) (A) (A) (A) (A) (A) (A)
                 (A) (A) (A) (A) (A) (A) (A) (A) (A) (A) (A) (A)
                 (A) (A) (A) (A) (A) (A) (A) (A) (A) (A) (A) (A)
                 (A) (A) (A) (A) (A) (A) (A) (A) (A) (A) (A) (A)
                 (A) (A) (A) (A) (A) (A) (A) (A) (A) (A) (A) (A)
                 (A) (A) (A) (A) (A) (A) (A) (A) (A) (A) (A) (A)
                 (A) (A) (A) (A) (A) (A) (A) (A) (A) (A) (A) (A)
                 (A) (A) (A) (A) (A) (A) (A) (A) (A) (A) (A) (A)
                 (A) (A) (A) (A) (A) (A) (A) (A) (A) (A) (A) (A)
                 (A) (A) (A) (A) (A) (A) (A) (A) (A)
 The electronic state is 1-A.
 Alpha  occ. eigenvalues --  -19.30962 -19.30043 -19.24837 -14.44079 -10.43454
 Alpha  occ. eigenvalues --  -10.37160 -10.36524 -10.36079 -10.34497 -10.33794
 Alpha  occ. eigenvalues --  -10.32400 -10.32348 -10.28180  -1.21172  -1.17989
 Alpha  occ. eigenvalues --   -1.11481  -1.04460  -0.91434  -0.88876  -0.83635
 Alpha  occ. eigenvalues --   -0.82302  -0.76828  -0.74524  -0.69717  -0.66725
 Alpha  occ. eigenvalues --   -0.64358  -0.61484  -0.59142  -0.58675  -0.57478
 Alpha  occ. eigenvalues --   -0.57066  -0.56076  -0.52890  -0.52164  -0.51511
 Alpha  occ. eigenvalues --   -0.50651  -0.48627  -0.47258  -0.46679  -0.45710
 Alpha  occ. eigenvalues --   -0.44641  -0.43534  -0.42291  -0.39596  -0.36963
 Alpha  occ. eigenvalues --   -0.36717  -0.33769  -0.30855
 Alpha virt. eigenvalues --    0.00969   0.05592   0.12675   0.13826   0.15416
 Alpha virt. eigenvalues --    0.17823   0.18436   0.19218   0.19926   0.20337
 Alpha virt. eigenvalues --    0.20444   0.20609   0.21363   0.22288   0.22431
 Alpha virt. eigenvalues --    0.24001   0.27173   0.29422   0.30539   0.32447
 Alpha virt. eigenvalues --    0.33056   0.34762   0.37223   0.39696   0.41113
 Alpha virt. eigenvalues --    0.42333   0.43251   0.48023   0.49623   0.51791
 Alpha virt. eigenvalues --    0.52279   0.52716   0.54227   0.54359   0.54699
 Alpha virt. eigenvalues --    0.56092   0.56223   0.57149   0.59014   0.59023
 Alpha virt. eigenvalues --    0.62605   0.64979   0.66157   0.68375   0.69031
 Alpha virt. eigenvalues --    0.69659   0.69981   0.71212   0.71834   0.73058
 Alpha virt. eigenvalues --    0.73166   0.73597   0.73971   0.74895   0.74949
 Alpha virt. eigenvalues --    0.75895   0.76560   0.77079   0.77892   0.80017
 Alpha virt. eigenvalues --    0.80604   0.80899   0.82155   0.83223   0.84404
 Alpha virt. eigenvalues --    0.87472   0.90635   0.92251   0.93122   0.98526
 Alpha virt. eigenvalues --    1.00115   1.02291   1.04287   1.08353   1.08845
 Alpha virt. eigenvalues --    1.09297   1.14329   1.15062   1.17623   1.21920
 Alpha virt. eigenvalues --    1.23188   1.26784   1.27783   1.28883   1.31213
 Alpha virt. eigenvalues --    1.31816   1.34111   1.36173   1.37558   1.37986
 Alpha virt. eigenvalues --    1.41881   1.42648   1.45923   1.48505   1.50845
 Alpha virt. eigenvalues --    1.55485   1.58591   1.58910   1.59431   1.60487
 Alpha virt. eigenvalues --    1.63587   1.65456   1.66335   1.67777   1.69653
 Alpha virt. eigenvalues --    1.70752   1.74821   1.77109   1.77548   1.80275
 Alpha virt. eigenvalues --    1.80429   1.82593   1.82806   1.85772   1.86506
 Alpha virt. eigenvalues --    1.86618   1.88822   1.90023   1.90067   1.91482
 Alpha virt. eigenvalues --    1.92200   1.94323   1.95106   1.95164   1.97346
 Alpha virt. eigenvalues --    1.99103   2.01341   2.04352   2.04640   2.05784
 Alpha virt. eigenvalues --    2.06893   2.11551   2.12819   2.14401   2.19005
 Alpha virt. eigenvalues --    2.24224   2.24805   2.27533   2.28365   2.30872
 Alpha virt. eigenvalues --    2.32581   2.34961   2.38417   2.39015   2.39072
 Alpha virt. eigenvalues --    2.43122   2.45143   2.46263   2.46927   2.48111
 Alpha virt. eigenvalues --    2.51786   2.53168   2.54247   2.61394   2.66850
 Alpha virt. eigenvalues --    2.71399   2.72271   2.73373   2.73821   2.75204
 Alpha virt. eigenvalues --    2.78011   2.81410   2.82757   2.86530   2.87702
 Alpha virt. eigenvalues --    2.88039   2.89297   2.96596   2.96822   2.97524
 Alpha virt. eigenvalues --    2.98550   3.01758   3.04797   3.04994   3.06680
 Alpha virt. eigenvalues --    3.06921   3.13352   3.16585   3.17071   3.18516
 Alpha virt. eigenvalues --    3.27153   3.30429   3.39130   3.48636   3.53912
 Alpha virt. eigenvalues --    3.58547   3.71826   3.77473   3.81722
          Condensed to atoms (all electrons):
               1          2          3          4          5          6
     1  C    4.406384   0.265511  -0.032587   0.001670   0.011862  -0.000614
     2  O    0.265511   7.944651   0.413656  -0.083480  -0.157186   0.012143
     3  C   -0.032587   0.413656   4.592622   0.715573   0.161015  -0.059968
     4  O    0.001670  -0.083480   0.715573   7.686242  -0.100300   0.003680
     5  C    0.011862  -0.157186   0.161015  -0.100300   5.620053   0.332240
     6  C   -0.000614   0.012143  -0.059968   0.003680   0.332240   5.213079
     7  C    0.000012   0.000650   0.013408  -0.000047   0.036672   0.307320
     8  O   -0.000000  -0.000000  -0.000050   0.000000   0.005034  -0.081514
     9  C    0.000000  -0.000039  -0.000082  -0.000000   0.001653   0.002824
    10  C    0.000001   0.000043  -0.000128   0.000015  -0.058081  -0.037413
    11  N    0.000002  -0.000019   0.006957   0.000034  -0.060269  -0.049631
    12  C   -0.000004  -0.001373  -0.050388  -0.010981   0.433967  -0.055405
    13  C    0.000012   0.000146  -0.004663  -0.000162  -0.089164   0.002522
    14  H    0.406076  -0.026517  -0.004418   0.006938   0.000425   0.000043
    15  H    0.406078  -0.026485  -0.004421   0.006942   0.000371   0.000050
    16  H    0.398328  -0.022845   0.004307   0.000777   0.000489  -0.000258
    17  H   -0.000554   0.022426  -0.021696   0.000389  -0.038323   0.440512
    18  H    0.000000  -0.000000  -0.000002  -0.000000  -0.000012   0.000323
    19  H    0.000002  -0.000029   0.000030  -0.000000   0.000410   0.006431
    20  H    0.000002  -0.000029   0.000031  -0.000000   0.000408   0.006434
    21  H    0.000000  -0.000000   0.000091  -0.000000   0.000553   0.009816
    22  H   -0.000000   0.000028   0.001886   0.004883  -0.010513   0.000119
    23  H   -0.000001   0.000008   0.000206   0.000965   0.014199  -0.000074
    24  H    0.000000   0.000025   0.001909   0.005043  -0.010927   0.000142
               7          8          9         10         11         12
     1  C    0.000012  -0.000000   0.000000   0.000001   0.000002  -0.000004
     2  O    0.000650  -0.000000  -0.000039   0.000043  -0.000019  -0.001373
     3  C    0.013408  -0.000050  -0.000082  -0.000128   0.006957  -0.050388
     4  O   -0.000047   0.000000  -0.000000   0.000015   0.000034  -0.010981
     5  C    0.036672   0.005034   0.001653  -0.058081  -0.060269   0.433967
     6  C    0.307320  -0.081514   0.002824  -0.037413  -0.049631  -0.055405
     7  C    4.933678   0.382357  -0.057950   0.434538  -0.028567  -0.060193
     8  O    0.382357   7.865503   0.301713  -0.058203   0.001736   0.000242
     9  C   -0.057950   0.301713   4.417576   0.004955  -0.000124   0.000056
    10  C    0.434538  -0.058203   0.004955   4.794974   0.540566  -0.061957
    11  N   -0.028567   0.001736  -0.000124   0.540566   6.233651   0.570542
    12  C   -0.060193   0.000242   0.000056  -0.061957   0.570542   4.969146
    13  C    0.001767   0.000006  -0.000001   0.004508  -0.077455   0.422984
    14  H    0.000005  -0.000000  -0.000000   0.000000  -0.000000  -0.000014
    15  H    0.000006  -0.000000  -0.000000   0.000000  -0.000000  -0.000010
    16  H   -0.000011  -0.000000  -0.000000  -0.000000  -0.000000   0.000023
    17  H   -0.073926  -0.006622   0.008592   0.007924  -0.000259   0.011194
    18  H    0.004273  -0.022328   0.400092  -0.000065   0.000002   0.000004
    19  H   -0.007643  -0.029277   0.399489   0.000035   0.000004  -0.000037
    20  H   -0.007643  -0.029278   0.399473   0.000035   0.000004  -0.000037
    21  H   -0.068097   0.005341  -0.000427   0.413760  -0.033792   0.004093
    22  H   -0.000003  -0.000000   0.000000  -0.000168   0.002190  -0.001018
    23  H    0.000183  -0.000001   0.000000   0.000894   0.010282  -0.017183
    24  H   -0.000007  -0.000000   0.000000  -0.000166   0.002328  -0.000744
              13         14         15         16         17         18
     1  C    0.000012   0.406076   0.406078   0.398328  -0.000554   0.000000
     2  O    0.000146  -0.026517  -0.026485  -0.022845   0.022426  -0.000000
     3  C   -0.004663  -0.004418  -0.004421   0.004307  -0.021696  -0.000002
     4  O   -0.000162   0.006938   0.006942   0.000777   0.000389  -0.000000
     5  C   -0.089164   0.000425   0.000371   0.000489  -0.038323  -0.000012
     6  C    0.002522   0.000043   0.000050  -0.000258   0.440512   0.000323
     7  C    0.001767   0.000005   0.000006  -0.000011  -0.073926   0.004273
     8  O    0.000006  -0.000000  -0.000000  -0.000000  -0.006622  -0.022328
     9  C   -0.000001  -0.000000  -0.000000  -0.000000   0.008592   0.400092
    10  C    0.004508   0.000000   0.000000  -0.000000   0.007924  -0.000065
    11  N   -0.077455  -0.000000  -0.000000  -0.000000  -0.000259   0.000002
    12  C    0.422984  -0.000014  -0.000010   0.000023   0.011194   0.000004
    13  C    4.542781  -0.000000  -0.000002  -0.000001  -0.000201   0.000000
    14  H   -0.000000   0.617046  -0.029613  -0.023909   0.000159  -0.000000
    15  H   -0.000002  -0.029613   0.617041  -0.023904   0.000163  -0.000000
    16  H   -0.000001  -0.023909  -0.023904   0.615147  -0.000490   0.000000
    17  H   -0.000201   0.000159   0.000163  -0.000490   0.621833  -0.000290
    18  H    0.000000  -0.000000  -0.000000   0.000000  -0.000290   0.599725
    19  H    0.000000  -0.000000  -0.000000   0.000002   0.000648  -0.022549
    20  H    0.000000  -0.000000  -0.000000   0.000002   0.000655  -0.022554
    21  H   -0.000110   0.000000   0.000000  -0.000000  -0.000203  -0.000090
    22  H    0.376933   0.000019  -0.000011   0.000000   0.000002  -0.000000
    23  H    0.358510  -0.000000  -0.000000  -0.000000   0.000005  -0.000000
    24  H    0.376903  -0.000012   0.000022   0.000000   0.000002  -0.000000
              19         20         21         22         23         24
     1  C    0.000002   0.000002   0.000000  -0.000000  -0.000001   0.000000
     2  O   -0.000029  -0.000029  -0.000000   0.000028   0.000008   0.000025
     3  C    0.000030   0.000031   0.000091   0.001886   0.000206   0.001909
     4  O   -0.000000  -0.000000  -0.000000   0.004883   0.000965   0.005043
     5  C    0.000410   0.000408   0.000553  -0.010513   0.014199  -0.010927
     6  C    0.006431   0.006434   0.009816   0.000119  -0.000074   0.000142
     7  C   -0.007643  -0.007643  -0.068097  -0.000003   0.000183  -0.000007
     8  O   -0.029277  -0.029278   0.005341  -0.000000  -0.000001  -0.000000
     9  C    0.399489   0.399473  -0.000427   0.000000   0.000000   0.000000
    10  C    0.000035   0.000035   0.413760  -0.000168   0.000894  -0.000166
    11  N    0.000004   0.000004  -0.033792   0.002190   0.010282   0.002328
    12  C   -0.000037  -0.000037   0.004093  -0.001018  -0.017183  -0.000744
    13  C    0.000000   0.000000  -0.000110   0.376933   0.358510   0.376903
    14  H   -0.000000  -0.000000   0.000000   0.000019  -0.000000  -0.000012
    15  H   -0.000000  -0.000000   0.000000  -0.000011  -0.000000   0.000022
    16  H    0.000002   0.000002  -0.000000   0.000000  -0.000000   0.000000
    17  H    0.000648   0.000655  -0.000203   0.000002   0.000005   0.000002
    18  H   -0.022549  -0.022554  -0.000090  -0.000000  -0.000000  -0.000000
    19  H    0.652278  -0.042661   0.000078  -0.000000  -0.000000   0.000000
    20  H   -0.042661   0.652332   0.000078   0.000000  -0.000000  -0.000000
    21  H    0.000078   0.000078   0.630465   0.000006  -0.000209   0.000005
    22  H   -0.000000   0.000000   0.000006   0.609165  -0.015992  -0.019534
    23  H   -0.000000  -0.000000  -0.000209  -0.015992   0.625727  -0.016166
    24  H    0.000000  -0.000000   0.000005  -0.019534  -0.016166   0.609413
 Mulliken charges:
               1
     1  C    0.137821
     2  O   -0.341285
     3  C    0.266713
     4  O   -0.238179
     5  C   -0.094576
     6  C   -0.052800
     7  C    0.189218
     8  O   -0.334658
     9  C    0.122199
    10  C    0.013932
    11  N   -0.118182
    12  C   -0.152908
    13  C    0.084686
    14  H    0.053773
    15  H    0.053773
    16  H    0.052342
    17  H    0.028063
    18  H    0.063472
    19  H    0.042788
    20  H    0.042749
    21  H    0.038641
    22  H    0.052009
    23  H    0.038646
    24  H    0.051763
 Sum of Mulliken charges =  -0.00000
 Mulliken charges with hydrogens summed into heavy atoms:
               1
     1  C    0.297709
     2  O   -0.341285
     3  C    0.266713
     4  O   -0.238179
     5  C   -0.094576
     6  C   -0.024737
     7  C    0.189218
     8  O   -0.334658
     9  C    0.271208
    10  C    0.052574
    11  N   -0.118182
    12  C   -0.152908
    13  C    0.227105
 Electronic spatial extent (au):  <R**2>=           2731.5625
 Charge=              0.0000 electrons
 Dipole moment (field-independent basis, Debye):
    X=              0.4270    Y=             -4.4346    Z=             -0.0055  Tot=              4.4551
 Quadrupole moment (field-independent basis, Debye-Ang):
   XX=            -74.1065   YY=            -70.7935   ZZ=            -75.6158
   XY=             -0.1098   XZ=              0.0593   YZ=             -0.0096
 Traceless Quadrupole moment (field-independent basis, Debye-Ang):
   XX=             -0.6012   YY=              2.7118   ZZ=             -2.1106
   XY=             -0.1098   XZ=              0.0593   YZ=             -0.0096
 Octapole moment (field-independent basis, Debye-Ang**2):
  XXX=              3.7654  YYY=            -46.4690  ZZZ=              0.0568  XYY=             -7.8547
  XXY=            -40.4868  XXZ=             -0.1918  XZZ=             -6.6815  YZZ=             -4.6925
  YYZ=              0.0399  XYZ=              0.0014
 Hexadecapole moment (field-independent basis, Debye-Ang**3):
 XXXX=          -2074.0249 YYYY=          -1298.6299 ZZZZ=            -92.5760 XXXY=             48.2346
 XXXZ=              0.6942 YYYX=            -28.6779 YYYZ=              0.1857 ZZZX=             -0.1121
 ZZZY=              0.0924 XXYY=           -466.6121 XXZZ=           -358.0130 YYZZ=           -236.1074
 XXYZ=             -0.0726 YYXZ=              0.0264 ZZXY=             -1.9558
 N-N= 7.915055740264D+02 E-N=-3.049892901843D+03  KE= 6.233591568967D+02
   1 Symmetry operations used in ECPInt.
 ECPInt:  NShTT=    6216 NPrTT=   22568 LenC2=    5915 LenP2D=   15800.
 LDataN:  DoStor=T MaxTD1= 5 Len=  102
 Calling FoFJK, ICntrl=      2127 FMM=F ISym2X=0 I1Cent= 0 IOpClX= 0 NMat=1 NMatS=1 NMatT=0.
 ***** Axes restored to original set *****
 -------------------------------------------------------------------
 Center     Atomic                   Forces (Hartrees/Bohr)
 Number     Number              X              Y              Z
 -------------------------------------------------------------------
      1        6          -0.000001498    0.000003916   -0.000000359
      2        8           0.000003383   -0.000003126    0.000003707
      3        6          -0.000006310    0.000000424   -0.000001048
      4        8           0.000005241    0.000002822    0.000000935
      5        6          -0.000002291    0.000010358   -0.000000427
      6        6           0.000015846    0.000007554   -0.000000730
      7        6          -0.000020400   -0.000008315    0.000000657
      8        8           0.000009374   -0.000002115   -0.000000604
      9        6          -0.000009036    0.000001292   -0.000003020
     10        6          -0.000019578    0.000018405   -0.000002561
     11        7           0.000023272   -0.000010265    0.000000283
     12        6          -0.000007526   -0.000009163   -0.000001214
     13        6           0.000000494    0.000003245   -0.000000393
     14        1          -0.000000336    0.000001424    0.000001896
     15        1          -0.000001584    0.000001083    0.000002629
     16        1           0.000000657   -0.000002023    0.000001665
     17        1          -0.000002536   -0.000007369    0.000000495
     18        1           0.000006498   -0.000003396   -0.000000242
     19        1           0.000000439   -0.000000918    0.000002019
     20        1          -0.000000893   -0.000001408    0.000001318
     21        1           0.000005328   -0.000000217   -0.000001852
     22        1           0.000001315    0.000000431    0.000000510
     23        1           0.000001790   -0.000001301   -0.000000952
     24        1          -0.000001649   -0.000001339   -0.000002712
 -------------------------------------------------------------------
 Cartesian Forces:  Max     0.000023272 RMS     0.000006402

 GradGradGradGradGradGradGradGradGradGradGradGradGradGradGradGradGradGrad
 Berny optimization.
 FormGI is forming the generalized inverse of G from B-inverse, IUseBI=4.
 Internal  Forces:  Max     0.000019892 RMS     0.000003246
 Search for a local minimum.
 Step number   1 out of a maximum of  113
 All quantities printed in internal units (Hartrees-Bohrs-Radians)
 Mixed Optimization -- En-DIIS/RFO-DIIS
 Second derivative matrix not updated -- first step.
 ITU=  0
     Eigenvalues ---    0.00722   0.00859   0.01365   0.01468   0.01483
     Eigenvalues ---    0.01661   0.01665   0.02039   0.02119   0.02158
     Eigenvalues ---    0.02200   0.02285   0.02400   0.02463   0.02500
     Eigenvalues ---    0.07236   0.07437   0.10091   0.10219   0.10629
     Eigenvalues ---    0.10636   0.16000   0.16000   0.16000   0.16000
     Eigenvalues ---    0.16000   0.16000   0.16000   0.16000   0.16000
     Eigenvalues ---    0.16000   0.16000   0.23295   0.23491   0.25000
     Eigenvalues ---    0.25000   0.25000   0.25000   0.25000   0.25000
     Eigenvalues ---    0.25000   0.25000   0.32035   0.33130   0.33233
     Eigenvalues ---    0.33234   0.33735   0.33736   0.33794   0.33812
     Eigenvalues ---    0.34070   0.34078   0.34152   0.34169   0.34970
     Eigenvalues ---    0.41414   0.42923   0.43691   0.44709   0.45242
     Eigenvalues ---    0.46522   0.55401   0.55774   0.56822   0.60307
     Eigenvalues ---    1.02422
 RFO step:  Lambda= 0.00000000D+00 EMin= 7.22430330D-03
 Linear search not attempted -- first point.
 Iteration  1 RMS(Cart)=  0.00004263 RMS(Int)=  0.00000000
 Iteration  2 RMS(Cart)=  0.00000000 RMS(Int)=  0.00000000
 Variable       Old X    -DE/DX   Delta X   Delta X   Delta X     New X
                                 (Linear)    (Quad)   (Total)
    R1        2.67765   0.00000   0.00000   0.00000   0.00000   2.67765
    R2        2.07779   0.00000   0.00000   0.00000   0.00000   2.07779
    R3        2.07779  -0.00000   0.00000  -0.00000  -0.00000   2.07779
    R4        2.07045   0.00000   0.00000   0.00001   0.00001   2.07046
    R5        2.53547   0.00000   0.00000   0.00000   0.00000   2.53548
    R6        2.27684  -0.00000   0.00000  -0.00000  -0.00000   2.27684
    R7        2.82124  -0.00000   0.00000  -0.00001  -0.00001   2.82123
    R8        2.65173   0.00000   0.00000   0.00001   0.00001   2.65174
    R9        2.66164  -0.00001   0.00000  -0.00002  -0.00002   2.66162
   R10        2.62446  -0.00001   0.00000  -0.00002  -0.00002   2.62444
   R11        2.05723   0.00001   0.00000   0.00002   0.00002   2.05725
   R12        2.54451   0.00001   0.00000   0.00002   0.00002   2.54452
   R13        2.65216   0.00001   0.00000   0.00002   0.00002   2.65217
   R14        2.64995   0.00000   0.00000   0.00000   0.00000   2.64996
   R15        2.07199   0.00001   0.00000   0.00002   0.00002   2.07201
   R16        2.08644  -0.00000   0.00000  -0.00001  -0.00001   2.08643
   R17        2.08643   0.00000   0.00000   0.00000   0.00000   2.08644
   R18        2.49372  -0.00002   0.00000  -0.00003  -0.00003   2.49369
   R19        2.07074   0.00000   0.00000   0.00001   0.00001   2.07076
   R20        2.53425   0.00001   0.00000   0.00001   0.00001   2.53427
   R21        2.84081   0.00000   0.00000   0.00000   0.00000   2.84081
   R22        2.07679   0.00000   0.00000   0.00000   0.00000   2.07679
   R23        2.07212  -0.00000   0.00000  -0.00000  -0.00000   2.07211
   R24        2.07649   0.00000   0.00000   0.00001   0.00001   2.07650
    A1        1.93513  -0.00000   0.00000  -0.00000  -0.00000   1.93513
    A2        1.93501   0.00000   0.00000   0.00001   0.00001   1.93502
    A3        1.85445  -0.00000   0.00000  -0.00001  -0.00001   1.85444
    A4        1.89201  -0.00000   0.00000  -0.00001  -0.00001   1.89200
    A5        1.92378   0.00000   0.00000   0.00000   0.00000   1.92378
    A6        1.92370   0.00000   0.00000   0.00001   0.00001   1.92371
    A7        2.02777  -0.00000   0.00000  -0.00001  -0.00001   2.02776
    A8        2.13281   0.00001   0.00000   0.00002   0.00002   2.13283
    A9        1.95593   0.00000   0.00000   0.00000   0.00000   1.95593
   A10        2.19444  -0.00001   0.00000  -0.00002  -0.00002   2.19442
   A11        2.07930   0.00000   0.00000   0.00000   0.00000   2.07930
   A12        2.11946  -0.00000   0.00000  -0.00001  -0.00001   2.11945
   A13        2.08443   0.00000   0.00000   0.00001   0.00001   2.08443
   A14        2.08105  -0.00000   0.00000  -0.00001  -0.00001   2.08104
   A15        2.07018   0.00000   0.00000  -0.00000  -0.00000   2.07018
   A16        2.13195   0.00000   0.00000   0.00001   0.00001   2.13196
   A17        2.19318   0.00000   0.00000   0.00001   0.00001   2.19319
   A18        2.04768   0.00000   0.00000   0.00000   0.00000   2.04768
   A19        2.04233  -0.00000   0.00000  -0.00001  -0.00001   2.04232
   A20        2.06913  -0.00000   0.00000  -0.00000  -0.00000   2.06912
   A21        1.86258  -0.00000   0.00000  -0.00001  -0.00001   1.86258
   A22        1.94980   0.00000   0.00000   0.00001   0.00001   1.94980
   A23        1.94981   0.00000   0.00000   0.00001   0.00001   1.94981
   A24        1.90055  -0.00000   0.00000  -0.00000  -0.00000   1.90055
   A25        1.90054  -0.00000   0.00000  -0.00000  -0.00000   1.90054
   A26        1.89926  -0.00000   0.00000  -0.00000  -0.00000   1.89926
   A27        2.15392   0.00000   0.00000   0.00000   0.00000   2.15392
   A28        2.07014  -0.00000   0.00000  -0.00001  -0.00001   2.07013
   A29        2.05913   0.00000   0.00000   0.00001   0.00001   2.05914
   A30        2.10356  -0.00000   0.00000  -0.00000  -0.00000   2.10356
   A31        2.09574  -0.00000   0.00000  -0.00000  -0.00000   2.09573
   A32        2.16742  -0.00000   0.00000  -0.00000  -0.00000   2.16741
   A33        2.02003   0.00000   0.00000   0.00000   0.00000   2.02004
   A34        1.94495  -0.00000   0.00000  -0.00001  -0.00001   1.94494
   A35        1.88668  -0.00000   0.00000  -0.00001  -0.00001   1.88667
   A36        1.94625  -0.00000   0.00000   0.00000   0.00000   1.94625
   A37        1.91689   0.00000   0.00000   0.00000   0.00000   1.91690
   A38        1.85067   0.00000   0.00000   0.00000   0.00000   1.85068
   A39        1.91854   0.00000   0.00000   0.00001   0.00001   1.91855
    D1       -1.05098  -0.00000   0.00000  -0.00006  -0.00006  -1.05105
    D2        1.05152  -0.00000   0.00000  -0.00007  -0.00007   1.05145
    D3       -3.14140  -0.00000   0.00000  -0.00006  -0.00006  -3.14146
    D4       -0.00018   0.00000   0.00000   0.00002   0.00002  -0.00016
    D5        3.14134   0.00000   0.00000   0.00002   0.00002   3.14136
    D6       -0.00816  -0.00000   0.00000  -0.00002  -0.00002  -0.00818
    D7        3.13348  -0.00000   0.00000  -0.00002  -0.00002   3.13346
    D8        3.13336  -0.00000   0.00000  -0.00002  -0.00002   3.13334
    D9       -0.00819  -0.00000   0.00000  -0.00002  -0.00002  -0.00820
   D10       -3.14090   0.00000   0.00000   0.00001   0.00001  -3.14089
   D11        0.00060  -0.00000   0.00000  -0.00000  -0.00000   0.00060
   D12        0.00065   0.00000   0.00000   0.00000   0.00000   0.00065
   D13       -3.14104  -0.00000   0.00000  -0.00001  -0.00001  -3.14104
   D14        3.14119  -0.00000   0.00000  -0.00000  -0.00000   3.14119
   D15       -0.00029   0.00000   0.00000   0.00001   0.00001  -0.00028
   D16       -0.00035   0.00000   0.00000   0.00000   0.00000  -0.00035
   D17        3.14136   0.00000   0.00000   0.00002   0.00002   3.14137
   D18        3.14129  -0.00000   0.00000  -0.00001  -0.00001   3.14128
   D19       -0.00038  -0.00000   0.00000  -0.00002  -0.00002  -0.00040
   D20       -0.00021   0.00000   0.00000   0.00000   0.00000  -0.00020
   D21        3.14131  -0.00000   0.00000  -0.00001  -0.00001   3.14130
   D22        0.00022  -0.00000   0.00000  -0.00000  -0.00000   0.00022
   D23       -3.14129   0.00000   0.00000   0.00001   0.00001  -3.14128
   D24       -0.00021   0.00000   0.00000   0.00003   0.00003  -0.00018
   D25        3.14158   0.00000   0.00000   0.00001   0.00001   3.14159
   D26        3.14131   0.00000   0.00000   0.00002   0.00002   3.14133
   D27       -0.00008   0.00000   0.00000   0.00000   0.00000  -0.00008
   D28        3.14155   0.00000   0.00000   0.00000   0.00000   3.14155
   D29        1.06605   0.00000   0.00000   0.00001   0.00001   1.06605
   D30       -1.06615  -0.00000   0.00000   0.00000   0.00000  -1.06615
   D31        0.00052  -0.00000   0.00000  -0.00002  -0.00002   0.00050
   D32       -3.14127  -0.00000   0.00000  -0.00000  -0.00000  -3.14127
   D33       -0.00023   0.00000   0.00000   0.00001   0.00001  -0.00023
   D34        3.14126  -0.00000   0.00000  -0.00001  -0.00001   3.14125
   D35        1.04408   0.00000   0.00000   0.00005   0.00005   1.04413
   D36       -3.13110  -0.00000   0.00000   0.00004   0.00004  -3.13106
   D37       -1.02026   0.00000   0.00000   0.00005   0.00005  -1.02021
   D38       -2.09741   0.00000   0.00000   0.00006   0.00006  -2.09735
   D39        0.01060  -0.00000   0.00000   0.00005   0.00005   0.01065
   D40        2.12144   0.00000   0.00000   0.00006   0.00006   2.12150
         Item               Value     Threshold  Converged?
 Maximum Force            0.000020     0.000450     YES
 RMS     Force            0.000003     0.000300     YES
 Maximum Displacement     0.000184     0.001800     YES
 RMS     Displacement     0.000043     0.001200     YES
 Predicted change in Energy=-1.412543D-09
 Optimization completed.
    -- Stationary point found.
                           ----------------------------
                           !   Optimized Parameters   !
                           ! (Angstroms and Degrees)  !
 --------------------------                            --------------------------
 ! Name  Definition              Value          Derivative Info.                !
 --------------------------------------------------------------------------------
 ! R1    R(1,2)                  1.4169         -DE/DX =    0.0                 !
 ! R2    R(1,14)                 1.0995         -DE/DX =    0.0                 !
 ! R3    R(1,15)                 1.0995         -DE/DX =    0.0                 !
 ! R4    R(1,16)                 1.0956         -DE/DX =    0.0                 !
 ! R5    R(2,3)                  1.3417         -DE/DX =    0.0                 !
 ! R6    R(3,4)                  1.2049         -DE/DX =    0.0                 !
 ! R7    R(3,5)                  1.4929         -DE/DX =    0.0                 !
 ! R8    R(5,6)                  1.4032         -DE/DX =    0.0                 !
 ! R9    R(5,12)                 1.4085         -DE/DX =    0.0                 !
 ! R10   R(6,7)                  1.3888         -DE/DX =    0.0                 !
 ! R11   R(6,17)                 1.0886         -DE/DX =    0.0                 !
 ! R12   R(7,8)                  1.3465         -DE/DX =    0.0                 !
 ! R13   R(7,10)                 1.4035         -DE/DX =    0.0                 !
 ! R14   R(8,9)                  1.4023         -DE/DX =    0.0                 !
 ! R15   R(9,18)                 1.0964         -DE/DX =    0.0                 !
 ! R16   R(9,19)                 1.1041         -DE/DX =    0.0                 !
 ! R17   R(9,20)                 1.1041         -DE/DX =    0.0                 !
 ! R18   R(10,11)                1.3196         -DE/DX =    0.0                 !
 ! R19   R(10,21)                1.0958         -DE/DX =    0.0                 !
 ! R20   R(11,12)                1.3411         -DE/DX =    0.0                 !
 ! R21   R(12,13)                1.5033         -DE/DX =    0.0                 !
 ! R22   R(13,22)                1.099          -DE/DX =    0.0                 !
 ! R23   R(13,23)                1.0965         -DE/DX =    0.0                 !
 ! R24   R(13,24)                1.0988         -DE/DX =    0.0                 !
 ! A1    A(2,1,14)             110.8751         -DE/DX =    0.0                 !
 ! A2    A(2,1,15)             110.8681         -DE/DX =    0.0                 !
 ! A3    A(2,1,16)             106.252          -DE/DX =    0.0                 !
 ! A4    A(14,1,15)            108.4042         -DE/DX =    0.0                 !
 ! A5    A(14,1,16)            110.2243         -DE/DX =    0.0                 !
 ! A6    A(15,1,16)            110.2201         -DE/DX =    0.0                 !
 ! A7    A(1,2,3)              116.1829         -DE/DX =    0.0                 !
 ! A8    A(2,3,4)              122.201          -DE/DX =    0.0                 !
 ! A9    A(2,3,5)              112.0668         -DE/DX =    0.0                 !
 ! A10   A(4,3,5)              125.7322         -DE/DX =    0.0                 !
 ! A11   A(3,5,6)              119.1349         -DE/DX =    0.0                 !
 ! A12   A(3,5,12)             121.4362         -DE/DX =    0.0                 !
 ! A13   A(6,5,12)             119.4289         -DE/DX =    0.0                 !
 ! A14   A(5,6,7)              119.2354         -DE/DX =    0.0                 !
 ! A15   A(5,6,17)             118.6128         -DE/DX =    0.0                 !
 ! A16   A(7,6,17)             122.1518         -DE/DX =    0.0                 !
 ! A17   A(6,7,8)              125.6599         -DE/DX =    0.0                 !
 ! A18   A(6,7,10)             117.3233         -DE/DX =    0.0                 !
 ! A19   A(8,7,10)             117.0168         -DE/DX =    0.0                 !
 ! A20   A(7,8,9)              118.5521         -DE/DX =    0.0                 !
 ! A21   A(8,9,18)             106.718          -DE/DX =    0.0                 !
 ! A22   A(8,9,19)             111.7151         -DE/DX =    0.0                 !
 ! A23   A(8,9,20)             111.7158         -DE/DX =    0.0                 !
 ! A24   A(18,9,19)            108.8937         -DE/DX =    0.0                 !
 ! A25   A(18,9,20)            108.8929         -DE/DX =    0.0                 !
 ! A26   A(19,9,20)            108.8197         -DE/DX =    0.0                 !
 ! A27   A(7,10,11)            123.4105         -DE/DX =    0.0                 !
 ! A28   A(7,10,21)            118.6101         -DE/DX =    0.0                 !
 ! A29   A(11,10,21)           117.9793         -DE/DX =    0.0                 !
 ! A30   A(10,11,12)           120.5251         -DE/DX =    0.0                 !
 ! A31   A(5,12,11)            120.0768         -DE/DX =    0.0                 !
 ! A32   A(5,12,13)            124.1838         -DE/DX =    0.0                 !
 ! A33   A(11,12,13)           115.7394         -DE/DX =    0.0                 !
 ! A34   A(12,13,22)           111.4372         -DE/DX =    0.0                 !
 ! A35   A(12,13,23)           108.0988         -DE/DX =    0.0                 !
 ! A36   A(12,13,24)           111.5117         -DE/DX =    0.0                 !
 ! A37   A(22,13,23)           109.8299         -DE/DX =    0.0                 !
 ! A38   A(22,13,24)           106.0358         -DE/DX =    0.0                 !
 ! A39   A(23,13,24)           109.9243         -DE/DX =    0.0                 !
 ! D1    D(14,1,2,3)           -60.2168         -DE/DX =    0.0                 !
 ! D2    D(15,1,2,3)            60.2476         -DE/DX =    0.0                 !
 ! D3    D(16,1,2,3)          -179.989          -DE/DX =    0.0                 !
 ! D4    D(1,2,3,4)             -0.0101         -DE/DX =    0.0                 !
 ! D5    D(1,2,3,5)            179.9858         -DE/DX =    0.0                 !
 ! D6    D(2,3,5,6)             -0.4676         -DE/DX =    0.0                 !
 ! D7    D(2,3,5,12)           179.5352         -DE/DX =    0.0                 !
 ! D8    D(4,3,5,6)            179.5282         -DE/DX =    0.0                 !
 ! D9    D(4,3,5,12)            -0.469          -DE/DX =    0.0                 !
 ! D10   D(3,5,6,7)           -179.9601         -DE/DX =    0.0                 !
 ! D11   D(3,5,6,17)             0.0346         -DE/DX =    0.0                 !
 ! D12   D(12,5,6,7)             0.0372         -DE/DX =    0.0                 !
 ! D13   D(12,5,6,17)         -179.9681         -DE/DX =    0.0                 !
 ! D14   D(3,5,12,11)          179.9771         -DE/DX =    0.0                 !
 ! D15   D(3,5,12,13)           -0.0164         -DE/DX =    0.0                 !
 ! D16   D(6,5,12,11)           -0.0201         -DE/DX =    0.0                 !
 ! D17   D(6,5,12,13)          179.9864         -DE/DX =    0.0                 !
 ! D18   D(5,6,7,8)            179.9828         -DE/DX =    0.0                 !
 ! D19   D(5,6,7,10)            -0.0218         -DE/DX =    0.0                 !
 ! D20   D(17,6,7,8)            -0.0118         -DE/DX =    0.0                 !
 ! D21   D(17,6,7,10)          179.9837         -DE/DX =    0.0                 !
 ! D22   D(6,7,8,9)              0.0128         -DE/DX =    0.0                 !
 ! D23   D(10,7,8,9)          -179.9827         -DE/DX =    0.0                 !
 ! D24   D(6,7,10,11)           -0.0118         -DE/DX =    0.0                 !
 ! D25   D(6,7,10,21)          179.9994         -DE/DX =    0.0                 !
 ! D26   D(8,7,10,11)          179.984          -DE/DX =    0.0                 !
 ! D27   D(8,7,10,21)           -0.0047         -DE/DX =    0.0                 !
 ! D28   D(7,8,9,18)           179.9974         -DE/DX =    0.0                 !
 ! D29   D(7,8,9,19)            61.0799         -DE/DX =    0.0                 !
 ! D30   D(7,8,9,20)           -61.0858         -DE/DX =    0.0                 !
 ! D31   D(7,10,11,12)           0.0299         -DE/DX =    0.0                 !
 ! D32   D(21,10,11,12)       -179.9812         -DE/DX =    0.0                 !
 ! D33   D(10,11,12,5)          -0.0132         -DE/DX =    0.0                 !
 ! D34   D(10,11,12,13)        179.9808         -DE/DX =    0.0                 !
 ! D35   D(5,12,13,22)          59.8213         -DE/DX =    0.0                 !
 ! D36   D(5,12,13,23)        -179.399          -DE/DX =    0.0                 !
 ! D37   D(5,12,13,24)         -58.4565         -DE/DX =    0.0                 !
 ! D38   D(11,12,13,22)       -120.1725         -DE/DX =    0.0                 !
 ! D39   D(11,12,13,23)          0.6072         -DE/DX =    0.0                 !
 ! D40   D(11,12,13,24)        121.5497         -DE/DX =    0.0                 !
 --------------------------------------------------------------------------------
 GradGradGradGradGradGradGradGradGradGradGradGradGradGradGradGradGradGrad

                          Input orientation:                          
 ---------------------------------------------------------------------
 Center     Atomic      Atomic             Coordinates (Angstroms)
 Number     Number       Type             X           Y           Z
 ---------------------------------------------------------------------
      1          6           0       -3.040760   -2.233960   -0.004190
      2          8           0       -1.775190   -1.596720   -0.005590
      3          6           0       -1.787890   -0.255090    0.002610
      4          8           0       -2.813440    0.377250    0.010540
      5          6           0       -0.409700    0.318880    0.000700
      6          6           0        0.692210   -0.549950    0.001110
      7          6           0        1.975210   -0.018260    0.000180
      8          8           0        3.119210   -0.728410    0.000760
      9          6           0        3.039020   -2.128410    0.002170
     10          6           0        2.092980    1.380250   -0.001610
     11          7           0        1.056290    2.196750   -0.002660
     12          6           0       -0.193590    1.710680   -0.001440
     13          6           0       -1.292850    2.736110   -0.002370
     14          1           0       -3.616470   -1.959800    0.891540
     15          1           0       -3.623580   -1.949320   -0.892020
     16          1           0       -2.841600   -3.311320   -0.011360
     17          1           0        0.509870   -1.623210    0.002240
     18          1           0        4.069370   -2.503350    0.002380
     19          1           0        2.520330   -2.508780   -0.895220
     20          1           0        2.520630   -2.507000    0.900480
     21          1           0        3.095610    1.822390   -0.002360
     22          1           0       -1.936880    2.635350    0.882420
     23          1           0       -0.831030    3.730550   -0.014990
     24          1           0       -1.952740    2.618620   -0.873100
 ---------------------------------------------------------------------
                    Distance matrix (angstroms):
                    1          2          3          4          5
     1  C    0.000000
     2  O    1.416949   0.000000
     3  C    2.342148   1.341715   0.000000
     4  O    2.621127   2.230422   1.204853   0.000000
     5  C    3.665991   2.352472   1.492934   2.404469   0.000000
     6  C    4.095239   2.680268   2.497567   3.626206   1.403236
     7  C    5.483548   4.069038   3.770546   4.804967   2.408622
     8  O    6.341288   4.970830   4.929875   6.034809   3.681035
     9  C    6.080699   4.843488   5.177682   6.366293   4.228818
    10  C    6.278360   4.881097   4.211354   5.007905   2.718441
    11  N    6.034651   4.733677   3.755117   4.276162   2.382338
    12  C    4.864830   3.666111   2.531020   2.939693   1.408480
    13  C    5.268471   4.359596   3.031892   2.806525   2.573512
    14  H    1.099517   2.080140   2.653288   2.623513   4.033529
    15  H    1.099519   2.080055   2.653401   2.623713   4.033696
    16  H    1.095637   2.019187   3.232807   3.688743   4.369512
    17  H    3.602781   2.285227   2.674220   3.878956   2.148796
    18  H    7.115235   5.914467   6.273928   7.461300   5.294058
    19  H    5.638722   4.480490   4.944287   6.131776   4.169342
    20  H    5.641102   4.483709   4.943745   6.128882   4.169177
    21  H    7.355883   5.951052   5.307026   6.083212   3.814151
    22  H    5.070977   4.327253   3.025047   2.574402   2.911313
    23  H    6.360692   5.410299   4.098929   3.895539   3.437624
    24  H    5.048398   4.307341   3.008696   2.558391   2.904015
                    6          7          8          9         10
     6  C    0.000000
     7  C    1.388807   0.000000
     8  O    2.433552   1.346495   0.000000
     9  C    2.828260   2.363140   1.402295   0.000000
    10  C    2.384918   1.403461   2.345123   3.633965   0.000000
    11  N    2.770727   2.398060   3.579415   4.757967   1.319621
    12  C    2.427982   2.773613   4.113856   5.018804   2.310322
    13  C    3.839097   4.273965   5.609740   6.513730   3.647218
    14  H    4.620094   5.985899   6.905012   6.716767   6.674689
    15  H    4.624063   5.989279   6.910347   6.724722   6.675172
    16  H    4.484767   5.834898   6.496370   5.998429   6.808892
    17  H    1.088640   2.173267   2.758500   2.579114   3.395147
    18  H    3.901408   3.249797   2.013261   1.096449   4.357578
    19  H    2.825322   2.702145   2.081143   1.104097   4.013193
    20  H    2.825249   2.702194   2.081148   1.104092   4.013398
    21  H    3.377031   2.154831   2.550911   3.951208   1.095790
    22  H    4.223145   4.808788   6.136469   6.944626   4.312373
    23  H    4.543479   4.682819   5.957094   7.021751   3.751523
    24  H    4.218986   4.810878   6.139293   6.943922   4.319827
                   11         12         13         14         15
    11  N    0.000000
    12  C    1.341069   0.000000
    13  C    2.410263   1.503290   0.000000
    14  H    6.317530   5.097641   5.315059   0.000000
    15  H    6.315223   5.094464   5.308204   1.783605   0.000000
    16  H    6.747774   5.677371   6.242605   1.800627   1.800583
    17  H    3.858846   3.407300   4.717361   4.234481   4.241634
    18  H    5.582976   5.994238   7.497024   7.756171   7.764559
    19  H    5.008202   5.095885   6.545716   6.415154   6.169330
    20  H    5.008515   5.096006   6.545836   6.161453   6.424592
    21  H    2.073396   3.291097   4.482574   7.756032   7.756598
    22  H    3.151952   2.162240   1.098991   4.892495   5.197383
    23  H    2.432010   2.118110   1.096516   6.400043   6.389714
    24  H    3.160681   2.163043   1.098831   5.181108   4.863963
                   16         17         18         19         20
    16  H    0.000000
    17  H    3.752633   0.000000
    18  H    6.958054   3.666700   0.000000
    19  H    5.493230   2.373103   1.790318   0.000000
    20  H    5.498354   2.372989   1.790305   1.795701   0.000000
    21  H    7.848919   4.307927   4.433989   4.459504   4.459747
    22  H    6.081138   4.989653   7.953348   7.034828   6.805401
    23  H    7.323274   5.519154   7.929422   7.136922   7.139940
    24  H    6.057793   4.982348   7.954046   6.804342   7.030548
                   21         22         23         24
    21  H    0.000000
    22  H    5.173944   0.000000
    23  H    4.365746   1.796583   0.000000
    24  H    5.184400   1.755671   1.797491   0.000000
 Stoichiometry    C9H11NO3
 Framework group  C1[X(C9H11NO3)]
 Deg. of freedom    66
 Full point group                 C1      NOp   1
 Largest Abelian subgroup         C1      NOp   1
 Largest concise Abelian subgroup C1      NOp   1
                         Standard orientation:                         
 ---------------------------------------------------------------------
 Center     Atomic      Atomic             Coordinates (Angstroms)
 Number     Number       Type             X           Y           Z
 ---------------------------------------------------------------------
      1          6           0       -3.040759   -2.233959   -0.004190
      2          8           0       -1.775189   -1.596719   -0.005590
      3          6           0       -1.787890   -0.255089    0.002610
      4          8           0       -2.813440    0.377251    0.010540
      5          6           0       -0.409700    0.318882    0.000700
      6          6           0        0.692211   -0.549948    0.001110
      7          6           0        1.975210   -0.018258    0.000180
      8          8           0        3.119211   -0.728408    0.000760
      9          6           0        3.039021   -2.128408    0.002170
     10          6           0        2.092980    1.380252   -0.001610
     11          7           0        1.056290    2.196752   -0.002660
     12          6           0       -0.193590    1.710682   -0.001440
     13          6           0       -1.292850    2.736111   -0.002370
     14          1           0       -3.616469   -1.959799    0.891540
     15          1           0       -3.623579   -1.949319   -0.892020
     16          1           0       -2.841599   -3.311319   -0.011360
     17          1           0        0.509871   -1.623208    0.002240
     18          1           0        4.069371   -2.503348    0.002380
     19          1           0        2.520331   -2.508778   -0.895220
     20          1           0        2.520631   -2.506998    0.900480
     21          1           0        3.095610    1.822392   -0.002360
     22          1           0       -1.936880    2.635351    0.882420
     23          1           0       -0.831030    3.730552   -0.014990
     24          1           0       -1.952740    2.618621   -0.873100
 ---------------------------------------------------------------------
 Rotational constants (GHZ):           1.0916511           0.6138727           0.3958651
 Unable to Open any file for archive entry.
 1\1\GINC-NOTCH302\FOpt\RwB97XD\def2SVP\C9H11N1O3\U6053008\12-Jul-2024\
 0\\#N OPT FREQ=NORAMAN Integral(Ultrafine) wB97XD def2SVP\\12356206_1\
 \0,1\C,-3.04076,-2.23396,-0.00419\O,-1.77519,-1.59672,-0.00559\C,-1.78
 789,-0.25509,0.00261\O,-2.81344,0.37725,0.01054\C,-0.4097,0.31888,0.00
 07\C,0.69221,-0.54995,0.00111\C,1.97521,-0.01826,0.00018\O,3.11921,-0.
 72841,0.00076\C,3.03902,-2.12841,0.00217\C,2.09298,1.38025,-0.00161\N,
 1.05629,2.19675,-0.00266\C,-0.19359,1.71068,-0.00144\C,-1.29285,2.7361
 1,-0.00237\H,-3.61647,-1.9598,0.89154\H,-3.62358,-1.94932,-0.89202\H,-
 2.8416,-3.31132,-0.01136\H,0.50987,-1.62321,0.00224\H,4.06937,-2.50335
 ,0.00238\H,2.52033,-2.50878,-0.89522\H,2.52063,-2.507,0.90048\H,3.0956
 1,1.82239,-0.00236\H,-1.93688,2.63535,0.88242\H,-0.83103,3.73055,-0.01
 499\H,-1.95274,2.61862,-0.8731\\Version=ES64L-G16RevC.01\State=1-A\HF=
 -629.3403665\RMSD=4.140e-09\RMSF=6.402e-06\Dipole=0.1679825,-1.7447,-0
 .0021752\Quadrupole=-0.4469763,2.0161442,-1.5691679,-0.0816293,0.04408
 13,-0.0071725\PG=C01 [X(C9H11N1O3)]\\@
 The archive entry for this job was punched.


 BREAD HAS TO MOLD IN ORDER TO GET PENICILLIN.
          -- JERRY BOATZ
 Job cpu time:       0 days  0 hours  7 minutes 34.0 seconds.
 Elapsed time:       0 days  0 hours  0 minutes 29.2 seconds.
 File lengths (MBytes):  RWF=     49 Int=      0 D2E=      0 Chk=      6 Scr=      2
 Normal termination of Gaussian 16 at Fri Jul 12 13:09:57 2024.
 Link1:  Proceeding to internal job step number  2.
 --------------------------------------------------------------------
 #N Geom=AllCheck Guess=TCheck SCRF=Check GenChk RwB97XD/def2SVP Freq
 --------------------------------------------------------------------
 1/10=4,29=7,30=1,38=1,40=1/1,3;
 2/12=2,40=1/2;
 3/5=43,7=101,11=2,14=-4,25=1,30=1,70=2,71=2,74=-58,75=-5,116=1,140=1/1,2,3;
 4/5=101/1;
 5/5=2,38=6,98=1/2;
 8/6=4,10=90,11=11/1;
 11/6=1,8=1,9=11,15=111,16=1/1,2,10;
 10/6=1/2;
 6/7=2,8=2,9=2,10=2,28=1/1;
 7/8=1,10=1,25=1/1,2,3,16;
 1/10=4,30=1/3;
 99//99;
 Structure from the checkpoint file:  "12356206_1.chk"
 ----------
 12356206_1
 ----------
 Charge =  0 Multiplicity = 1
 Redundant internal coordinates found in file.  (old form).
 C,0,-3.04076,-2.23396,-0.00419
 O,0,-1.77519,-1.59672,-0.00559
 C,0,-1.78789,-0.25509,0.00261
 O,0,-2.81344,0.37725,0.01054
 C,0,-0.4097,0.31888,0.0007
 C,0,0.69221,-0.54995,0.00111
 C,0,1.97521,-0.01826,0.00018
 O,0,3.11921,-0.72841,0.00076
 C,0,3.03902,-2.12841,0.00217
 C,0,2.09298,1.38025,-0.00161
 N,0,1.05629,2.19675,-0.00266
 C,0,-0.19359,1.71068,-0.00144
 C,0,-1.29285,2.73611,-0.00237
 H,0,-3.61647,-1.9598,0.89154
 H,0,-3.62358,-1.94932,-0.89202
 H,0,-2.8416,-3.31132,-0.01136
 H,0,0.50987,-1.62321,0.00224
 H,0,4.06937,-2.50335,0.00238
 H,0,2.52033,-2.50878,-0.89522
 H,0,2.52063,-2.507,0.90048
 H,0,3.09561,1.82239,-0.00236
 H,0,-1.93688,2.63535,0.88242
 H,0,-0.83103,3.73055,-0.01499
 H,0,-1.95274,2.61862,-0.8731
 Recover connectivity data from disk.

 GradGradGradGradGradGradGradGradGradGradGradGradGradGradGradGradGradGrad
 Berny optimization.
 Initialization pass.
                           ----------------------------
                           !    Initial Parameters    !
                           ! (Angstroms and Degrees)  !
 --------------------------                            --------------------------
 ! Name  Definition              Value          Derivative Info.                !
 --------------------------------------------------------------------------------
 ! R1    R(1,2)                  1.4169         calculate D2E/DX2 analytically  !
 ! R2    R(1,14)                 1.0995         calculate D2E/DX2 analytically  !
 ! R3    R(1,15)                 1.0995         calculate D2E/DX2 analytically  !
 ! R4    R(1,16)                 1.0956         calculate D2E/DX2 analytically  !
 ! R5    R(2,3)                  1.3417         calculate D2E/DX2 analytically  !
 ! R6    R(3,4)                  1.2049         calculate D2E/DX2 analytically  !
 ! R7    R(3,5)                  1.4929         calculate D2E/DX2 analytically  !
 ! R8    R(5,6)                  1.4032         calculate D2E/DX2 analytically  !
 ! R9    R(5,12)                 1.4085         calculate D2E/DX2 analytically  !
 ! R10   R(6,7)                  1.3888         calculate D2E/DX2 analytically  !
 ! R11   R(6,17)                 1.0886         calculate D2E/DX2 analytically  !
 ! R12   R(7,8)                  1.3465         calculate D2E/DX2 analytically  !
 ! R13   R(7,10)                 1.4035         calculate D2E/DX2 analytically  !
 ! R14   R(8,9)                  1.4023         calculate D2E/DX2 analytically  !
 ! R15   R(9,18)                 1.0964         calculate D2E/DX2 analytically  !
 ! R16   R(9,19)                 1.1041         calculate D2E/DX2 analytically  !
 ! R17   R(9,20)                 1.1041         calculate D2E/DX2 analytically  !
 ! R18   R(10,11)                1.3196         calculate D2E/DX2 analytically  !
 ! R19   R(10,21)                1.0958         calculate D2E/DX2 analytically  !
 ! R20   R(11,12)                1.3411         calculate D2E/DX2 analytically  !
 ! R21   R(12,13)                1.5033         calculate D2E/DX2 analytically  !
 ! R22   R(13,22)                1.099          calculate D2E/DX2 analytically  !
 ! R23   R(13,23)                1.0965         calculate D2E/DX2 analytically  !
 ! R24   R(13,24)                1.0988         calculate D2E/DX2 analytically  !
 ! A1    A(2,1,14)             110.8751         calculate D2E/DX2 analytically  !
 ! A2    A(2,1,15)             110.8681         calculate D2E/DX2 analytically  !
 ! A3    A(2,1,16)             106.252          calculate D2E/DX2 analytically  !
 ! A4    A(14,1,15)            108.4042         calculate D2E/DX2 analytically  !
 ! A5    A(14,1,16)            110.2243         calculate D2E/DX2 analytically  !
 ! A6    A(15,1,16)            110.2201         calculate D2E/DX2 analytically  !
 ! A7    A(1,2,3)              116.1829         calculate D2E/DX2 analytically  !
 ! A8    A(2,3,4)              122.201          calculate D2E/DX2 analytically  !
 ! A9    A(2,3,5)              112.0668         calculate D2E/DX2 analytically  !
 ! A10   A(4,3,5)              125.7322         calculate D2E/DX2 analytically  !
 ! A11   A(3,5,6)              119.1349         calculate D2E/DX2 analytically  !
 ! A12   A(3,5,12)             121.4362         calculate D2E/DX2 analytically  !
 ! A13   A(6,5,12)             119.4289         calculate D2E/DX2 analytically  !
 ! A14   A(5,6,7)              119.2354         calculate D2E/DX2 analytically  !
 ! A15   A(5,6,17)             118.6128         calculate D2E/DX2 analytically  !
 ! A16   A(7,6,17)             122.1518         calculate D2E/DX2 analytically  !
 ! A17   A(6,7,8)              125.6599         calculate D2E/DX2 analytically  !
 ! A18   A(6,7,10)             117.3233         calculate D2E/DX2 analytically  !
 ! A19   A(8,7,10)             117.0168         calculate D2E/DX2 analytically  !
 ! A20   A(7,8,9)              118.5521         calculate D2E/DX2 analytically  !
 ! A21   A(8,9,18)             106.718          calculate D2E/DX2 analytically  !
 ! A22   A(8,9,19)             111.7151         calculate D2E/DX2 analytically  !
 ! A23   A(8,9,20)             111.7158         calculate D2E/DX2 analytically  !
 ! A24   A(18,9,19)            108.8937         calculate D2E/DX2 analytically  !
 ! A25   A(18,9,20)            108.8929         calculate D2E/DX2 analytically  !
 ! A26   A(19,9,20)            108.8197         calculate D2E/DX2 analytically  !
 ! A27   A(7,10,11)            123.4105         calculate D2E/DX2 analytically  !
 ! A28   A(7,10,21)            118.6101         calculate D2E/DX2 analytically  !
 ! A29   A(11,10,21)           117.9793         calculate D2E/DX2 analytically  !
 ! A30   A(10,11,12)           120.5251         calculate D2E/DX2 analytically  !
 ! A31   A(5,12,11)            120.0768         calculate D2E/DX2 analytically  !
 ! A32   A(5,12,13)            124.1838         calculate D2E/DX2 analytically  !
[...]
 Alpha virt. eigenvalues --    2.59034   2.59243   2.60645   2.61710   2.62314
 Alpha virt. eigenvalues --    2.62940   2.64377   2.64768   2.67320   2.69822
 Alpha virt. eigenvalues --    2.71459   2.72990   2.73976   2.76585   2.76624
 Alpha virt. eigenvalues --    2.78302   2.80148   2.81241   2.84815   2.86213
 Alpha virt. eigenvalues --    2.86698   2.88425   2.89528   2.90316   2.90819
 Alpha virt. eigenvalues --    2.92845   2.93088   2.93472   2.93596   2.96867
 Alpha virt. eigenvalues --    2.98362   2.99687   3.02786   3.04441   3.04771
 Alpha virt. eigenvalues --    3.05549   3.06315   3.10720   3.11389   3.12461
 Alpha virt. eigenvalues --    3.13583   3.15018   3.16113   3.17974   3.18111
 Alpha virt. eigenvalues --    3.20976   3.21402   3.22218   3.25150   3.25417
 Alpha virt. eigenvalues --    3.25842   3.25935   3.27768   3.28312   3.29183
 Alpha virt. eigenvalues --    3.30356   3.31268   3.32440   3.32759   3.34566
 Alpha virt. eigenvalues --    3.35217   3.36124   3.37507   3.38025   3.39559
 Alpha virt. eigenvalues --    3.40231   3.42128   3.43231   3.43474   3.44057
 Alpha virt. eigenvalues --    3.44887   3.45499   3.46066   3.47029   3.47755
 Alpha virt. eigenvalues --    3.49682   3.49709   3.50477   3.53302   3.53332
 Alpha virt. eigenvalues --    3.57777   3.58281   3.59827   3.61182   3.62192
 Alpha virt. eigenvalues --    3.63287   3.64042   3.65334   3.66007   3.66045
 Alpha virt. eigenvalues --    3.68003   3.70377   3.72110   3.79095   3.79299
 Alpha virt. eigenvalues --    3.80107   3.83155   3.85521   3.90321   3.91186
 Alpha virt. eigenvalues --    3.92982   3.95005   3.96086   3.98409   4.01518
 Alpha virt. eigenvalues --    4.03278   4.05295   4.10952   4.16775   4.18075
 Alpha virt. eigenvalues --    4.19014   4.20119   4.21992   4.24559   4.25395
 Alpha virt. eigenvalues --    4.25822   4.29874   4.31535   4.33267   4.36440
 Alpha virt. eigenvalues --    4.36948   4.41131   4.43602   4.45360   4.45491
 Alpha virt. eigenvalues --    4.46988   4.49962   4.51690   4.55065   4.60406
 Alpha virt. eigenvalues --    4.61099   4.62437   4.65918   4.68477   4.69499
 Alpha virt. eigenvalues --    4.75468   4.81480   4.83859   4.88978   4.95009
 Alpha virt. eigenvalues --    4.99010   4.99443   5.02153   5.06508   5.14168
 Alpha virt. eigenvalues --    5.21948   5.24862   5.25609   5.29264   5.34585
 Alpha virt. eigenvalues --    5.35064   5.35215   5.38990   5.40358   5.45690
 Alpha virt. eigenvalues --    5.46132   5.49614   5.56728   5.59779   5.64044
 Alpha virt. eigenvalues --    5.73456   5.75507   5.76998   5.81595   5.86168
 Alpha virt. eigenvalues --    5.93732   5.97878   6.01714   6.06174   6.09175
 Alpha virt. eigenvalues --    6.17765   6.24412   6.28984   6.43715   6.44279
 Alpha virt. eigenvalues --    6.48511   6.52036   6.67081   6.68340   6.72327
 Alpha virt. eigenvalues --    6.73915   6.84580   6.85631   6.86807   6.94686
 Alpha virt. eigenvalues --    6.97698   7.05083   7.15388   7.24363   7.26504
 Alpha virt. eigenvalues --    7.42449   7.51463   7.53863  22.44012  22.46714
 Alpha virt. eigenvalues --   22.56749  22.67685  22.87787  23.02434  23.19218
 Alpha virt. eigenvalues --   23.38571  23.61755  32.67146  44.06600  44.28916
 Alpha virt. eigenvalues --   44.32927
          Condensed to atoms (all electrons):
               1          2          3          4          5          6
     1  C    4.768090   0.226579  -0.043322   0.004954   0.007574  -0.002674
     2  O    0.226579   7.985693   0.384587  -0.084107  -0.160710   0.020451
     3  C   -0.043322   0.384587   4.541189   0.629536   0.232871  -0.072815
     4  O    0.004954  -0.084107   0.629536   7.905548  -0.082461   0.006587
     5  C    0.007574  -0.160710   0.232871  -0.082461   5.333185   0.299959
     6  C   -0.002674   0.020451  -0.072815   0.006587   0.299959   5.591608
     7  C   -0.000101  -0.000393   0.006387   0.000462   0.042125   0.198502
     8  O   -0.000001  -0.000004  -0.000002   0.000001   0.009812  -0.116337
     9  C    0.000006  -0.000443  -0.000261  -0.000002  -0.002217   0.027971
    10  C    0.000012   0.000475   0.003814   0.000099  -0.040653  -0.007882
    11  N    0.000025  -0.000237   0.008116   0.000092  -0.060016  -0.066119
    12  C   -0.000072  -0.007140  -0.035597  -0.021221   0.489738  -0.051175
    13  C   -0.000200   0.000071  -0.028753  -0.001981  -0.038216   0.003507
    14  H    0.419824  -0.035147  -0.008099   0.005063  -0.002454   0.000328
    15  H    0.419636  -0.034947  -0.008156   0.005068  -0.002590   0.000379
    16  H    0.395226  -0.033473   0.004339   0.001771   0.004309  -0.001122
    17  H   -0.000508   0.022721  -0.010682   0.000501  -0.007880   0.424510
    18  H    0.000000  -0.000004  -0.000003   0.000000   0.000332  -0.003395
    19  H    0.000000   0.000094   0.000005   0.000000  -0.001115   0.012644
    20  H    0.000001   0.000093   0.000005   0.000000  -0.001107   0.012664
    21  H    0.000000  -0.000002   0.000222  -0.000002  -0.001967   0.008026
    22  H    0.000018  -0.000051  -0.006323   0.000263   0.003189   0.001126
    23  H   -0.000009   0.000039  -0.000033   0.002190   0.008634  -0.000314
    24  H    0.000020  -0.000062  -0.006384   0.000110   0.002876   0.001264
               7          8          9         10         11         12
     1  C   -0.000101  -0.000001   0.000006   0.000012   0.000025  -0.000072
     2  O   -0.000393  -0.000004  -0.000443   0.000475  -0.000237  -0.007140
     3  C    0.006387  -0.000002  -0.000261   0.003814   0.008116  -0.035597
     4  O    0.000462   0.000001  -0.000002   0.000099   0.000092  -0.021221
     5  C    0.042125   0.009812  -0.002217  -0.040653  -0.060016   0.489738
     6  C    0.198502  -0.116337   0.027971  -0.007882  -0.066119  -0.051175
     7  C    4.956739   0.395864  -0.095126   0.433214  -0.056871  -0.020254
     8  O    0.395864   7.908767   0.246169  -0.052911   0.004013  -0.002051
     9  C   -0.095126   0.246169   4.802717  -0.000129  -0.000911   0.000971
    10  C    0.433214  -0.052911  -0.000129   4.824805   0.562518  -0.112261
    11  N   -0.056871   0.004013  -0.000911   0.562518   6.427080   0.520291
    12  C   -0.020254  -0.002051   0.000971  -0.112261   0.520291   4.977719
    13  C    0.001540   0.000003   0.000003   0.002252  -0.053249   0.289561
    14  H    0.000006  -0.000000  -0.000002   0.000003  -0.000001  -0.000130
    15  H    0.000010  -0.000000  -0.000002   0.000003  -0.000001  -0.000114
    16  H   -0.000098   0.000000   0.000007  -0.000005  -0.000000   0.000138
    17  H   -0.067561  -0.005409   0.006524   0.001587  -0.000883   0.005166
    18  H    0.007347  -0.030391   0.401793   0.000084   0.000016  -0.000015
    19  H   -0.016731  -0.040682   0.412662   0.000503  -0.000024   0.000017
    20  H   -0.016726  -0.040672   0.412637   0.000500  -0.000024   0.000004
    21  H   -0.096188   0.008568  -0.000508   0.443734  -0.024576   0.002293
    22  H   -0.000008  -0.000001   0.000000  -0.000226   0.000754  -0.032855
    23  H    0.000852  -0.000002   0.000002   0.000605   0.009402  -0.072075
    24  H   -0.000030  -0.000001   0.000000  -0.000214   0.000909  -0.034394
              13         14         15         16         17         18
     1  C   -0.000200   0.419824   0.419636   0.395226  -0.000508   0.000000
     2  O    0.000071  -0.035147  -0.034947  -0.033473   0.022721  -0.000004
     3  C   -0.028753  -0.008099  -0.008156   0.004339  -0.010682  -0.000003
     4  O   -0.001981   0.005063   0.005068   0.001771   0.000501   0.000000
     5  C   -0.038216  -0.002454  -0.002590   0.004309  -0.007880   0.000332
     6  C    0.003507   0.000328   0.000379  -0.001122   0.424510  -0.003395
     7  C    0.001540   0.000006   0.000010  -0.000098  -0.067561   0.007347
     8  O    0.000003  -0.000000  -0.000000   0.000000  -0.005409  -0.030391
     9  C    0.000003  -0.000002  -0.000002   0.000007   0.006524   0.401793
    10  C    0.002252   0.000003   0.000003  -0.000005   0.001587   0.000084
    11  N   -0.053249  -0.000001  -0.000001  -0.000000  -0.000883   0.000016
    12  C    0.289561  -0.000130  -0.000114   0.000138   0.005166  -0.000015
    13  C    4.909456  -0.000036  -0.000043   0.000013  -0.000186  -0.000000
    14  H   -0.000036   0.547816  -0.036590  -0.024234   0.000187  -0.000000
    15  H   -0.000043  -0.036590   0.547919  -0.024199   0.000201  -0.000000
    16  H    0.000013  -0.024234  -0.024199   0.548169  -0.000562   0.000000
    17  H   -0.000186   0.000187   0.000201  -0.000562   0.464571  -0.000284
    18  H   -0.000000  -0.000000  -0.000000   0.000000  -0.000284   0.516737
    19  H    0.000000   0.000000   0.000000   0.000000   0.000732  -0.019220
    20  H    0.000000   0.000000   0.000000  -0.000000   0.000715  -0.019225
    21  H   -0.000277   0.000000   0.000000   0.000000   0.000011  -0.000151
    22  H    0.403583   0.000030  -0.000009  -0.000000   0.000008  -0.000000
    23  H    0.427354  -0.000000  -0.000000  -0.000000   0.000001   0.000000
    24  H    0.405758  -0.000010   0.000034  -0.000000   0.000009  -0.000000
              19         20         21         22         23         24
     1  C    0.000000   0.000001   0.000000   0.000018  -0.000009   0.000020
     2  O    0.000094   0.000093  -0.000002  -0.000051   0.000039  -0.000062
     3  C    0.000005   0.000005   0.000222  -0.006323  -0.000033  -0.006384
     4  O    0.000000   0.000000  -0.000002   0.000263   0.002190   0.000110
     5  C   -0.001115  -0.001107  -0.001967   0.003189   0.008634   0.002876
     6  C    0.012644   0.012664   0.008026   0.001126  -0.000314   0.001264
     7  C   -0.016731  -0.016726  -0.096188  -0.000008   0.000852  -0.000030
     8  O   -0.040682  -0.040672   0.008568  -0.000001  -0.000002  -0.000001
     9  C    0.412662   0.412637  -0.000508   0.000000   0.000002   0.000000
    10  C    0.000503   0.000500   0.443734  -0.000226   0.000605  -0.000214
    11  N   -0.000024  -0.000024  -0.024576   0.000754   0.009402   0.000909
    12  C    0.000017   0.000004   0.002293  -0.032855  -0.072075  -0.034394
    13  C    0.000000   0.000000  -0.000277   0.403583   0.427354   0.405758
    14  H    0.000000   0.000000   0.000000   0.000030  -0.000000  -0.000010
    15  H    0.000000   0.000000   0.000000  -0.000009  -0.000000   0.000034
    16  H    0.000000  -0.000000   0.000000  -0.000000  -0.000000  -0.000000
    17  H    0.000732   0.000715   0.000011   0.000008   0.000001   0.000009
    18  H   -0.019220  -0.019225  -0.000151  -0.000000   0.000000  -0.000000
    19  H    0.580956  -0.054118   0.000104  -0.000001  -0.000000   0.000001
    20  H   -0.054118   0.581023   0.000105   0.000001  -0.000000  -0.000001
    21  H    0.000104   0.000105   0.525399   0.000003  -0.000316   0.000002
    22  H   -0.000001   0.000001   0.000003   0.550219  -0.021098  -0.025328
    23  H   -0.000000  -0.000000  -0.000316  -0.021098   0.533460  -0.021204
    24  H    0.000001  -0.000001   0.000002  -0.025328  -0.021204   0.549457
 Mulliken charges:
               1
     1  C   -0.195080
     2  O   -0.284084
     3  C    0.409360
     4  O   -0.372470
     5  C   -0.033217
     6  C   -0.287692
     7  C    0.327038
     8  O   -0.284734
     9  C   -0.211862
    10  C   -0.059927
    11  N   -0.270302
    12  C    0.103457
    13  C   -0.320161
    14  H    0.133444
    15  H    0.133401
    16  H    0.129720
    17  H    0.166510
    18  H    0.146378
    19  H    0.124170
    20  H    0.124123
    21  H    0.135519
    22  H    0.126707
    23  H    0.132514
    24  H    0.127188
 Sum of Mulliken charges =  -0.00000
 Mulliken charges with hydrogens summed into heavy atoms:
               1
     1  C    0.201486
     2  O   -0.284084
     3  C    0.409360
     4  O   -0.372470
     5  C   -0.033217
     6  C   -0.121182
     7  C    0.327038
     8  O   -0.284734
     9  C    0.182809
    10  C    0.075592
    11  N   -0.270302
    12  C    0.103457
    13  C    0.066248
 Electronic spatial extent (au):  <R**2>=           2732.8007
 Charge=              0.0000 electrons
 Dipole moment (field-independent basis, Debye):
    X=              0.6814    Y=             -4.3256    Z=             -0.0071  Tot=              4.3789
 Quadrupole moment (field-independent basis, Debye-Ang):
   XX=            -74.7541   YY=            -71.3748   ZZ=            -76.0521
   XY=             -0.0808   XZ=              0.0618   YZ=             -0.0111
 Traceless Quadrupole moment (field-independent basis, Debye-Ang):
   XX=             -0.6938   YY=              2.6855   ZZ=             -1.9918
   XY=             -0.0808   XZ=              0.0618   YZ=             -0.0111
 Octapole moment (field-independent basis, Debye-Ang**2):
  XXX=             10.2171  YYY=            -45.6901  ZZZ=              0.0596  XYY=             -7.7571
  XXY=            -38.6324  XXZ=             -0.2033  XZZ=             -6.6550  YZZ=             -4.7749
  YYZ=              0.0251  XYZ=              0.0026
 Hexadecapole moment (field-independent basis, Debye-Ang**3):
 XXXX=          -2098.7640 YYYY=          -1318.6646 ZZZZ=            -96.8064 XXXY=             46.6879
 XXXZ=              0.7343 YYYX=            -27.4970 YYYZ=              0.1525 ZZZX=             -0.1088
 ZZZY=              0.0952 XXYY=           -476.2660 XXZZ=           -363.0025 YYZZ=           -240.8008
 XXYZ=             -0.0841 YYXZ=              0.0242 ZZXY=             -2.2383
 N-N= 7.915055740264D+02 E-N=-3.054763549671D+03  KE= 6.269690597372D+02
 Breneman (CHELPG) radii used.
 Read replacement radii for each type of atom:
 Atom Element Radius
    1     6    1.50
    2     8    1.70
    3     6    1.50
    4     8    1.70
    5     6    1.50
    6     6    1.50
    7     6    1.50
    8     8    1.70
    9     6    1.50
   10     6    1.50
   11     7    1.70
   12     6    1.50
   13     6    1.50
   14     1    1.45
   15     1    1.45
   16     1    1.45
   17     1    1.45
   18     1    1.45
   19     1    1.45
   20     1    1.45
   21     1    1.45
   22     1    1.45
   23     1    1.45
   24     1    1.45
 Generate Potential Derived Charges using the Breneman model, NDens= 1.
 Grid spacing= 0.300 Box extension= 2.800
 NStep X,Y,Z=   46     44     26   Total possible points=       52624
 Number of Points to Fit=   15375

 **********************************************************************

            Electrostatic Properties Using The SCF Density.

 **********************************************************************

       Atomic Center    1 is at  -3.040759 -2.233959 -0.004190
       Atomic Center    2 is at  -1.775189 -1.596719 -0.005590
       Atomic Center    3 is at  -1.787890 -0.255089  0.002610
       Atomic Center    4 is at  -2.813440  0.377251  0.010540
       Atomic Center    5 is at  -0.409700  0.318882  0.000700
       Atomic Center    6 is at   0.692211 -0.549948  0.001110
       Atomic Center    7 is at   1.975210 -0.018258  0.000180
       Atomic Center    8 is at   3.119211 -0.728408  0.000760
       Atomic Center    9 is at   3.039021 -2.128408  0.002170
       Atomic Center   10 is at   2.092980  1.380252 -0.001610
       Atomic Center   11 is at   1.056290  2.196752 -0.002660
       Atomic Center   12 is at  -0.193590  1.710682 -0.001440
       Atomic Center   13 is at  -1.292850  2.736111 -0.002370
       Atomic Center   14 is at  -3.616469 -1.959799  0.891540
       Atomic Center   15 is at  -3.623579 -1.949319 -0.892020
       Atomic Center   16 is at  -2.841599 -3.311319 -0.011360
       Atomic Center   17 is at   0.509871 -1.623208  0.002240
       Atomic Center   18 is at   4.069371 -2.503348  0.002380
       Atomic Center   19 is at   2.520331 -2.508778 -0.895220
       Atomic Center   20 is at   2.520631 -2.506998  0.900480
       Atomic Center   21 is at   3.095610  1.822392 -0.002360
       Atomic Center   22 is at  -1.936880  2.635351  0.882420
       Atomic Center   23 is at  -0.831030  3.730552 -0.014990
       Atomic Center   24 is at  -1.952740  2.618621 -0.873100
   15375 points will be used for fitting atomic charges
 Fitting point charges to electrostatic potential
 Charges from ESP fit, RMS=   0.00288 RRMS=   0.20281:
 ESP charges:
               1
     1  C   -0.063087
     2  O   -0.292788
     3  C    0.733546
     4  O   -0.515162
     5  C   -0.402786
     6  C   -0.015664
     7  C    0.178003
     8  O   -0.362349
     9  C    0.154325
    10  C    0.208604
    11  N   -0.579441
    12  C    0.536351
    13  C   -0.268137
    14  H    0.075461
    15  H    0.075413
    16  H    0.091192
    17  H    0.063597
    18  H    0.049702
    19  H    0.019764
    20  H    0.020353
    21  H    0.069255
    22  H    0.079383
    23  H    0.064933
    24  H    0.079533
 Sum of ESP charges =  -0.00000
 ESP charges with hydrogens summed into heavy atoms:
               1
     1  C    0.178979
     2  O   -0.292788
     3  C    0.733546
     4  O   -0.515162
     5  C   -0.402786
     6  C    0.047933
     7  C    0.178003
     8  O   -0.362349
     9  C    0.244144
    10  C    0.277859
    11  N   -0.579441
    12  C    0.536351
    13  C   -0.044287
 Charge=  -0.00000 Dipole=     0.6879    -4.3273    -0.0068 Tot=     4.3817
 -----------------------------------------------------------------

              Electrostatic Properties (Atomic Units)

 -----------------------------------------------------------------
    Center     Electric         -------- Electric Field --------
               Potential          X             Y             Z
 -----------------------------------------------------------------
    1 Atom    -14.708213
    2 Atom    -22.306256
    3 Atom    -14.636641
    4 Atom    -22.377672
    5 Atom    -14.742341
    6 Atom    -14.746752
    7 Atom    -14.696333
    8 Atom    -22.311305
    9 Atom    -14.702205
   10 Atom    -14.732223
   11 Atom    -18.398257
   12 Atom    -14.722272
   13 Atom    -14.785405
   14 Atom     -1.100981
   15 Atom     -1.100989
   16 Atom     -1.096413
   17 Atom     -1.080487
   18 Atom     -1.093374
   19 Atom     -1.094667
   20 Atom     -1.094666
   21 Atom     -1.098725
   22 Atom     -1.125270
   23 Atom     -1.132223
   24 Atom     -1.125445
 -----------------------------------------------------------------
 Unable to Open any file for archive entry.
 1\1\GINC-NOTCH302\SP\RwB97XD\def2TZVP\C9H11N1O3\U6053008\12-Jul-2024\0
 \\#N Guess=Read Geom=Check Integral(Ultrafine) Density Pop=(ChelpG,Rea
 dRadii) NMR wB97XD def2TZVP\\12356206_1\\0,1\C,0,-3.04076,-2.23396,-0.
 00419\O,0,-1.77519,-1.59672,-0.00559\C,0,-1.78789,-0.25509,0.00261\O,0
 ,-2.81344,0.37725,0.01054\C,0,-0.4097,0.31888,0.0007\C,0,0.69221,-0.54
 995,0.00111\C,0,1.97521,-0.01826,0.00018\O,0,3.11921,-0.72841,0.00076\
 C,0,3.03902,-2.12841,0.00217\C,0,2.09298,1.38025,-0.00161\N,0,1.05629,
 2.19675,-0.00266\C,0,-0.19359,1.71068,-0.00144\C,0,-1.29285,2.73611,-0
 .00237\H,0,-3.61647,-1.9598,0.89154\H,0,-3.62358,-1.94932,-0.89202\H,0
 ,-2.8416,-3.31132,-0.01136\H,0,0.50987,-1.62321,0.00224\H,0,4.06937,-2
 .50335,0.00238\H,0,2.52033,-2.50878,-0.89522\H,0,2.52063,-2.507,0.9004
 8\H,0,3.09561,1.82239,-0.00236\H,0,-1.93688,2.63535,0.88242\H,0,-0.831
 03,3.73055,-0.01499\H,0,-1.95274,2.61862,-0.8731\\Version=ES64L-G16Rev
 C.01\State=1-A\HF=-630.0341028\RMSD=1.463e-09\Dipole=0.2680673,-1.7018
 159,-0.0027744\Quadrupole=-0.5157988,1.996633,-1.4808342,-0.0600795,0.
 0459485,-0.0082703\PG=C01 [X(C9H11N1O3)]\\@
 The archive entry for this job was punched.


 LET US PLACE AT THE END OF EVERY CHAPTER.....THE
 TWO LETTERS USED BY THE ROMAN JUDGES WHEN THEY DID
 NOT UNDERSTAND A PLEADING.
 N. L. -NON LIQUET- IT IS NOT CLEAR.
                                              -- VOLTAIRE
 Job cpu time:       0 days  0 hours 42 minutes 14.1 seconds.
 Elapsed time:       0 days  0 hours  2 minutes 47.9 seconds.
 File lengths (MBytes):  RWF=    141 Int=      0 D2E=      0 Chk=     21 Scr=      2
 Normal termination of Gaussian 16 at Fri Jul 12 13:22:00 2024.
