 Entering Gaussian System, Link 0=g16
 Input=12356205_1.com
 Output=12356205_1.log
 Initial command:
 /uufs/chpc.utah.edu/sys/installdir/gaussian16/C01/AVX/g16/l1.exe "/scratch/general/vast/u6053008/1287152-notchpeak.peaks/Gau-1986681.inp" -scrdir="/scratch/general/vast/u6053008/1287152-notchpeak.peaks/"
 Entering Link 1 = /uufs/chpc.utah.edu/sys/installdir/gaussian16/C01/AVX/g16/l1.exe PID=   1986683.
  
 Copyright (c) 1988-2019, Gaussian, Inc.  All Rights Reserved.
  
 This is part of the Gaussian(R) 16 program.  It is based on
 the Gaussian(R) 09 system (copyright 2009, Gaussian, Inc.),
 the Gaussian(R) 03 system (copyright 2003, Gaussian, Inc.),
 the Gaussian(R) 98 system (copyright 1998, Gaussian, Inc.),
 the Gaussian(R) 94 system (copyright 1995, Gaussian, Inc.),
 the Gaussian 92(TM) system (copyright 1992, Gaussian, Inc.),
 the Gaussian 90(TM) system (copyright 1990, Gaussian, Inc.),
 the Gaussian 88(TM) system (copyright 1988, Gaussian, Inc.),
 the Gaussian 86(TM) system (copyright 1986, Carnegie Mellon
 University), and the Gaussian 82(TM) system (copyright 1983,
 Carnegie Mellon University). Gaussian is a federally registered
 trademark of Gaussian, Inc.
  
 This software contains proprietary and confidential information,
 including trade secrets, belonging to Gaussian, Inc.
  
 This software is provided under written license and may be
 used, copied, transmitted, or stored only in accord with that
 written license.
  
 The following legend is applicable only to US Government
 contracts under FAR:
  
                    RESTRICTED RIGHTS LEGEND
  
 Use, reproduction and disclosure by the US Government is
 subject to restrictions as set forth in subparagraphs (a)
 and (c) of the Commercial Computer Software - Restricted
 Rights clause in FAR 52.227-19.
  
 Gaussian, Inc.
 340 Quinnipiac St., Bldg. 40, Wallingford CT 06492
  
  
 ---------------------------------------------------------------
 Warning -- This program may not be used in any manner that
 competes with the business of Gaussian, Inc. or will provide
 assistance to any competitor of Gaussian, Inc.  The licensee
 of this program is prohibited from giving any competitor of
 Gaussian, Inc. access to this program.  By using this program,
 the user acknowledges that Gaussian, Inc. is engaged in the
 business of creating and licensing software in the field of
 computational chemistry and represents and warrants to the
 licensee that it is not a competitor of Gaussian, Inc. and that
 it will not use this program in any manner prohibited above.
 ---------------------------------------------------------------
  

 Cite this work as:
 Gaussian 16, Revision C.01,
 M. J. Frisch, G. W. Trucks, H. B. Schlegel, G. E. Scuseria, 
 M. A. Robb, J. R. Cheeseman, G. Scalmani, V. Barone, 
 G. A. Petersson, H. Nakatsuji, X. Li, M. Caricato, A. V. Marenich, 
 J. Bloino, B. G. Janesko, R. Gomperts, B. Mennucci, H. P. Hratchian, 
 J. V. Ortiz, A. F. Izmaylov, J. L. Sonnenberg, D. Williams-Young, 
 F. Ding, F. Lipparini, F. Egidi, J. Goings, B. Peng, A. Petrone, 
 T. Henderson, D. Ranasinghe, V. G. Zakrzewski, J. Gao, N. Rega, 
 G. Zheng, W. Liang, M. Hada, M. Ehara, K. Toyota, R. Fukuda, 
 J. Hasegawa, M. Ishida, T. Nakajima, Y. Honda, O. Kitao, H. Nakai, 
 T. Vreven, K. Throssell, J. A. Montgomery, Jr., J. E. Peralta, 
 F. Ogliaro, M. J. Bearpark, J. J. Heyd, E. N. Brothers, K. N. Kudin, 
 V. N. Staroverov, T. A. Keith, R. Kobayashi, J. Normand, 
 K. Raghavachari, A. P. Rendell, J. C. Burant, S. S. Iyengar, 
 J. Tomasi, M. Cossi, J. M. Millam, M. Klene, C. Adamo, R. Cammi, 
 J. W. Ochterski, R. L. Martin, K. Morokuma, O. Farkas, 
 J. B. Foresman, and D. J. Fox, Gaussian, Inc., Wallingford CT, 2019.
 
 ******************************************
 Gaussian 16:  ES64L-G16RevC.01  3-Jul-2019
                12-Jul-2024 
 ******************************************
 %NProcShared=16
 Will use up to   16 processors via shared memory.
 %Mem=32GB
 %chk=12356205_1.chk
 ------------------------------------------------------
 #N OPT FREQ=NORAMAN Integral(Ultrafine) wB97XD def2SVP
 ------------------------------------------------------
 1/18=20,19=15,26=4,38=1/1,3;
 2/9=110,12=2,17=6,18=5,40=1/2;
 3/5=43,7=101,11=2,25=1,30=1,71=1,74=-58,75=-5/1,2,3;
 4//1;
 5/5=2,38=5/2;
 6/7=2,8=2,9=2,10=2,28=1/1;
 7//1,2,3,16;
 1/18=20,19=15,26=4/3(2);
 2/9=110/2;
 99//99;
 2/9=110/2;
 3/5=43,7=101,11=2,25=1,30=1,71=1,74=-58,75=-5/1,2,3;
 4/5=5,16=3,69=1/1;
 5/5=2,38=5/2;
 7//1,2,3,16;
 1/18=20,19=15,26=4/3(-5);
 2/9=110/2;
 6/7=2,8=2,9=2,10=2,19=2,28=1/1;
 99/9=1/99;
 ----------
 12356205_1
 ----------
 Symbolic Z-matrix:
 Charge =  0 Multiplicity = 1
 C                     3.38436  -1.49066  -0.00566 
 O                     1.98658  -1.25894  -0.00794 
 C                     1.59908   0.02449   0.00388 
 O                     2.38931   0.93444   0.01522 
 C                     0.11253   0.16127   0.00126 
 C                    -0.69014  -0.98222   0.0026 
 C                    -2.07917  -0.87542   0.00148 
 C                    -2.97135  -2.08604   0.00284 
 C                    -2.58995   0.42446  -0.00161 
 N                    -1.84587   1.52438  -0.00397 
 C                    -0.51442   1.4299   -0.00246 
 C                     0.23416   2.73297  -0.00472 
 H                     3.51463  -2.57846  -0.01501 
 H                     3.8516   -1.0594    0.8914 
 H                     3.85699  -1.04362  -0.89212 
 H                    -0.21086  -1.96284   0.00481 
 H                    -2.7873   -2.71431   0.88774 
 H                    -4.03229  -1.79945   0.00779 
 H                    -2.79481  -2.71058  -0.88628 
 H                    -3.67641   0.57906  -0.00242 
 H                     0.90617   2.80762  -0.87073 
 H                     0.8744    2.82657   0.88358 
 H                    -0.49871   3.54821  -0.02496 
 

 GradGradGradGradGradGradGradGradGradGradGradGradGradGradGradGradGradGrad
 Berny optimization.
 Initialization pass.
                           ----------------------------
                           !    Initial Parameters    !
                           ! (Angstroms and Degrees)  !
 --------------------------                            --------------------------
 ! Name  Definition              Value          Derivative Info.                !
 --------------------------------------------------------------------------------
 ! R1    R(1,2)                  1.4169         estimate D2E/DX2                !
 ! R2    R(1,13)                 1.0956         estimate D2E/DX2                !
 ! R3    R(1,14)                 1.0996         estimate D2E/DX2                !
 ! R4    R(1,15)                 1.0996         estimate D2E/DX2                !
 ! R5    R(2,3)                  1.3407         estimate D2E/DX2                !
 ! R6    R(3,4)                  1.2052         estimate D2E/DX2                !
 ! R7    R(3,5)                  1.4928         estimate D2E/DX2                !
 ! R8    R(5,6)                  1.3971         estimate D2E/DX2                !
 ! R9    R(5,11)                 1.4151         estimate D2E/DX2                !
 ! R10   R(6,7)                  1.3931         estimate D2E/DX2                !
 ! R11   R(6,16)                 1.0915         estimate D2E/DX2                !
 ! R12   R(7,8)                  1.5039         estimate D2E/DX2                !
 ! R13   R(7,9)                  1.3966         estimate D2E/DX2                !
 ! R14   R(8,17)                 1.1007         estimate D2E/DX2                !
 ! R15   R(8,18)                 1.099          estimate D2E/DX2                !
 ! R16   R(8,19)                 1.1008         estimate D2E/DX2                !
 ! R17   R(9,10)                 1.328          estimate D2E/DX2                !
 ! R18   R(9,20)                 1.0974         estimate D2E/DX2                !
 ! R19   R(10,11)                1.3348         estimate D2E/DX2                !
 ! R20   R(11,12)                1.5028         estimate D2E/DX2                !
 ! R21   R(12,21)                1.0987         estimate D2E/DX2                !
 ! R22   R(12,22)                1.099          estimate D2E/DX2                !
 ! R23   R(12,23)                1.0964         estimate D2E/DX2                !
 ! A1    A(2,1,13)             106.2402         estimate D2E/DX2                !
 ! A2    A(2,1,14)             110.8782         estimate D2E/DX2                !
 ! A3    A(2,1,15)             110.8706         estimate D2E/DX2                !
 ! A4    A(13,1,14)            110.234          estimate D2E/DX2                !
 ! A5    A(13,1,15)            110.223          estimate D2E/DX2                !
 ! A6    A(14,1,15)            108.3979         estimate D2E/DX2                !
 ! A7    A(1,2,3)              116.2111         estimate D2E/DX2                !
 ! A8    A(2,3,4)              122.2301         estimate D2E/DX2                !
 ! A9    A(2,3,5)              112.0556         estimate D2E/DX2                !
 ! A10   A(4,3,5)              125.7143         estimate D2E/DX2                !
 ! A11   A(3,5,6)              119.8096         estimate D2E/DX2                !
 ! A12   A(3,5,11)             121.5555         estimate D2E/DX2                !
 ! A13   A(6,5,11)             118.6349         estimate D2E/DX2                !
 ! A14   A(5,6,7)              120.67           estimate D2E/DX2                !
 ! A15   A(5,6,16)             118.886          estimate D2E/DX2                !
 ! A16   A(7,6,16)             120.4439         estimate D2E/DX2                !
 ! A17   A(6,7,8)              121.992          estimate D2E/DX2                !
 ! A18   A(6,7,9)              115.8488         estimate D2E/DX2                !
 ! A19   A(8,7,9)              122.1592         estimate D2E/DX2                !
 ! A20   A(7,8,17)             111.1619         estimate D2E/DX2                !
 ! A21   A(7,8,18)             111.2724         estimate D2E/DX2                !
 ! A22   A(7,8,19)             111.1524         estimate D2E/DX2                !
 ! A23   A(17,8,18)            107.8569         estimate D2E/DX2                !
 ! A24   A(17,8,19)            107.3784         estimate D2E/DX2                !
 ! A25   A(18,8,19)            107.8434         estimate D2E/DX2                !
 ! A26   A(7,9,10)             124.4703         estimate D2E/DX2                !
 ! A27   A(7,9,20)             119.5507         estimate D2E/DX2                !
 ! A28   A(10,9,20)            115.979          estimate D2E/DX2                !
 ! A29   A(9,10,11)            120.0187         estimate D2E/DX2                !
 ! A30   A(5,11,10)            120.3573         estimate D2E/DX2                !
 ! A31   A(5,11,12)            123.8255         estimate D2E/DX2                !
 ! A32   A(10,11,12)           115.8172         estimate D2E/DX2                !
 ! A33   A(11,12,21)           111.3937         estimate D2E/DX2                !
 ! A34   A(11,12,22)           111.2744         estimate D2E/DX2                !
 ! A35   A(11,12,23)           108.1678         estimate D2E/DX2                !
 ! A36   A(21,12,22)           105.9617         estimate D2E/DX2                !
 ! A37   A(21,12,23)           110.1064         estimate D2E/DX2                !
 ! A38   A(22,12,23)           109.938          estimate D2E/DX2                !
 ! D1    D(13,1,2,3)           179.9277         estimate D2E/DX2                !
 ! D2    D(14,1,2,3)            60.1492         estimate D2E/DX2                !
 ! D3    D(15,1,2,3)           -60.3112         estimate D2E/DX2                !
 ! D4    D(1,2,3,4)              0.0326         estimate D2E/DX2                !
 ! D5    D(1,2,3,5)           -179.9617         estimate D2E/DX2                !
 ! D6    D(2,3,5,6)              0.7067         estimate D2E/DX2                !
 ! D7    D(2,3,5,11)          -179.2992         estimate D2E/DX2                !
 ! D8    D(4,3,5,6)           -179.2874         estimate D2E/DX2                !
 ! D9    D(4,3,5,11)             0.7067         estimate D2E/DX2                !
 ! D10   D(3,5,6,7)            179.9388         estimate D2E/DX2                !
 ! D11   D(3,5,6,16)            -0.0452         estimate D2E/DX2                !
 ! D12   D(11,5,6,7)            -0.0555         estimate D2E/DX2                !
 ! D13   D(11,5,6,16)          179.9606         estimate D2E/DX2                !
 ! D14   D(3,5,11,10)         -179.9614         estimate D2E/DX2                !
 ! D15   D(3,5,11,12)            0.0283         estimate D2E/DX2                !
 ! D16   D(6,5,11,10)            0.0327         estimate D2E/DX2                !
 ! D17   D(6,5,11,12)         -179.9776         estimate D2E/DX2                !
 ! D18   D(5,6,7,8)            179.9987         estimate D2E/DX2                !
 ! D19   D(5,6,7,9)              0.0273         estimate D2E/DX2                !
 ! D20   D(16,6,7,8)            -0.0176         estimate D2E/DX2                !
 ! D21   D(16,6,7,9)          -179.9889         estimate D2E/DX2                !
 ! D22   D(6,7,8,17)            59.4203         estimate D2E/DX2                !
 ! D23   D(6,7,8,18)           179.6566         estimate D2E/DX2                !
 ! D24   D(6,7,8,19)           -60.1306         estimate D2E/DX2                !
 ! D25   D(9,7,8,17)          -120.6102         estimate D2E/DX2                !
 ! D26   D(9,7,8,18)            -0.3739         estimate D2E/DX2                !
 ! D27   D(9,7,8,19)           119.8389         estimate D2E/DX2                !
 ! D28   D(6,7,9,10)             0.0263         estimate D2E/DX2                !
 ! D29   D(6,7,9,20)          -179.987          estimate D2E/DX2                !
 ! D30   D(8,7,9,10)          -179.945          estimate D2E/DX2                !
 ! D31   D(8,7,9,20)             0.0418         estimate D2E/DX2                !
 ! D32   D(7,9,10,11)           -0.0498         estimate D2E/DX2                !
 ! D33   D(20,9,10,11)         179.963          estimate D2E/DX2                !
 ! D34   D(9,10,11,5)            0.0185         estimate D2E/DX2                !
 ! D35   D(9,10,11,12)        -179.972          estimate D2E/DX2                !
 ! D36   D(5,11,12,21)          57.898          estimate D2E/DX2                !
 ! D37   D(5,11,12,22)         -60.1031         estimate D2E/DX2                !
 ! D38   D(5,11,12,23)         179.0386         estimate D2E/DX2                !
 ! D39   D(10,11,12,21)       -122.1119         estimate D2E/DX2                !
 ! D40   D(10,11,12,22)        119.887          estimate D2E/DX2                !
 ! D41   D(10,11,12,23)         -0.9713         estimate D2E/DX2                !
 --------------------------------------------------------------------------------
 Trust Radius=3.00D-01 FncErr=1.00D-07 GrdErr=1.00D-06 EigMax=2.50D+02 EigMin=1.00D-04
 Number of steps in this run=    112 maximum allowed number of steps=    138.
 GradGradGradGradGradGradGradGradGradGradGradGradGradGradGradGradGradGrad

                          Input orientation:                          
 ---------------------------------------------------------------------
 Center     Atomic      Atomic             Coordinates (Angstroms)
 Number     Number       Type             X           Y           Z
 ---------------------------------------------------------------------
      1          6           0        3.384360   -1.490660   -0.005660
      2          8           0        1.986580   -1.258940   -0.007940
      3          6           0        1.599080    0.024490    0.003880
      4          8           0        2.389310    0.934440    0.015220
      5          6           0        0.112530    0.161270    0.001260
      6          6           0       -0.690140   -0.982220    0.002600
      7          6           0       -2.079170   -0.875420    0.001480
      8          6           0       -2.971350   -2.086040    0.002840
      9          6           0       -2.589950    0.424460   -0.001610
     10          7           0       -1.845870    1.524380   -0.003970
     11          6           0       -0.514420    1.429900   -0.002460
     12          6           0        0.234160    2.732970   -0.004720
     13          1           0        3.514630   -2.578460   -0.015010
     14          1           0        3.851600   -1.059400    0.891400
     15          1           0        3.856990   -1.043620   -0.892120
     16          1           0       -0.210860   -1.962840    0.004810
     17          1           0       -2.787300   -2.714310    0.887740
     18          1           0       -4.032290   -1.799450    0.007790
     19          1           0       -2.794810   -2.710580   -0.886280
     20          1           0       -3.676410    0.579060   -0.002420
     21          1           0        0.906170    2.807620   -0.870730
     22          1           0        0.874400    2.826570    0.883580
     23          1           0       -0.498710    3.548210   -0.024960
 ---------------------------------------------------------------------
                    Distance matrix (angstroms):
                    1          2          3          4          5
     1  C    0.000000
     2  O    1.416859   0.000000
     3  C    2.341580   1.340704   0.000000
     4  O    2.621387   2.230167   1.205239   0.000000
     5  C    3.665214   2.351413   1.492832   2.404519   0.000000
     6  C    4.106109   2.691006   2.500799   3.627224   1.397086
     7  C    5.498066   4.083809   3.786736   4.821109   2.424515
     8  C    6.383541   5.026458   5.034200   6.153058   3.815851
     9  C    6.273761   4.876321   4.208085   5.005336   2.715267
    10  N    6.037034   4.736513   3.757314   4.276114   2.386090
    11  C    4.871362   3.672178   2.538129   2.945750   1.415098
    12  C    5.269043   4.359625   3.032976   2.807094   2.574582
    13  H    1.095612   2.018940   3.231878   3.688865   4.368143
    14  H    1.099552   2.080127   2.652613   2.623239   4.032745
    15  H    1.099561   2.080041   2.653645   2.624895   4.033716
    16  H    3.626110   2.307462   2.688004   3.892971   2.148590
    17  H    6.354909   5.070530   5.246195   6.393118   4.178974
    18  H    7.423088   6.043111   5.919383   6.979338   4.585193
    19  H    6.359704   5.073503   5.251596   6.401092   4.181851
    20  H    7.357868   5.953800   5.304562   6.076147   3.811906
    21  H    5.036366   4.295184   2.998480   2.548218   2.897136
    22  H    5.072388   4.327025   3.025010   2.574715   2.909082
    23  H    6.361511   5.411621   4.100995   3.895391   3.441753
                    6          7          8          9         10
     6  C    0.000000
     7  C    1.393130   0.000000
     8  C    2.534233   1.503858   0.000000
     9  C    2.363904   1.396637   2.539310   0.000000
    10  N    2.760217   2.411120   3.781783   1.327963   0.000000
    11  C    2.418517   2.786209   4.289332   2.306238   1.334799
    12  C    3.828449   4.286259   5.787764   3.647578   2.405663
    13  H    4.497597   5.847326   6.504670   6.803205   6.750435
    14  H    4.628534   5.999987   6.956736   6.670298   6.319713
    15  H    4.634726   6.005398   6.965186   6.671679   6.317123
    16  H    1.091481   2.161730   2.763239   3.370358   3.851498
    17  H    2.860365   2.160653   1.100748   3.268297   4.432599
    18  H    3.440619   2.160683   1.098978   2.650700   3.978494
    19  H    2.864781   2.160572   1.100796   3.263906   4.428752
    20  H    3.369782   2.160255   2.756791   1.097405   2.060221
    21  H    4.204022   4.820559   6.304458   4.319453   3.157800
    22  H    4.210795   4.817303   6.300733   4.307600   3.143774
    23  H    4.534556   4.697558   6.153007   3.759208   2.431289
                   11         12         13         14         15
    11  C    0.000000
    12  C    1.502787   0.000000
    13  H    5.683340   6.242826   0.000000
    14  H    5.104677   5.317046   1.800742   0.000000
    15  H    5.100884   5.308014   1.800629   1.783598   0.000000
    16  H    3.406301   4.716860   3.776064   4.255094   4.265777
    17  H    4.809669   6.292739   6.367710   6.842056   7.078538
    18  H    4.775376   6.224595   7.587053   7.967695   7.976331
    19  H    4.808835   6.291585   6.370683   7.075402   6.857495
    20  H    3.274463   4.464515   7.853735   7.755927   7.757369
    21  H    2.161037   1.098701   6.045344   5.170542   4.851788
    22  H    2.159763   1.098975   6.082157   4.895359   5.198781
    23  H    2.118488   1.096414   7.324144   6.402732   6.388192
                   16         17         18         19         20
    16  H    0.000000
    17  H    2.825299   0.000000
    18  H    3.824923   1.777999   0.000000
    19  H    2.833717   1.774040   1.777885   0.000000
    20  H    4.297830   3.525505   2.405008   3.518545   0.000000
    21  H    4.977109   6.872092   6.810674   6.644398   5.169186
    22  H    4.988835   6.641492   6.800197   6.874266   5.152297
    23  H    5.518643   6.729771   6.409737   6.722083   4.349039
                   21         22         23
    21  H    0.000000
    22  H    1.754700   0.000000
    23  H    1.799302   1.797676   0.000000
 Stoichiometry    C9H11NO2
 Framework group  C1[X(C9H11NO2)]
 Deg. of freedom    63
 Full point group                 C1      NOp   1
 Largest Abelian subgroup         C1      NOp   1
 Largest concise Abelian subgroup C1      NOp   1
                         Standard orientation:                         
 ---------------------------------------------------------------------
 Center     Atomic      Atomic             Coordinates (Angstroms)
 Number     Number       Type             X           Y           Z
 ---------------------------------------------------------------------
      1          6           0        3.384360   -1.490659   -0.005659
      2          8           0        1.986580   -1.258939   -0.007939
      3          6           0        1.599080    0.024491    0.003881
      4          8           0        2.389309    0.934441    0.015221
      5          6           0        0.112530    0.161270    0.001261
      6          6           0       -0.690140   -0.982220    0.002601
      7          6           0       -2.079170   -0.875420    0.001481
      8          6           0       -2.971350   -2.086040    0.002841
      9          6           0       -2.589951    0.424460   -0.001609
     10          7           0       -1.845871    1.524380   -0.003969
     11          6           0       -0.514421    1.429900   -0.002459
     12          6           0        0.234159    2.732971   -0.004719
     13          1           0        3.514630   -2.578459   -0.015009
     14          1           0        3.851600   -1.059399    0.891401
     15          1           0        3.856990   -1.043619   -0.892119
     16          1           0       -0.210860   -1.962840    0.004811
     17          1           0       -2.787300   -2.714310    0.887741
     18          1           0       -4.032290   -1.799450    0.007791
     19          1           0       -2.794810   -2.710580   -0.886279
     20          1           0       -3.676411    0.579060   -0.002419
     21          1           0        0.906169    2.807621   -0.870729
     22          1           0        0.874399    2.826571    0.883581
     23          1           0       -0.498711    3.548210   -0.024959
 ---------------------------------------------------------------------
 Rotational constants (GHZ):           1.4332615           0.7086471           0.4784542
 Standard basis: def2SVP (5D, 7F)
 There are   235 symmetry adapted cartesian basis functions of A   symmetry.
 There are   223 symmetry adapted basis functions of A   symmetry.
   223 basis functions,   377 primitive gaussians,   235 cartesian basis functions
    44 alpha electrons       44 beta electrons
       nuclear repulsion energy       685.4566424211 Hartrees.
 NAtoms=   23 NActive=   23 NUniq=   23 SFac= 1.00D+00 NAtFMM=   60 NAOKFM=F Big=F
 Integral buffers will be    131072 words long.
 Raffenetti 2 integral format.
 Two-electron integral symmetry is turned on.
 Nuclear repulsion after empirical dispersion term =      685.4446877677 Hartrees.
 One-electron integrals computed using PRISM.
   1 Symmetry operations used in ECPInt.
 ECPInt:  NShTT=    5565 NPrTT=   20089 LenC2=    5352 LenP2D=   14394.
 LDataN:  DoStor=T MaxTD1= 4 Len=   56
 NBasis=   223 RedAO= T EigKep=  5.85D-04  NBF=   223
 NBsUse=   223 1.00D-06 EigRej= -1.00D+00 NBFU=   223
 ExpMin= 1.22D-01 ExpMax= 2.27D+03 ExpMxC= 3.41D+02 IAcc=3 IRadAn=         5 AccDes= 0.00D+00
 Harris functional with IExCor= 4639 and IRadAn=       5 diagonalized for initial guess.
 HarFok:  IExCor= 4639 AccDes= 0.00D+00 IRadAn=         5 IDoV= 1 UseB2=F ITyADJ=14
 ICtDFT=  3500011 ScaDFX=  1.000000  1.000000  1.000000  1.000000
 FoFCou: FMM=F IPFlag=           0 FMFlag=      100000 FMFlg1=           0
         NFxFlg=           0 DoJE=T BraDBF=F KetDBF=T FulRan=T
         wScrn=  0.000000 ICntrl=       500 IOpCl=  0 I1Cent=   200000004 NGrid=           0
         NMat0=    1 NMatS0=      1 NMatT0=    0 NMatD0=    1 NMtDS0=    0 NMtDT0=    0
 Petite list used in FoFCou.
 Requested convergence on RMS density matrix=1.00D-08 within 128 cycles.
 Requested convergence on MAX density matrix=1.00D-06.
 Requested convergence on             energy=1.00D-06.
 No special actions if energy rises.
 Integral accuracy reduced to 1.0D-05 until final iterations.
 Initial convergence to 1.0D-05 achieved.  Increase integral accuracy.
 SCF Done:  E(RwB97XD) =  -554.217055623     A.U. after   15 cycles
            NFock= 15  Conv=0.67D-08     -V/T= 2.0101

 **********************************************************************

            Population analysis using the SCF Density.

 **********************************************************************

 Orbital symmetries:
       Occupied  (A) (A) (A) (A) (A) (A) (A) (A) (A) (A) (A) (A)
                 (A) (A) (A) (A) (A) (A) (A) (A) (A) (A) (A) (A)
                 (A) (A) (A) (A) (A) (A) (A) (A) (A) (A) (A) (A)
                 (A) (A) (A) (A) (A) (A) (A) (A)
       Virtual   (A) (A) (A) (A) (A) (A) (A) (A) (A) (A) (A) (A)
                 (A) (A) (A) (A) (A) (A) (A) (A) (A) (A) (A) (A)
                 (A) (A) (A) (A) (A) (A) (A) (A) (A) (A) (A) (A)
                 (A) (A) (A) (A) (A) (A) (A) (A) (A) (A) (A) (A)
                 (A) (A) (A) (A) (A) (A) (A) (A) (A) (A) (A) (A)
                 (A) (A) (A) (A) (A) (A) (A) (A) (A) (A) (A) (A)
                 (A) (A) (A) (A) (A) (A) (A) (A) (A) (A) (A) (A)
                 (A) (A) (A) (A) (A) (A) (A) (A) (A) (A) (A) (A)
                 (A) (A) (A) (A) (A) (A) (A) (A) (A) (A) (A) (A)
                 (A) (A) (A) (A) (A) (A) (A) (A) (A) (A) (A) (A)
                 (A) (A) (A) (A) (A) (A) (A) (A) (A) (A) (A) (A)
                 (A) (A) (A) (A) (A) (A) (A) (A) (A) (A) (A) (A)
                 (A) (A) (A) (A) (A) (A) (A) (A) (A) (A) (A) (A)
                 (A) (A) (A) (A) (A) (A) (A) (A) (A) (A) (A) (A)
                 (A) (A) (A) (A) (A) (A) (A) (A) (A) (A) (A)
 The electronic state is 1-A.
 Alpha  occ. eigenvalues --  -19.30795 -19.24729 -14.43747 -10.43347 -10.35932
 Alpha  occ. eigenvalues --  -10.34913 -10.33875 -10.32394 -10.32068 -10.31874
 Alpha  occ. eigenvalues --  -10.30941 -10.28287  -1.21051  -1.11358  -1.04434
 Alpha  occ. eigenvalues --   -0.91954  -0.89638  -0.83788  -0.81553  -0.76092
 Alpha  occ. eigenvalues --   -0.74169  -0.69509  -0.66107  -0.61665  -0.59978
 Alpha  occ. eigenvalues --   -0.58510  -0.57654  -0.55886  -0.52977  -0.51985
 Alpha  occ. eigenvalues --   -0.50839  -0.50054  -0.49643  -0.48426  -0.47762
 Alpha  occ. eigenvalues --   -0.45812  -0.45636  -0.45399  -0.44233  -0.39459
 Alpha  occ. eigenvalues --   -0.36840  -0.36543  -0.33590  -0.32963
 Alpha virt. eigenvalues --    0.01236   0.04544   0.12492   0.14419   0.15468
 Alpha virt. eigenvalues --    0.17994   0.18385   0.18596   0.19698   0.20133
 Alpha virt. eigenvalues --    0.21856   0.21912   0.22143   0.23150   0.23659
 Alpha virt. eigenvalues --    0.27642   0.28775   0.30648   0.32103   0.33070
 Alpha virt. eigenvalues --    0.35001   0.36855   0.38648   0.40516   0.42575
 Alpha virt. eigenvalues --    0.44185   0.47660   0.48809   0.50060   0.51152
 Alpha virt. eigenvalues --    0.52200   0.54212   0.54600   0.54623   0.55078
 Alpha virt. eigenvalues --    0.57575   0.57817   0.60348   0.62570   0.64567
 Alpha virt. eigenvalues --    0.64831   0.66441   0.69511   0.69796   0.70277
 Alpha virt. eigenvalues --    0.71445   0.72305   0.72813   0.73182   0.73800
 Alpha virt. eigenvalues --    0.74393   0.74892   0.75437   0.75815   0.76181
 Alpha virt. eigenvalues --    0.77053   0.77926   0.78638   0.80560   0.80673
 Alpha virt. eigenvalues --    0.81083   0.82573   0.83785   0.86334   0.87920
 Alpha virt. eigenvalues --    0.91028   0.92061   0.93874   0.99894   1.00277
 Alpha virt. eigenvalues --    1.03558   1.07581   1.08517   1.12345   1.16702
 Alpha virt. eigenvalues --    1.20546   1.21834   1.22008   1.25223   1.28195
 Alpha virt. eigenvalues --    1.29032   1.31721   1.31899   1.34109   1.37710
 Alpha virt. eigenvalues --    1.38563   1.42474   1.43524   1.44744   1.48342
 Alpha virt. eigenvalues --    1.52814   1.55215   1.57105   1.59064   1.60946
 Alpha virt. eigenvalues --    1.62663   1.63451   1.64715   1.66473   1.67749
 Alpha virt. eigenvalues --    1.69715   1.74584   1.76439   1.77494   1.79545
 Alpha virt. eigenvalues --    1.81647   1.81720   1.85003   1.85285   1.85564
 Alpha virt. eigenvalues --    1.86175   1.89489   1.89820   1.89891   1.90777
 Alpha virt. eigenvalues --    1.92367   1.94782   1.95113   1.97491   1.99455
 Alpha virt. eigenvalues --    2.03307   2.04401   2.04809   2.05031   2.07975
 Alpha virt. eigenvalues --    2.08062   2.13419   2.13513   2.16566   2.21126
 Alpha virt. eigenvalues --    2.22502   2.25785   2.31107   2.31670   2.32762
 Alpha virt. eigenvalues --    2.36122   2.38742   2.38800   2.43157   2.43808
 Alpha virt. eigenvalues --    2.46078   2.48921   2.49303   2.50960   2.52110
 Alpha virt. eigenvalues --    2.52226   2.58742   2.65025   2.65641   2.68405
 Alpha virt. eigenvalues --    2.71638   2.73942   2.74519   2.74967   2.79696
 Alpha virt. eigenvalues --    2.80903   2.82742   2.87704   2.88087   2.89465
 Alpha virt. eigenvalues --    2.98018   2.98344   2.98766   3.00869   3.01766
 Alpha virt. eigenvalues --    3.05068   3.05071   3.06841   3.09386   3.14149
 Alpha virt. eigenvalues --    3.17462   3.19461   3.27229   3.30539   3.43982
 Alpha virt. eigenvalues --    3.52526   3.63413   3.77306   3.78069
          Condensed to atoms (all electrons):
               1          2          3          4          5          6
     1  C    4.406585   0.265986  -0.033115   0.001533   0.011972  -0.000636
     2  O    0.265986   7.939385   0.419519  -0.083910  -0.161752   0.017614
     3  C   -0.033115   0.419519   4.590999   0.714869   0.162134  -0.063688
     4  O    0.001533  -0.083910   0.714869   7.690231  -0.101877   0.003963
     5  C    0.011972  -0.161752   0.162134  -0.101877   5.616266   0.404227
     6  C   -0.000636   0.017614  -0.063688   0.003963   0.404227   4.946557
     7  C    0.000010   0.000929   0.014500  -0.000054   0.009566   0.399362
     8  C    0.000000  -0.000049  -0.000105   0.000000   0.009757  -0.076365
     9  C    0.000001   0.000028   0.000169   0.000012  -0.063937  -0.023214
    10  N    0.000002  -0.000017   0.006379   0.000038  -0.064259  -0.045310
    11  C   -0.000015  -0.001340  -0.051888  -0.010332   0.416016  -0.045237
    12  C    0.000012   0.000146  -0.004933  -0.000125  -0.091596   0.002330
    13  H    0.398577  -0.022686   0.004228   0.000773   0.000516  -0.000292
    14  H    0.405908  -0.026631  -0.004371   0.006997   0.000384   0.000072
    15  H    0.405935  -0.026584  -0.004366   0.006967   0.000299   0.000084
    16  H   -0.000431   0.017338  -0.021388   0.000298  -0.042423   0.439903
    17  H    0.000000  -0.000003  -0.000007  -0.000000   0.000432  -0.006556
    18  H    0.000000  -0.000000   0.000007  -0.000000  -0.000428   0.009007
    19  H    0.000000  -0.000003  -0.000006  -0.000000   0.000409  -0.006493
    20  H    0.000000  -0.000000   0.000076  -0.000000   0.001287   0.006431
    21  H    0.000000   0.000024   0.001968   0.005154  -0.010589   0.000125
    22  H    0.000000   0.000029   0.001931   0.004861  -0.009947   0.000087
    23  H   -0.000001   0.000008   0.000235   0.000966   0.014081  -0.000075
               7          8          9         10         11         12
     1  C    0.000010   0.000000   0.000001   0.000002  -0.000015   0.000012
     2  O    0.000929  -0.000049   0.000028  -0.000017  -0.001340   0.000146
     3  C    0.014500  -0.000105   0.000169   0.006379  -0.051888  -0.004933
     4  O   -0.000054   0.000000   0.000012   0.000038  -0.010332  -0.000125
     5  C    0.009566   0.009757  -0.063937  -0.064259   0.416016  -0.091596
     6  C    0.399362  -0.076365  -0.023214  -0.045310  -0.045237   0.002330
     7  C    5.174994   0.379672   0.452874  -0.042972  -0.064267   0.001306
     8  C    0.379672   4.551499  -0.052994   0.005406   0.000852   0.000061
     9  C    0.452874  -0.052994   4.744968   0.536637  -0.059316   0.005555
    10  N   -0.042972   0.005406   0.536637   6.248247   0.584002  -0.079447
    11  C   -0.064267   0.000852  -0.059316   0.584002   4.957881   0.422946
    12  C    0.001306   0.000061   0.005555  -0.079447   0.422946   4.549953
    13  H   -0.000011   0.000000  -0.000000  -0.000000   0.000024  -0.000001
    14  H    0.000006  -0.000000   0.000000  -0.000000  -0.000019   0.000001
    15  H    0.000006  -0.000000   0.000000  -0.000000  -0.000012  -0.000002
    16  H   -0.063931  -0.009692   0.009372  -0.000297   0.010726  -0.000214
    17  H   -0.015108   0.389920   0.001289  -0.000149   0.000019  -0.000001
    18  H   -0.020798   0.391370  -0.007181   0.000235   0.000023  -0.000000
    19  H   -0.015005   0.389856   0.001158  -0.000148   0.000019  -0.000001
    20  H   -0.070396  -0.007213   0.424175  -0.034787   0.004504  -0.000218
    21  H    0.000002  -0.000001  -0.000200   0.002317   0.000163   0.376113
    22  H    0.000009  -0.000001  -0.000204   0.002087  -0.000247   0.376221
    23  H    0.000205  -0.000005   0.000838   0.010831  -0.017426   0.358301
              13         14         15         16         17         18
     1  C    0.398577   0.405908   0.405935  -0.000431   0.000000   0.000000
     2  O   -0.022686  -0.026631  -0.026584   0.017338  -0.000003  -0.000000
     3  C    0.004228  -0.004371  -0.004366  -0.021388  -0.000007   0.000007
     4  O    0.000773   0.006997   0.006967   0.000298  -0.000000  -0.000000
     5  C    0.000516   0.000384   0.000299  -0.042423   0.000432  -0.000428
     6  C   -0.000292   0.000072   0.000084   0.439903  -0.006556   0.009007
     7  C   -0.000011   0.000006   0.000006  -0.063931  -0.015108  -0.020798
     8  C    0.000000  -0.000000  -0.000000  -0.009692   0.389920   0.391370
     9  C   -0.000000   0.000000   0.000000   0.009372   0.001289  -0.007181
    10  N   -0.000000  -0.000000  -0.000000  -0.000297  -0.000149   0.000235
    11  C    0.000024  -0.000019  -0.000012   0.010726   0.000019   0.000023
    12  C   -0.000001   0.000001  -0.000002  -0.000214  -0.000001  -0.000000
    13  H    0.613641  -0.023822  -0.023830  -0.000370   0.000000   0.000000
    14  H   -0.023822   0.618016  -0.029804   0.000119   0.000000  -0.000000
    15  H   -0.023830  -0.029804   0.618059   0.000125  -0.000000  -0.000000
    16  H   -0.000370   0.000119   0.000125   0.628660   0.001878  -0.000006
    17  H    0.000000   0.000000  -0.000000   0.001878   0.611703  -0.019711
    18  H    0.000000  -0.000000  -0.000000  -0.000006  -0.019711   0.621015
    19  H    0.000000  -0.000000   0.000000   0.001834  -0.019700  -0.019639
    20  H   -0.000000   0.000000   0.000000  -0.000259   0.000033   0.006402
    21  H    0.000000  -0.000012   0.000023   0.000004   0.000000  -0.000000
    22  H    0.000000   0.000019  -0.000011   0.000004  -0.000000  -0.000000
    23  H   -0.000000  -0.000000  -0.000000   0.000007   0.000000  -0.000000
              19         20         21         22         23
     1  C    0.000000   0.000000   0.000000   0.000000  -0.000001
     2  O   -0.000003  -0.000000   0.000024   0.000029   0.000008
     3  C   -0.000006   0.000076   0.001968   0.001931   0.000235
     4  O   -0.000000  -0.000000   0.005154   0.004861   0.000966
     5  C    0.000409   0.001287  -0.010589  -0.009947   0.014081
     6  C   -0.006493   0.006431   0.000125   0.000087  -0.000075
     7  C   -0.015005  -0.070396   0.000002   0.000009   0.000205
     8  C    0.389856  -0.007213  -0.000001  -0.000001  -0.000005
     9  C    0.001158   0.424175  -0.000200  -0.000204   0.000838
    10  N   -0.000148  -0.034787   0.002317   0.002087   0.010831
    11  C    0.000019   0.004504   0.000163  -0.000247  -0.017426
    12  C   -0.000001  -0.000218   0.376113   0.376221   0.358301
    13  H    0.000000  -0.000000   0.000000   0.000000  -0.000000
    14  H   -0.000000   0.000000  -0.000012   0.000019  -0.000000
    15  H    0.000000   0.000000   0.000023  -0.000011  -0.000000
    16  H    0.001834  -0.000259   0.000004   0.000004   0.000007
    17  H   -0.019700   0.000033   0.000000  -0.000000   0.000000
    18  H   -0.019639   0.006402  -0.000000  -0.000000  -0.000000
    19  H    0.611430   0.000037  -0.000000   0.000000   0.000000
    20  H    0.000037   0.645074   0.000008   0.000008  -0.000202
    21  H   -0.000000   0.000008   0.606192  -0.018475  -0.016126
    22  H    0.000000   0.000008  -0.018475   0.605726  -0.015819
    23  H    0.000000  -0.000202  -0.016126  -0.015819   0.624954
 Mulliken charges:
               1
     1  C    0.137678
     2  O   -0.338031
     3  C    0.266854
     4  O   -0.240363
     5  C   -0.100539
     6  C    0.038106
     7  C   -0.140900
     8  C    0.028033
     9  C    0.029969
    10  N   -0.128793
    11  C   -0.147074
    12  C    0.083596
    13  H    0.053253
    14  H    0.053137
    15  H    0.053112
    16  H    0.028744
    17  H    0.055960
    18  H    0.039703
    19  H    0.056253
    20  H    0.025039
    21  H    0.053310
    22  H    0.053722
    23  H    0.039230
 Sum of Mulliken charges =  -0.00000
 Mulliken charges with hydrogens summed into heavy atoms:
               1
     1  C    0.297180
     2  O   -0.338031
     3  C    0.266854
     4  O   -0.240363
     5  C   -0.100539
     6  C    0.066850
     7  C   -0.140900
     8  C    0.179950
     9  C    0.055009
    10  N   -0.128793
    11  C   -0.147074
    12  C    0.229858
 Electronic spatial extent (au):  <R**2>=           2318.3463
 Charge=             -0.0000 electrons
 Dipole moment (field-independent basis, Debye):
    X=              0.1014    Y=             -3.4838    Z=             -0.0084  Tot=              3.4853
 Quadrupole moment (field-independent basis, Debye-Ang):
   XX=            -64.1565   YY=            -69.4525   ZZ=            -70.4565
   XY=             -0.7987   XZ=             -0.0728   YZ=             -0.0287
 Traceless Quadrupole moment (field-independent basis, Debye-Ang):
   XX=              3.8653   YY=             -1.4307   ZZ=             -2.4346
   XY=             -0.7987   XZ=             -0.0728   YZ=             -0.0287
 Octapole moment (field-independent basis, Debye-Ang**2):
  XXX=             20.9758  YYY=            -14.8501  ZZZ=              0.0645  XYY=             13.9908
  XXY=            -38.2536  XXZ=             -0.2141  XZZ=             11.3304  YZZ=             -0.4866
  YYZ=              0.0291  XYZ=             -0.0978
 Hexadecapole moment (field-independent basis, Debye-Ang**3):
 XXXX=          -1750.5516 YYYY=          -1009.3422 ZZZZ=            -88.6397 XXXY=            -66.0465
 XXXZ=             -0.7042 YYYX=              4.3789 YYYZ=              0.2204 ZZZX=              0.1494
 ZZZY=              0.2047 XXYY=           -490.0432 XXZZ=           -333.1529 YYZZ=           -184.9464
 XXYZ=             -0.1338 YYXZ=             -0.0807 ZZXY=              2.0329
 N-N= 6.854446877677D+02 E-N=-2.660460371135D+03  KE= 5.486887717384D+02
   1 Symmetry operations used in ECPInt.
 ECPInt:  NShTT=    5565 NPrTT=   20089 LenC2=    5352 LenP2D=   14394.
 LDataN:  DoStor=T MaxTD1= 5 Len=  102
 Calling FoFJK, ICntrl=      2127 FMM=F ISym2X=0 I1Cent= 0 IOpClX= 0 NMat=1 NMatS=1 NMatT=0.
 ***** Axes restored to original set *****
 -------------------------------------------------------------------
 Center     Atomic                   Forces (Hartrees/Bohr)
 Number     Number              X              Y              Z
 -------------------------------------------------------------------
      1        6          -0.000000259    0.000005491   -0.000000426
      2        8           0.000000719   -0.000006511    0.000006914
      3        6           0.000005217    0.000005342    0.000001676
      4        8          -0.000000848   -0.000002075   -0.000001342
      5        6          -0.000006171    0.000000228   -0.000004592
      6        6          -0.000004557    0.000001765    0.000000624
      7        6           0.000002242   -0.000004222   -0.000000171
      8        6          -0.000002231    0.000005698   -0.000004859
      9        6          -0.000003636    0.000007892   -0.000001659
     10        7           0.000005345    0.000004527   -0.000002179
     11        6          -0.000001741   -0.000009076    0.000002138
     12        6          -0.000004503    0.000003562   -0.000001949
     13        1          -0.000000239   -0.000006197    0.000003032
     14        1          -0.000001728   -0.000002433    0.000002407
     15        1          -0.000000781   -0.000001464    0.000003911
     16        1           0.000001246    0.000000110    0.000000264
     17        1           0.000000118   -0.000000954    0.000002990
     18        1           0.000000147    0.000003096    0.000000530
     19        1           0.000001168   -0.000002395    0.000000132
     20        1           0.000002688   -0.000000175   -0.000001203
     21        1           0.000001945   -0.000001283   -0.000004384
     22        1           0.000002808    0.000000731    0.000001074
     23        1           0.000003054   -0.000001659   -0.000002927
 -------------------------------------------------------------------
 Cartesian Forces:  Max     0.000009076 RMS     0.000003373

 GradGradGradGradGradGradGradGradGradGradGradGradGradGradGradGradGradGrad
 Berny optimization.
 FormGI is forming the generalized inverse of G from B-inverse, IUseBI=4.
 Internal  Forces:  Max     0.000005462 RMS     0.000001810
 Search for a local minimum.
 Step number   1 out of a maximum of  112
 All quantities printed in internal units (Hartrees-Bohrs-Radians)
 Mixed Optimization -- En-DIIS/RFO-DIIS
 Second derivative matrix not updated -- first step.
 ITU=  0
     Eigenvalues ---    0.00715   0.00729   0.00861   0.01370   0.01448
     Eigenvalues ---    0.01469   0.01558   0.01669   0.02022   0.02152
     Eigenvalues ---    0.02167   0.02297   0.02476   0.02482   0.07148
     Eigenvalues ---    0.07189   0.07272   0.07437   0.10219   0.10630
     Eigenvalues ---    0.16000   0.16000   0.16000   0.16000   0.16000
     Eigenvalues ---    0.16000   0.16000   0.16000   0.16000   0.16000
     Eigenvalues ---    0.16000   0.23284   0.23481   0.25000   0.25000
     Eigenvalues ---    0.25000   0.25000   0.25000   0.25000   0.25000
     Eigenvalues ---    0.31976   0.32087   0.33141   0.33594   0.33600
     Eigenvalues ---    0.33731   0.33732   0.33795   0.33796   0.33826
     Eigenvalues ---    0.33971   0.34082   0.34172   0.34642   0.41111
     Eigenvalues ---    0.42937   0.44126   0.45063   0.46383   0.56508
     Eigenvalues ---    0.57047   0.58617   1.02234
 RFO step:  Lambda= 0.00000000D+00 EMin= 7.14918410D-03
 Linear search not attempted -- first point.
 Iteration  1 RMS(Cart)=  0.00009417 RMS(Int)=  0.00000000
 Iteration  2 RMS(Cart)=  0.00000001 RMS(Int)=  0.00000000
 Variable       Old X    -DE/DX   Delta X   Delta X   Delta X     New X
                                 (Linear)    (Quad)   (Total)
    R1        2.67747  -0.00000   0.00000  -0.00000  -0.00000   2.67747
    R2        2.07041   0.00000   0.00000   0.00001   0.00001   2.07042
    R3        2.07785  -0.00000   0.00000  -0.00000  -0.00000   2.07785
    R4        2.07787  -0.00000   0.00000  -0.00000  -0.00000   2.07787
    R5        2.53356   0.00000   0.00000   0.00001   0.00001   2.53357
    R6        2.27757  -0.00000   0.00000  -0.00000  -0.00000   2.27757
    R7        2.82104   0.00000   0.00000   0.00001   0.00001   2.82106
    R8        2.64011  -0.00000   0.00000  -0.00001  -0.00001   2.64010
    R9        2.67415  -0.00000   0.00000  -0.00001  -0.00001   2.67414
   R10        2.63263  -0.00000   0.00000  -0.00001  -0.00001   2.63263
   R11        2.06260   0.00000   0.00000   0.00000   0.00000   2.06260
   R12        2.84188  -0.00000   0.00000  -0.00001  -0.00001   2.84187
   R13        2.63926   0.00001   0.00000   0.00001   0.00001   2.63927
   R14        2.08011   0.00000   0.00000   0.00001   0.00001   2.08012
   R15        2.07677  -0.00000   0.00000  -0.00000  -0.00000   2.07677
   R16        2.08020   0.00000   0.00000   0.00001   0.00001   2.08021
   R17        2.50949  -0.00000   0.00000  -0.00000  -0.00000   2.50949
   R18        2.07379  -0.00000   0.00000  -0.00001  -0.00001   2.07379
   R19        2.52240  -0.00000   0.00000  -0.00001  -0.00001   2.52240
   R20        2.83986   0.00000   0.00000   0.00000   0.00000   2.83986
   R21        2.07624   0.00000   0.00000   0.00001   0.00001   2.07625
   R22        2.07676   0.00000   0.00000   0.00001   0.00001   2.07677
   R23        2.07192  -0.00000   0.00000  -0.00001  -0.00001   2.07192
    A1        1.85424   0.00000   0.00000   0.00000   0.00000   1.85424
    A2        1.93519  -0.00000   0.00000  -0.00001  -0.00001   1.93518
    A3        1.93506  -0.00000   0.00000  -0.00000  -0.00000   1.93506
    A4        1.92395  -0.00000   0.00000  -0.00000  -0.00000   1.92394
    A5        1.92375   0.00000   0.00000   0.00001   0.00001   1.92376
    A6        1.89190   0.00000   0.00000   0.00000   0.00000   1.89190
    A7        2.02827  -0.00000   0.00000  -0.00001  -0.00001   2.02825
    A8        2.13332   0.00000   0.00000   0.00000   0.00000   2.13332
    A9        1.95574   0.00000   0.00000   0.00000   0.00000   1.95574
   A10        2.19413  -0.00000   0.00000  -0.00000  -0.00000   2.19413
   A11        2.09107   0.00000   0.00000   0.00000   0.00000   2.09108
   A12        2.12154  -0.00000   0.00000  -0.00000  -0.00000   2.12154
   A13        2.07057   0.00000   0.00000  -0.00000  -0.00000   2.07057
   A14        2.10609  -0.00000   0.00000  -0.00000  -0.00000   2.10609
   A15        2.07495  -0.00000   0.00000  -0.00001  -0.00001   2.07494
   A16        2.10214   0.00000   0.00000   0.00001   0.00001   2.10216
   A17        2.12916  -0.00000   0.00000  -0.00001  -0.00001   2.12916
   A18        2.02194  -0.00000   0.00000   0.00000   0.00000   2.02194
   A19        2.13208   0.00000   0.00000   0.00000   0.00000   2.13208
   A20        1.94014  -0.00000   0.00000  -0.00001  -0.00001   1.94013
   A21        1.94207  -0.00000   0.00000  -0.00001  -0.00001   1.94206
   A22        1.93998   0.00000   0.00000   0.00001   0.00001   1.93999
   A23        1.88246   0.00000   0.00000   0.00000   0.00000   1.88246
   A24        1.87411  -0.00000   0.00000  -0.00001  -0.00001   1.87409
   A25        1.88222   0.00000   0.00000   0.00002   0.00002   1.88224
   A26        2.17242  -0.00000   0.00000  -0.00000  -0.00000   2.17241
   A27        2.08655  -0.00000   0.00000  -0.00001  -0.00001   2.08655
   A28        2.02422   0.00000   0.00000   0.00001   0.00001   2.02422
   A29        2.09472  -0.00000   0.00000  -0.00001  -0.00001   2.09471
   A30        2.10063   0.00000   0.00000   0.00001   0.00001   2.10064
   A31        2.16116   0.00000   0.00000   0.00001   0.00001   2.16117
   A32        2.02139  -0.00000   0.00000  -0.00002  -0.00002   2.02137
   A33        1.94419  -0.00000   0.00000  -0.00001  -0.00001   1.94417
   A34        1.94210   0.00000   0.00000   0.00001   0.00001   1.94211
   A35        1.88789   0.00000   0.00000  -0.00000  -0.00000   1.88788
   A36        1.84938   0.00000   0.00000   0.00001   0.00001   1.84939
   A37        1.92172  -0.00000   0.00000  -0.00001  -0.00001   1.92171
   A38        1.91878   0.00000   0.00000   0.00000   0.00000   1.91878
    D1        3.14033   0.00000   0.00000   0.00012   0.00012   3.14045
    D2        1.04980   0.00000   0.00000   0.00013   0.00013   1.04993
    D3       -1.05263   0.00000   0.00000   0.00013   0.00013  -1.05250
    D4        0.00057  -0.00000   0.00000  -0.00001  -0.00001   0.00056
    D5       -3.14092  -0.00000   0.00000  -0.00002  -0.00002  -3.14094
    D6        0.01233  -0.00000   0.00000  -0.00016  -0.00016   0.01217
    D7       -3.12936  -0.00000   0.00000  -0.00021  -0.00021  -3.12957
    D8       -3.12916  -0.00000   0.00000  -0.00017  -0.00017  -3.12932
    D9        0.01233  -0.00000   0.00000  -0.00022  -0.00022   0.01211
   D10        3.14052  -0.00000   0.00000  -0.00005  -0.00005   3.14048
   D11       -0.00079  -0.00000   0.00000  -0.00006  -0.00006  -0.00085
   D12       -0.00097  -0.00000   0.00000   0.00000   0.00000  -0.00096
   D13        3.14090  -0.00000   0.00000  -0.00001  -0.00001   3.14089
   D14       -3.14092   0.00000   0.00000   0.00006   0.00006  -3.14086
   D15        0.00049   0.00000   0.00000   0.00011   0.00011   0.00060
   D16        0.00057   0.00000   0.00000   0.00001   0.00001   0.00058
   D17       -3.14120   0.00000   0.00000   0.00006   0.00006  -3.14114
   D18        3.14157  -0.00000   0.00000  -0.00001  -0.00001   3.14156
   D19        0.00048  -0.00000   0.00000  -0.00002  -0.00002   0.00045
   D20       -0.00031   0.00000   0.00000   0.00001   0.00001  -0.00030
   D21       -3.14140  -0.00000   0.00000  -0.00001  -0.00001  -3.14141
   D22        1.03708  -0.00000   0.00000   0.00000   0.00000   1.03708
   D23        3.13560  -0.00000   0.00000  -0.00001  -0.00001   3.13559
   D24       -1.04948   0.00000   0.00000   0.00002   0.00002  -1.04946
   D25       -2.10505   0.00000   0.00000   0.00001   0.00001  -2.10503
   D26       -0.00653  -0.00000   0.00000   0.00000   0.00000  -0.00652
   D27        2.09158   0.00000   0.00000   0.00003   0.00003   2.09161
   D28        0.00046   0.00000   0.00000   0.00003   0.00003   0.00049
   D29       -3.14137   0.00000   0.00000   0.00003   0.00003  -3.14133
   D30       -3.14063   0.00000   0.00000   0.00002   0.00002  -3.14061
   D31        0.00073   0.00000   0.00000   0.00002   0.00002   0.00075
   D32       -0.00087  -0.00000   0.00000  -0.00002  -0.00002  -0.00089
   D33        3.14095  -0.00000   0.00000  -0.00002  -0.00002   3.14093
   D34        0.00032  -0.00000   0.00000  -0.00001  -0.00001   0.00032
   D35       -3.14110  -0.00000   0.00000  -0.00005  -0.00005  -3.14115
   D36        1.01051   0.00000   0.00000   0.00002   0.00002   1.01053
   D37       -1.04900   0.00000   0.00000   0.00001   0.00001  -1.04898
   D38        3.12481  -0.00000   0.00000   0.00000   0.00000   3.12482
   D39       -2.13125   0.00000   0.00000   0.00006   0.00006  -2.13119
   D40        2.09242   0.00000   0.00000   0.00006   0.00006   2.09248
   D41       -0.01695  -0.00000   0.00000   0.00005   0.00005  -0.01690
         Item               Value     Threshold  Converged?
 Maximum Force            0.000005     0.000450     YES
 RMS     Force            0.000002     0.000300     YES
 Maximum Displacement     0.000415     0.001800     YES
 RMS     Displacement     0.000094     0.001200     YES
 Predicted change in Energy=-1.841850D-09
 Optimization completed.
    -- Stationary point found.
                           ----------------------------
                           !   Optimized Parameters   !
                           ! (Angstroms and Degrees)  !
 --------------------------                            --------------------------
 ! Name  Definition              Value          Derivative Info.                !
 --------------------------------------------------------------------------------
 ! R1    R(1,2)                  1.4169         -DE/DX =    0.0                 !
 ! R2    R(1,13)                 1.0956         -DE/DX =    0.0                 !
 ! R3    R(1,14)                 1.0996         -DE/DX =    0.0                 !
 ! R4    R(1,15)                 1.0996         -DE/DX =    0.0                 !
 ! R5    R(2,3)                  1.3407         -DE/DX =    0.0                 !
 ! R6    R(3,4)                  1.2052         -DE/DX =    0.0                 !
 ! R7    R(3,5)                  1.4928         -DE/DX =    0.0                 !
 ! R8    R(5,6)                  1.3971         -DE/DX =    0.0                 !
 ! R9    R(5,11)                 1.4151         -DE/DX =    0.0                 !
 ! R10   R(6,7)                  1.3931         -DE/DX =    0.0                 !
 ! R11   R(6,16)                 1.0915         -DE/DX =    0.0                 !
 ! R12   R(7,8)                  1.5039         -DE/DX =    0.0                 !
 ! R13   R(7,9)                  1.3966         -DE/DX =    0.0                 !
 ! R14   R(8,17)                 1.1007         -DE/DX =    0.0                 !
 ! R15   R(8,18)                 1.099          -DE/DX =    0.0                 !
 ! R16   R(8,19)                 1.1008         -DE/DX =    0.0                 !
 ! R17   R(9,10)                 1.328          -DE/DX =    0.0                 !
 ! R18   R(9,20)                 1.0974         -DE/DX =    0.0                 !
 ! R19   R(10,11)                1.3348         -DE/DX =    0.0                 !
 ! R20   R(11,12)                1.5028         -DE/DX =    0.0                 !
 ! R21   R(12,21)                1.0987         -DE/DX =    0.0                 !
 ! R22   R(12,22)                1.099          -DE/DX =    0.0                 !
 ! R23   R(12,23)                1.0964         -DE/DX =    0.0                 !
 ! A1    A(2,1,13)             106.2402         -DE/DX =    0.0                 !
 ! A2    A(2,1,14)             110.8782         -DE/DX =    0.0                 !
 ! A3    A(2,1,15)             110.8706         -DE/DX =    0.0                 !
 ! A4    A(13,1,14)            110.234          -DE/DX =    0.0                 !
 ! A5    A(13,1,15)            110.223          -DE/DX =    0.0                 !
 ! A6    A(14,1,15)            108.3979         -DE/DX =    0.0                 !
 ! A7    A(1,2,3)              116.2111         -DE/DX =    0.0                 !
 ! A8    A(2,3,4)              122.2301         -DE/DX =    0.0                 !
 ! A9    A(2,3,5)              112.0556         -DE/DX =    0.0                 !
 ! A10   A(4,3,5)              125.7143         -DE/DX =    0.0                 !
 ! A11   A(3,5,6)              119.8096         -DE/DX =    0.0                 !
 ! A12   A(3,5,11)             121.5555         -DE/DX =    0.0                 !
 ! A13   A(6,5,11)             118.6349         -DE/DX =    0.0                 !
 ! A14   A(5,6,7)              120.67           -DE/DX =    0.0                 !
 ! A15   A(5,6,16)             118.886          -DE/DX =    0.0                 !
 ! A16   A(7,6,16)             120.4439         -DE/DX =    0.0                 !
 ! A17   A(6,7,8)              121.992          -DE/DX =    0.0                 !
 ! A18   A(6,7,9)              115.8488         -DE/DX =    0.0                 !
 ! A19   A(8,7,9)              122.1592         -DE/DX =    0.0                 !
 ! A20   A(7,8,17)             111.1619         -DE/DX =    0.0                 !
 ! A21   A(7,8,18)             111.2724         -DE/DX =    0.0                 !
 ! A22   A(7,8,19)             111.1524         -DE/DX =    0.0                 !
 ! A23   A(17,8,18)            107.8569         -DE/DX =    0.0                 !
 ! A24   A(17,8,19)            107.3784         -DE/DX =    0.0                 !
 ! A25   A(18,8,19)            107.8434         -DE/DX =    0.0                 !
 ! A26   A(7,9,10)             124.4703         -DE/DX =    0.0                 !
 ! A27   A(7,9,20)             119.5507         -DE/DX =    0.0                 !
 ! A28   A(10,9,20)            115.979          -DE/DX =    0.0                 !
 ! A29   A(9,10,11)            120.0187         -DE/DX =    0.0                 !
 ! A30   A(5,11,10)            120.3573         -DE/DX =    0.0                 !
 ! A31   A(5,11,12)            123.8255         -DE/DX =    0.0                 !
 ! A32   A(10,11,12)           115.8172         -DE/DX =    0.0                 !
 ! A33   A(11,12,21)           111.3937         -DE/DX =    0.0                 !
 ! A34   A(11,12,22)           111.2744         -DE/DX =    0.0                 !
 ! A35   A(11,12,23)           108.1678         -DE/DX =    0.0                 !
 ! A36   A(21,12,22)           105.9617         -DE/DX =    0.0                 !
 ! A37   A(21,12,23)           110.1064         -DE/DX =    0.0                 !
 ! A38   A(22,12,23)           109.938          -DE/DX =    0.0                 !
 ! D1    D(13,1,2,3)           179.9277         -DE/DX =    0.0                 !
 ! D2    D(14,1,2,3)            60.1492         -DE/DX =    0.0                 !
 ! D3    D(15,1,2,3)           -60.3112         -DE/DX =    0.0                 !
 ! D4    D(1,2,3,4)              0.0326         -DE/DX =    0.0                 !
 ! D5    D(1,2,3,5)           -179.9617         -DE/DX =    0.0                 !
 ! D6    D(2,3,5,6)              0.7067         -DE/DX =    0.0                 !
 ! D7    D(2,3,5,11)          -179.2992         -DE/DX =    0.0                 !
 ! D8    D(4,3,5,6)           -179.2874         -DE/DX =    0.0                 !
 ! D9    D(4,3,5,11)             0.7067         -DE/DX =    0.0                 !
 ! D10   D(3,5,6,7)            179.9388         -DE/DX =    0.0                 !
 ! D11   D(3,5,6,16)            -0.0452         -DE/DX =    0.0                 !
 ! D12   D(11,5,6,7)            -0.0555         -DE/DX =    0.0                 !
 ! D13   D(11,5,6,16)          179.9606         -DE/DX =    0.0                 !
 ! D14   D(3,5,11,10)         -179.9614         -DE/DX =    0.0                 !
 ! D15   D(3,5,11,12)            0.0283         -DE/DX =    0.0                 !
 ! D16   D(6,5,11,10)            0.0327         -DE/DX =    0.0                 !
 ! D17   D(6,5,11,12)         -179.9776         -DE/DX =    0.0                 !
 ! D18   D(5,6,7,8)            179.9987         -DE/DX =    0.0                 !
 ! D19   D(5,6,7,9)              0.0273         -DE/DX =    0.0                 !
 ! D20   D(16,6,7,8)            -0.0176         -DE/DX =    0.0                 !
 ! D21   D(16,6,7,9)          -179.9889         -DE/DX =    0.0                 !
 ! D22   D(6,7,8,17)            59.4203         -DE/DX =    0.0                 !
 ! D23   D(6,7,8,18)           179.6566         -DE/DX =    0.0                 !
 ! D24   D(6,7,8,19)           -60.1306         -DE/DX =    0.0                 !
 ! D25   D(9,7,8,17)          -120.6102         -DE/DX =    0.0                 !
 ! D26   D(9,7,8,18)            -0.3739         -DE/DX =    0.0                 !
 ! D27   D(9,7,8,19)           119.8389         -DE/DX =    0.0                 !
 ! D28   D(6,7,9,10)             0.0263         -DE/DX =    0.0                 !
 ! D29   D(6,7,9,20)          -179.987          -DE/DX =    0.0                 !
 ! D30   D(8,7,9,10)          -179.945          -DE/DX =    0.0                 !
 ! D31   D(8,7,9,20)             0.0418         -DE/DX =    0.0                 !
 ! D32   D(7,9,10,11)           -0.0498         -DE/DX =    0.0                 !
 ! D33   D(20,9,10,11)         179.963          -DE/DX =    0.0                 !
 ! D34   D(9,10,11,5)            0.0185         -DE/DX =    0.0                 !
 ! D35   D(9,10,11,12)        -179.972          -DE/DX =    0.0                 !
 ! D36   D(5,11,12,21)          57.898          -DE/DX =    0.0                 !
 ! D37   D(5,11,12,22)         -60.1031         -DE/DX =    0.0                 !
 ! D38   D(5,11,12,23)         179.0386         -DE/DX =    0.0                 !
 ! D39   D(10,11,12,21)       -122.1119         -DE/DX =    0.0                 !
 ! D40   D(10,11,12,22)        119.887          -DE/DX =    0.0                 !
 ! D41   D(10,11,12,23)         -0.9713         -DE/DX =    0.0                 !
 --------------------------------------------------------------------------------
 GradGradGradGradGradGradGradGradGradGradGradGradGradGradGradGradGradGrad

                          Input orientation:                          
 ---------------------------------------------------------------------
 Center     Atomic      Atomic             Coordinates (Angstroms)
 Number     Number       Type             X           Y           Z
 ---------------------------------------------------------------------
      1          6           0        3.384360   -1.490660   -0.005660
      2          8           0        1.986580   -1.258940   -0.007940
      3          6           0        1.599080    0.024490    0.003880
      4          8           0        2.389310    0.934440    0.015220
      5          6           0        0.112530    0.161270    0.001260
      6          6           0       -0.690140   -0.982220    0.002600
      7          6           0       -2.079170   -0.875420    0.001480
      8          6           0       -2.971350   -2.086040    0.002840
      9          6           0       -2.589950    0.424460   -0.001610
     10          7           0       -1.845870    1.524380   -0.003970
     11          6           0       -0.514420    1.429900   -0.002460
     12          6           0        0.234160    2.732970   -0.004720
     13          1           0        3.514630   -2.578460   -0.015010
     14          1           0        3.851600   -1.059400    0.891400
     15          1           0        3.856990   -1.043620   -0.892120
     16          1           0       -0.210860   -1.962840    0.004810
     17          1           0       -2.787300   -2.714310    0.887740
     18          1           0       -4.032290   -1.799450    0.007790
     19          1           0       -2.794810   -2.710580   -0.886280
     20          1           0       -3.676410    0.579060   -0.002420
     21          1           0        0.906170    2.807620   -0.870730
     22          1           0        0.874400    2.826570    0.883580
     23          1           0       -0.498710    3.548210   -0.024960
 ---------------------------------------------------------------------
                    Distance matrix (angstroms):
                    1          2          3          4          5
     1  C    0.000000
     2  O    1.416859   0.000000
     3  C    2.341580   1.340704   0.000000
     4  O    2.621387   2.230167   1.205239   0.000000
     5  C    3.665214   2.351413   1.492832   2.404519   0.000000
     6  C    4.106109   2.691006   2.500799   3.627224   1.397086
     7  C    5.498066   4.083809   3.786736   4.821109   2.424515
     8  C    6.383541   5.026458   5.034200   6.153058   3.815851
     9  C    6.273761   4.876321   4.208085   5.005336   2.715267
    10  N    6.037034   4.736513   3.757314   4.276114   2.386090
    11  C    4.871362   3.672178   2.538129   2.945750   1.415098
    12  C    5.269043   4.359625   3.032976   2.807094   2.574582
    13  H    1.095612   2.018940   3.231878   3.688865   4.368143
    14  H    1.099552   2.080127   2.652613   2.623239   4.032745
    15  H    1.099561   2.080041   2.653645   2.624895   4.033716
    16  H    3.626110   2.307462   2.688004   3.892971   2.148590
    17  H    6.354909   5.070530   5.246195   6.393118   4.178974
    18  H    7.423088   6.043111   5.919383   6.979338   4.585193
    19  H    6.359704   5.073503   5.251596   6.401092   4.181851
    20  H    7.357868   5.953800   5.304562   6.076147   3.811906
    21  H    5.036366   4.295184   2.998480   2.548218   2.897136
    22  H    5.072388   4.327025   3.025010   2.574715   2.909082
    23  H    6.361511   5.411621   4.100995   3.895391   3.441753
                    6          7          8          9         10
     6  C    0.000000
     7  C    1.393130   0.000000
     8  C    2.534233   1.503858   0.000000
     9  C    2.363904   1.396637   2.539310   0.000000
    10  N    2.760217   2.411120   3.781783   1.327963   0.000000
    11  C    2.418517   2.786209   4.289332   2.306238   1.334799
    12  C    3.828449   4.286259   5.787764   3.647578   2.405663
    13  H    4.497597   5.847326   6.504670   6.803205   6.750435
    14  H    4.628534   5.999987   6.956736   6.670298   6.319713
    15  H    4.634726   6.005398   6.965186   6.671679   6.317123
    16  H    1.091481   2.161730   2.763239   3.370358   3.851498
    17  H    2.860365   2.160653   1.100748   3.268297   4.432599
    18  H    3.440619   2.160683   1.098978   2.650700   3.978494
    19  H    2.864781   2.160572   1.100796   3.263906   4.428752
    20  H    3.369782   2.160255   2.756791   1.097405   2.060221
    21  H    4.204022   4.820559   6.304458   4.319453   3.157800
    22  H    4.210795   4.817303   6.300733   4.307600   3.143774
    23  H    4.534556   4.697558   6.153007   3.759208   2.431289
                   11         12         13         14         15
    11  C    0.000000
    12  C    1.502787   0.000000
    13  H    5.683340   6.242826   0.000000
    14  H    5.104677   5.317046   1.800742   0.000000
    15  H    5.100884   5.308014   1.800629   1.783598   0.000000
    16  H    3.406301   4.716860   3.776064   4.255094   4.265777
    17  H    4.809669   6.292739   6.367710   6.842056   7.078538
    18  H    4.775376   6.224595   7.587053   7.967695   7.976331
    19  H    4.808835   6.291585   6.370683   7.075402   6.857495
    20  H    3.274463   4.464515   7.853735   7.755927   7.757369
    21  H    2.161037   1.098701   6.045344   5.170542   4.851788
    22  H    2.159763   1.098975   6.082157   4.895359   5.198781
    23  H    2.118488   1.096414   7.324144   6.402732   6.388192
                   16         17         18         19         20
    16  H    0.000000
    17  H    2.825299   0.000000
    18  H    3.824923   1.777999   0.000000
    19  H    2.833717   1.774040   1.777885   0.000000
    20  H    4.297830   3.525505   2.405008   3.518545   0.000000
    21  H    4.977109   6.872092   6.810674   6.644398   5.169186
    22  H    4.988835   6.641492   6.800197   6.874266   5.152297
    23  H    5.518643   6.729771   6.409737   6.722083   4.349039
                   21         22         23
    21  H    0.000000
    22  H    1.754700   0.000000
    23  H    1.799302   1.797676   0.000000
 Stoichiometry    C9H11NO2
 Framework group  C1[X(C9H11NO2)]
 Deg. of freedom    63
 Full point group                 C1      NOp   1
 Largest Abelian subgroup         C1      NOp   1
 Largest concise Abelian subgroup C1      NOp   1
                         Standard orientation:                         
 ---------------------------------------------------------------------
 Center     Atomic      Atomic             Coordinates (Angstroms)
 Number     Number       Type             X           Y           Z
 ---------------------------------------------------------------------
      1          6           0        3.384360   -1.490659   -0.005659
      2          8           0        1.986580   -1.258939   -0.007939
      3          6           0        1.599080    0.024491    0.003881
      4          8           0        2.389309    0.934441    0.015221
      5          6           0        0.112530    0.161270    0.001261
      6          6           0       -0.690140   -0.982220    0.002601
      7          6           0       -2.079170   -0.875420    0.001481
      8          6           0       -2.971350   -2.086040    0.002841
      9          6           0       -2.589951    0.424460   -0.001609
     10          7           0       -1.845871    1.524380   -0.003969
     11          6           0       -0.514421    1.429900   -0.002459
     12          6           0        0.234159    2.732971   -0.004719
     13          1           0        3.514630   -2.578459   -0.015009
     14          1           0        3.851600   -1.059399    0.891401
     15          1           0        3.856990   -1.043619   -0.892119
     16          1           0       -0.210860   -1.962840    0.004811
     17          1           0       -2.787300   -2.714310    0.887741
     18          1           0       -4.032290   -1.799450    0.007791
     19          1           0       -2.794810   -2.710580   -0.886279
     20          1           0       -3.676411    0.579060   -0.002419
     21          1           0        0.906169    2.807621   -0.870729
     22          1           0        0.874399    2.826571    0.883581
     23          1           0       -0.498711    3.548210   -0.024959
 ---------------------------------------------------------------------
 Rotational constants (GHZ):           1.4332615           0.7086471           0.4784542
 Unable to Open any file for archive entry.
 1\1\GINC-NOTCH340\FOpt\RwB97XD\def2SVP\C9H11N1O2\U6053008\12-Jul-2024\
 0\\#N OPT FREQ=NORAMAN Integral(Ultrafine) wB97XD def2SVP\\12356205_1\
 \0,1\C,3.38436,-1.49066,-0.00566\O,1.98658,-1.25894,-0.00794\C,1.59908
 ,0.02449,0.00388\O,2.38931,0.93444,0.01522\C,0.11253,0.16127,0.00126\C
 ,-0.69014,-0.98222,0.0026\C,-2.07917,-0.87542,0.00148\C,-2.97135,-2.08
 604,0.00284\C,-2.58995,0.42446,-0.00161\N,-1.84587,1.52438,-0.00397\C,
 -0.51442,1.4299,-0.00246\C,0.23416,2.73297,-0.00472\H,3.51463,-2.57846
 ,-0.01501\H,3.8516,-1.0594,0.8914\H,3.85699,-1.04362,-0.89212\H,-0.210
 86,-1.96284,0.00481\H,-2.7873,-2.71431,0.88774\H,-4.03229,-1.79945,0.0
 0779\H,-2.79481,-2.71058,-0.88628\H,-3.67641,0.57906,-0.00242\H,0.9061
 7,2.80762,-0.87073\H,0.8744,2.82657,0.88358\H,-0.49871,3.54821,-0.0249
 6\\Version=ES64L-G16RevC.01\State=1-A\HF=-554.2170556\RMSD=6.654e-09\R
 MSF=3.373e-06\Dipole=0.0399084,-1.3706385,-0.0033232\Quadrupole=2.8737
 739,-1.0636754,-1.8100985,-0.5938451,-0.054133,-0.0213276\PG=C01 [X(C9
 H11N1O2)]\\@
 The archive entry for this job was punched.


 BREAD HAS TO MOLD IN ORDER TO GET PENICILLIN.
          -- JERRY BOATZ
 Job cpu time:       0 days  0 hours  7 minutes 59.3 seconds.
 Elapsed time:       0 days  0 hours  0 minutes 30.6 seconds.
 File lengths (MBytes):  RWF=     46 Int=      0 D2E=      0 Chk=      6 Scr=      2
 Normal termination of Gaussian 16 at Fri Jul 12 13:09:57 2024.
 Link1:  Proceeding to internal job step number  2.
 --------------------------------------------------------------------
 #N Geom=AllCheck Guess=TCheck SCRF=Check GenChk RwB97XD/def2SVP Freq
 --------------------------------------------------------------------
 1/10=4,29=7,30=1,38=1,40=1/1,3;
 2/12=2,40=1/2;
 3/5=43,7=101,11=2,14=-4,25=1,30=1,70=2,71=2,74=-58,75=-5,116=1,140=1/1,2,3;
 4/5=101/1;
 5/5=2,38=6,98=1/2;
 8/6=4,10=90,11=11/1;
 11/6=1,8=1,9=11,15=111,16=1/1,2,10;
 10/6=1/2;
 6/7=2,8=2,9=2,10=2,28=1/1;
 7/8=1,10=1,25=1/1,2,3,16;
 1/10=4,30=1/3;
 99//99;
 Structure from the checkpoint file:  "12356205_1.chk"
 ----------
 12356205_1
 ----------
 Charge =  0 Multiplicity = 1
 Redundant internal coordinates found in file.  (old form).
 C,0,3.38436,-1.49066,-0.00566
 O,0,1.98658,-1.25894,-0.00794
 C,0,1.59908,0.02449,0.00388
 O,0,2.38931,0.93444,0.01522
 C,0,0.11253,0.16127,0.00126
 C,0,-0.69014,-0.98222,0.0026
 C,0,-2.07917,-0.87542,0.00148
 C,0,-2.97135,-2.08604,0.00284
 C,0,-2.58995,0.42446,-0.00161
 N,0,-1.84587,1.52438,-0.00397
 C,0,-0.51442,1.4299,-0.00246
 C,0,0.23416,2.73297,-0.00472
 H,0,3.51463,-2.57846,-0.01501
 H,0,3.8516,-1.0594,0.8914
 H,0,3.85699,-1.04362,-0.89212
 H,0,-0.21086,-1.96284,0.00481
 H,0,-2.7873,-2.71431,0.88774
 H,0,-4.03229,-1.79945,0.00779
 H,0,-2.79481,-2.71058,-0.88628
 H,0,-3.67641,0.57906,-0.00242
 H,0,0.90617,2.80762,-0.87073
 H,0,0.8744,2.82657,0.88358
 H,0,-0.49871,3.54821,-0.02496
 Recover connectivity data from disk.

 GradGradGradGradGradGradGradGradGradGradGradGradGradGradGradGradGradGrad
 Berny optimization.
 Initialization pass.
                           ----------------------------
                           !    Initial Parameters    !
                           ! (Angstroms and Degrees)  !
 --------------------------                            --------------------------
 ! Name  Definition              Value          Derivative Info.                !
 --------------------------------------------------------------------------------
 ! R1    R(1,2)                  1.4169         calculate D2E/DX2 analytically  !
 ! R2    R(1,13)                 1.0956         calculate D2E/DX2 analytically  !
 ! R3    R(1,14)                 1.0996         calculate D2E/DX2 analytically  !
 ! R4    R(1,15)                 1.0996         calculate D2E/DX2 analytically  !
 ! R5    R(2,3)                  1.3407         calculate D2E/DX2 analytically  !
 ! R6    R(3,4)                  1.2052         calculate D2E/DX2 analytically  !
 ! R7    R(3,5)                  1.4928         calculate D2E/DX2 analytically  !
 ! R8    R(5,6)                  1.3971         calculate D2E/DX2 analytically  !
 ! R9    R(5,11)                 1.4151         calculate D2E/DX2 analytically  !
 ! R10   R(6,7)                  1.3931         calculate D2E/DX2 analytically  !
 ! R11   R(6,16)                 1.0915         calculate D2E/DX2 analytically  !
 ! R12   R(7,8)                  1.5039         calculate D2E/DX2 analytically  !
 ! R13   R(7,9)                  1.3966         calculate D2E/DX2 analytically  !
 ! R14   R(8,17)                 1.1007         calculate D2E/DX2 analytically  !
 ! R15   R(8,18)                 1.099          calculate D2E/DX2 analytically  !
 ! R16   R(8,19)                 1.1008         calculate D2E/DX2 analytically  !
 ! R17   R(9,10)                 1.328          calculate D2E/DX2 analytically  !
 ! R18   R(9,20)                 1.0974         calculate D2E/DX2 analytically  !
 ! R19   R(10,11)                1.3348         calculate D2E/DX2 analytically  !
 ! R20   R(11,12)                1.5028         calculate D2E/DX2 analytically  !
 ! R21   R(12,21)                1.0987         calculate D2E/DX2 analytically  !
 ! R22   R(12,22)                1.099          calculate D2E/DX2 analytically  !
 ! R23   R(12,23)                1.0964         calculate D2E/DX2 analytically  !
 ! A1    A(2,1,13)             106.2402         calculate D2E/DX2 analytically  !
 ! A2    A(2,1,14)             110.8782         calculate D2E/DX2 analytically  !
 ! A3    A(2,1,15)             110.8706         calculate D2E/DX2 analytically  !
 ! A4    A(13,1,14)            110.234          calculate D2E/DX2 analytically  !
 ! A5    A(13,1,15)            110.223          calculate D2E/DX2 analytically  !
 ! A6    A(14,1,15)            108.3979         calculate D2E/DX2 analytically  !
 ! A7    A(1,2,3)              116.2111         calculate D2E/DX2 analytically  !
 ! A8    A(2,3,4)              122.2301         calculate D2E/DX2 analytically  !
 ! A9    A(2,3,5)              112.0556         calculate D2E/DX2 analytically  !
 ! A10   A(4,3,5)              125.7143         calculate D2E/DX2 analytically  !
 ! A11   A(3,5,6)              119.8096         calculate D2E/DX2 analytically  !
 ! A12   A(3,5,11)             121.5555         calculate D2E/DX2 analytically  !
 ! A13   A(6,5,11)             118.6349         calculate D2E/DX2 analytically  !
 ! A14   A(5,6,7)              120.67           calculate D2E/DX2 analytically  !
 ! A15   A(5,6,16)             118.886          calculate D2E/DX2 analytically  !
 ! A16   A(7,6,16)             120.4439         calculate D2E/DX2 analytically  !
 ! A17   A(6,7,8)              121.992          calculate D2E/DX2 analytically  !
 ! A18   A(6,7,9)              115.8488         calculate D2E/DX2 analytically  !
 ! A19   A(8,7,9)              122.1592         calculate D2E/DX2 analytically  !
 ! A20   A(7,8,17)             111.1619         calculate D2E/DX2 analytically  !
 ! A21   A(7,8,18)             111.2724         calculate D2E/DX2 analytically  !
 ! A22   A(7,8,19)             111.1524         calculate D2E/DX2 analytically  !
 ! A23   A(17,8,18)            107.8569         calculate D2E/DX2 analytically  !
 ! A24   A(17,8,19)            107.3784         calculate D2E/DX2 analytically  !
 ! A25   A(18,8,19)            107.8434         calculate D2E/DX2 analytically  !
 ! A26   A(7,9,10)             124.4703         calculate D2E/DX2 analytically  !
 ! A27   A(7,9,20)             119.5507         calculate D2E/DX2 analytically  !
 ! A28   A(10,9,20)            115.979          calculate D2E/DX2 analytically  !
 ! A29   A(9,10,11)            120.0187         calculate D2E/DX2 analytically  !
 ! A30   A(5,11,10)            120.3573         calculate D2E/DX2 analytically  !
 ! A31   A(5,11,12)            123.8255         calculate D2E/DX2 analytically  !
 ! A32   A(10,11,12)           115.8172         calculate D2E/DX2 analytically  !
 ! A33   A(11,12,21)           111.3937         calculate D2E/DX2 analytically  !
 ! A34   A(11,12,22)           111.2744         calculate D2E/DX2 analytically  !
 ! A35   A(11,12,23)           108.1678         calculate D2E/DX2 analytically  !
 ! A36   A(21,12,22)           105.9617         calculate D2E/DX2 analytically  !
 ! A37   A(21,12,23)           110.1064         calculate D2E/DX2 analytically  !
 ! A38   A(22,12,23)           109.938          calculate D2E/DX2 analytically  !
 ! D1    D(13,1,2,3)           179.9277         calculate D2E/DX2 analytically  !
 ! D2    D(14,1,2,3)            60.1492         calculate D2E/DX2 analytically  !
 ! D3    D(15,1,2,3)           -60.3112         calculate D2E/DX2 analytically  !
 ! D4    D(1,2,3,4)              0.0326         calculate D2E/DX2 analytically  !
 ! D5    D(1,2,3,5)           -179.9617         calculate D2E/DX2 analytically  !
 ! D6    D(2,3,5,6)              0.7067         calculate D2E/DX2 analytically  !
 ! D7    D(2,3,5,11)          -179.2992         calculate D2E/DX2 analytically  !
 ! D8    D(4,3,5,6)           -179.2874         calculate D2E/DX2 analytically  !
 ! D9    D(4,3,5,11)             0.7067         calculate D2E/DX2 analytically  !
 ! D10   D(3,5,6,7)            179.9388         calculate D2E/DX2 analytically  !
 ! D11   D(3,5,6,16)            -0.0452         calculate D2E/DX2 analytically  !
 ! D12   D(11,5,6,7)            -0.0555         calculate D2E/DX2 analytically  !
 ! D13   D(11,5,6,16)          179.9606         calculate D2E/DX2 analytically  !
 ! D14   D(3,5,11,10)         -179.9614         calculate D2E/DX2 analytically  !
 ! D15   D(3,5,11,12)            0.0283         calculate D2E/DX2 analytically  !
 ! D16   D(6,5,11,10)            0.0327         calculate D2E/DX2 analytically  !
 ! D17   D(6,5,11,12)         -179.9776         calculate D2E/DX2 analytically  !
 ! D18   D(5,6,7,8)            179.9987         calculate D2E/DX2 analytically  !
 ! D19   D(5,6,7,9)              0.0273         calculate D2E/DX2 analytically  !
 ! D20   D(16,6,7,8)            -0.0176         calculate D2E/DX2 analytically  !
 ! D21   D(16,6,7,9)          -179.9889         calculate D2E/DX2 analytically  !
 ! D22   D(6,7,8,17)            59.4203         calculate D2E/DX2 analytically  !
 ! D23   D(6,7,8,18)           179.6566         calculate D2E/DX2 analytically  !
 ! D24   D(6,7,8,19)           -60.1306         calculate D2E/DX2 analytically  !
[...]
 Alpha virt. eigenvalues --    1.55034   1.56129   1.56207   1.58971   1.59147
 Alpha virt. eigenvalues --    1.59351   1.60189   1.60572   1.60740   1.61004
 Alpha virt. eigenvalues --    1.62718   1.64119   1.64545   1.65902   1.66398
 Alpha virt. eigenvalues --    1.67292   1.68591   1.70051   1.72237   1.72634
 Alpha virt. eigenvalues --    1.73002   1.74219   1.76794   1.77793   1.81000
 Alpha virt. eigenvalues --    1.81283   1.82608   1.84092   1.85516   1.87176
 Alpha virt. eigenvalues --    1.91051   1.91280   1.96599   1.99116   2.00453
 Alpha virt. eigenvalues --    2.01735   2.01968   2.04013   2.05041   2.06681
 Alpha virt. eigenvalues --    2.07444   2.09043   2.10859   2.11289   2.12721
 Alpha virt. eigenvalues --    2.13732   2.16280   2.17263   2.18297   2.18602
 Alpha virt. eigenvalues --    2.19753   2.22501   2.22962   2.25282   2.26667
 Alpha virt. eigenvalues --    2.29756   2.32098   2.32230   2.32868   2.35735
 Alpha virt. eigenvalues --    2.36491   2.36854   2.39515   2.42485   2.43195
 Alpha virt. eigenvalues --    2.43771   2.44894   2.46799   2.47776   2.48879
 Alpha virt. eigenvalues --    2.50413   2.50767   2.51491   2.53583   2.57481
 Alpha virt. eigenvalues --    2.58227   2.59977   2.60888   2.61833   2.62130
 Alpha virt. eigenvalues --    2.62818   2.64128   2.64795   2.69561   2.70297
 Alpha virt. eigenvalues --    2.74462   2.74974   2.76071   2.79076   2.79918
 Alpha virt. eigenvalues --    2.80204   2.82575   2.83095   2.85048   2.86830
 Alpha virt. eigenvalues --    2.88817   2.89569   2.90783   2.92419   2.92707
 Alpha virt. eigenvalues --    2.93836   2.94967   2.96736   2.99869   3.01110
 Alpha virt. eigenvalues --    3.01558   3.02300   3.04868   3.05276   3.06480
 Alpha virt. eigenvalues --    3.09518   3.10570   3.11413   3.11690   3.14003
 Alpha virt. eigenvalues --    3.14694   3.18304   3.19055   3.19703   3.22165
 Alpha virt. eigenvalues --    3.22590   3.25376   3.26349   3.26763   3.26902
 Alpha virt. eigenvalues --    3.27562   3.29135   3.29409   3.30142   3.31203
 Alpha virt. eigenvalues --    3.32152   3.33789   3.34213   3.35357   3.36307
 Alpha virt. eigenvalues --    3.38083   3.39653   3.40504   3.41529   3.41962
 Alpha virt. eigenvalues --    3.42554   3.43154   3.44357   3.44681   3.45953
 Alpha virt. eigenvalues --    3.47159   3.47876   3.48442   3.48550   3.51283
 Alpha virt. eigenvalues --    3.52631   3.53961   3.55906   3.59889   3.60094
 Alpha virt. eigenvalues --    3.62411   3.63278   3.64865   3.66042   3.67523
 Alpha virt. eigenvalues --    3.73054   3.74207   3.76385   3.77648   3.78706
 Alpha virt. eigenvalues --    3.79918   3.83170   3.83893   3.85389   3.85512
 Alpha virt. eigenvalues --    3.89238   3.91929   3.94954   3.97285   3.97778
 Alpha virt. eigenvalues --    3.99122   4.00269   4.06128   4.12631   4.12824
 Alpha virt. eigenvalues --    4.18325   4.20644   4.21011   4.21644   4.24791
 Alpha virt. eigenvalues --    4.25138   4.26381   4.27111   4.32578   4.36133
 Alpha virt. eigenvalues --    4.37449   4.38560   4.38701   4.43793   4.44043
 Alpha virt. eigenvalues --    4.46882   4.49394   4.52644   4.54251   4.58854
 Alpha virt. eigenvalues --    4.59658   4.60958   4.64912   4.65651   4.70433
 Alpha virt. eigenvalues --    4.71332   4.77150   4.79778   4.83727   4.92207
 Alpha virt. eigenvalues --    4.99536   5.00717   5.03637   5.04717   5.13567
 Alpha virt. eigenvalues --    5.17114   5.24948   5.28278   5.29553   5.32988
 Alpha virt. eigenvalues --    5.35918   5.36887   5.39162   5.39213   5.41331
 Alpha virt. eigenvalues --    5.48836   5.52429   5.59919   5.67402   5.74805
 Alpha virt. eigenvalues --    5.75865   5.77153   5.86386   5.94293   5.98598
 Alpha virt. eigenvalues --    6.06218   6.20094   6.25148   6.29003   6.43813
 Alpha virt. eigenvalues --    6.45728   6.52357   6.68178   6.74074   6.83860
 Alpha virt. eigenvalues --    6.85732   6.97817   7.04988   7.15501   7.24574
 Alpha virt. eigenvalues --    7.43156   7.53900  22.43994  22.48304  22.56283
 Alpha virt. eigenvalues --   22.64363  22.91112  23.04593  23.15840  23.36575
 Alpha virt. eigenvalues --   23.61445  32.66522  44.06254  44.28639
          Condensed to atoms (all electrons):
               1          2          3          4          5          6
     1  C    4.767722   0.226539  -0.043994   0.004246   0.007542  -0.002204
     2  O    0.226539   7.979280   0.398110  -0.083988  -0.184189   0.038407
     3  C   -0.043994   0.398110   4.526549   0.633397   0.235858  -0.064374
     4  O    0.004246  -0.083988   0.633397   7.907696  -0.090812   0.008527
     5  C    0.007542  -0.184189   0.235858  -0.090812   5.356763   0.358939
     6  C   -0.002204   0.038407  -0.064374   0.008527   0.358939   5.321244
     7  C    0.000041  -0.001899   0.005271  -0.000422  -0.020290   0.365858
     8  C    0.000000  -0.000467  -0.000594  -0.000002   0.015351  -0.084785
     9  C   -0.000002   0.000702   0.003333   0.000326  -0.028550  -0.027020
    10  N    0.000023  -0.000249   0.006654   0.000126  -0.060565  -0.076124
    11  C   -0.000288  -0.007182  -0.042442  -0.017930   0.471005  -0.058627
    12  C   -0.000193   0.000107  -0.028616  -0.001380  -0.037757  -0.001188
    13  H    0.395427  -0.032854   0.003921   0.001751   0.004733  -0.001346
    14  H    0.419739  -0.035414  -0.007822   0.005204  -0.002951   0.000557
    15  H    0.419501  -0.035146  -0.007898   0.005190  -0.003140   0.000625
    16  H   -0.000594   0.019389  -0.011533   0.000472  -0.033730   0.435312
    17  H   -0.000000  -0.000005  -0.000017  -0.000000  -0.000000  -0.007667
    18  H    0.000000   0.000001  -0.000018  -0.000000  -0.000863   0.015242
    19  H   -0.000001  -0.000005  -0.000011  -0.000000  -0.000081  -0.007814
    20  H    0.000000  -0.000000   0.000183  -0.000000  -0.002610   0.009363
    21  H    0.000024  -0.000071  -0.006146  -0.000238   0.003220   0.001351
    22  H    0.000021  -0.000054  -0.006067  -0.000009   0.003650   0.001120
    23  H   -0.000009   0.000040   0.000202   0.002206   0.008356  -0.000159
               7          8          9         10         11         12
     1  C    0.000041   0.000000  -0.000002   0.000023  -0.000288  -0.000193
     2  O   -0.001899  -0.000467   0.000702  -0.000249  -0.007182   0.000107
     3  C    0.005271  -0.000594   0.003333   0.006654  -0.042442  -0.028616
     4  O   -0.000422  -0.000002   0.000326   0.000126  -0.017930  -0.001380
     5  C   -0.020290   0.015351  -0.028550  -0.060565   0.471005  -0.037757
     6  C    0.365858  -0.084785  -0.027020  -0.076124  -0.058627  -0.001188
     7  C    5.129476   0.275261   0.493520  -0.050059  -0.019680   0.003031
     8  C    0.275261   4.958827  -0.048857   0.009515  -0.000487   0.000142
     9  C    0.493520  -0.048857   4.760956   0.548692  -0.110093   0.000229
    10  N   -0.050059   0.009515   0.548692   6.440704   0.531567  -0.053597
    11  C   -0.019680  -0.000487  -0.110093   0.531567   4.963855   0.296215
    12  C    0.003031   0.000142   0.000229  -0.053597   0.296215   4.907932
    13  H   -0.000054   0.000004  -0.000006  -0.000000   0.000135   0.000012
    14  H    0.000001  -0.000002   0.000003  -0.000001  -0.000165  -0.000034
    15  H    0.000004  -0.000002   0.000003  -0.000001  -0.000137  -0.000045
    16  H   -0.053454  -0.003863   0.004320  -0.001551   0.004764  -0.000169
    17  H   -0.034372   0.412544  -0.001765  -0.000246   0.000055  -0.000003
    18  H   -0.062598   0.424283  -0.002832   0.000203   0.000471  -0.000000
    19  H   -0.033658   0.411908  -0.001897  -0.000243   0.000061  -0.000003
    20  H   -0.092647  -0.004273   0.446679  -0.028015   0.005477  -0.000247
    21  H   -0.000123  -0.000006  -0.000162   0.000796  -0.033333   0.405421
    22  H   -0.000072  -0.000006  -0.000201   0.000531  -0.030821   0.402049
    23  H    0.000574  -0.000015   0.001134   0.009816  -0.071606   0.426296
              13         14         15         16         17         18
     1  C    0.395427   0.419739   0.419501  -0.000594  -0.000000   0.000000
     2  O   -0.032854  -0.035414  -0.035146   0.019389  -0.000005   0.000001
     3  C    0.003921  -0.007822  -0.007898  -0.011533  -0.000017  -0.000018
     4  O    0.001751   0.005204   0.005190   0.000472  -0.000000  -0.000000
     5  C    0.004733  -0.002951  -0.003140  -0.033730  -0.000000  -0.000863
     6  C   -0.001346   0.000557   0.000625   0.435312  -0.007667   0.015242
     7  C   -0.000054   0.000001   0.000004  -0.053454  -0.034372  -0.062598
     8  C    0.000004  -0.000002  -0.000002  -0.003863   0.412544   0.424283
     9  C   -0.000006   0.000003   0.000003   0.004320  -0.001765  -0.002832
    10  N   -0.000000  -0.000001  -0.000001  -0.001551  -0.000246   0.000203
    11  C    0.000135  -0.000165  -0.000137   0.004764   0.000055   0.000471
    12  C    0.000012  -0.000034  -0.000045  -0.000169  -0.000003  -0.000000
    13  H    0.546048  -0.024037  -0.024008  -0.000468   0.000000  -0.000000
    14  H   -0.024037   0.548918  -0.036863   0.000148   0.000000   0.000000
    15  H   -0.024008  -0.036863   0.549129   0.000168  -0.000000   0.000000
    16  H   -0.000468   0.000148   0.000168   0.486878   0.000061   0.000160
    17  H    0.000000   0.000000  -0.000000   0.000061   0.549449  -0.020358
    18  H   -0.000000   0.000000   0.000000   0.000160  -0.020358   0.538365
    19  H    0.000000  -0.000000   0.000000   0.000078  -0.031783  -0.020298
    20  H   -0.000000   0.000000   0.000000  -0.000125  -0.000081   0.003480
    21  H   -0.000000  -0.000011   0.000037   0.000015   0.000001  -0.000000
    22  H   -0.000000   0.000031  -0.000009   0.000013  -0.000001  -0.000000
    23  H   -0.000000  -0.000000  -0.000000   0.000008   0.000000  -0.000000
              19         20         21         22         23
     1  C   -0.000001   0.000000   0.000024   0.000021  -0.000009
     2  O   -0.000005  -0.000000  -0.000071  -0.000054   0.000040
     3  C   -0.000011   0.000183  -0.006146  -0.006067   0.000202
     4  O   -0.000000  -0.000000  -0.000238  -0.000009   0.002206
     5  C   -0.000081  -0.002610   0.003220   0.003650   0.008356
     6  C   -0.007814   0.009363   0.001351   0.001120  -0.000159
     7  C   -0.033658  -0.092647  -0.000123  -0.000072   0.000574
     8  C    0.411908  -0.004273  -0.000006  -0.000006  -0.000015
     9  C   -0.001897   0.446679  -0.000162  -0.000201   0.001134
    10  N   -0.000243  -0.028015   0.000796   0.000531   0.009816
    11  C    0.000061   0.005477  -0.033333  -0.030821  -0.071606
    12  C   -0.000003  -0.000247   0.405421   0.402049   0.426296
    13  H    0.000000  -0.000000  -0.000000  -0.000000  -0.000000
    14  H   -0.000000   0.000000  -0.000011   0.000031  -0.000000
    15  H    0.000000   0.000000   0.000037  -0.000009  -0.000000
    16  H    0.000078  -0.000125   0.000015   0.000013   0.000008
    17  H   -0.031783  -0.000081   0.000001  -0.000001   0.000000
    18  H   -0.020298   0.003480  -0.000000  -0.000000  -0.000000
    19  H    0.549506  -0.000080  -0.000001   0.000001   0.000000
    20  H   -0.000080   0.544040   0.000007   0.000007  -0.000313
    21  H   -0.000001   0.000007   0.545415  -0.023851  -0.021173
    22  H    0.000001   0.000007  -0.023851   0.546494  -0.020966
    23  H    0.000000  -0.000313  -0.021173  -0.020966   0.533043
 Mulliken charges:
               1
     1  C   -0.193541
     2  O   -0.281050
     3  C    0.406055
     4  O   -0.374359
     5  C    0.000122
     6  C   -0.225236
     7  C    0.096293
     8  C   -0.364477
     9  C   -0.038512
    10  N   -0.277976
    11  C    0.119187
    12  C   -0.318200
    13  H    0.130743
    14  H    0.132698
    15  H    0.132592
    16  H    0.153699
    17  H    0.134188
    18  H    0.124761
    19  H    0.134321
    20  H    0.119156
    21  H    0.128830
    22  H    0.128143
    23  H    0.132564
 Sum of Mulliken charges =  -0.00000
 Mulliken charges with hydrogens summed into heavy atoms:
               1
     1  C    0.202492
     2  O   -0.281050
     3  C    0.406055
     4  O   -0.374359
     5  C    0.000122
     6  C   -0.071538
     7  C    0.096293
     8  C    0.028793
     9  C    0.080645
    10  N   -0.277976
    11  C    0.119187
    12  C    0.071336
 Electronic spatial extent (au):  <R**2>=           2319.5433
 Charge=             -0.0000 electrons
 Dipole moment (field-independent basis, Debye):
    X=             -0.1051    Y=             -3.5110    Z=             -0.0104  Tot=              3.5125
 Quadrupole moment (field-independent basis, Debye-Ang):
   XX=            -65.0147   YY=            -69.7994   ZZ=            -70.8613
   XY=             -0.7627   XZ=             -0.0766   YZ=             -0.0331
 Traceless Quadrupole moment (field-independent basis, Debye-Ang):
   XX=              3.5438   YY=             -1.2409   ZZ=             -2.3029
   XY=             -0.7627   XZ=             -0.0766   YZ=             -0.0331
 Octapole moment (field-independent basis, Debye-Ang**2):
  XXX=             15.5730  YYY=            -15.0738  ZZZ=              0.0680  XYY=             14.3025
  XXY=            -38.0669  XXZ=             -0.2237  XZZ=             11.3297  YZZ=             -0.7511
  YYZ=              0.0120  XYZ=             -0.0942
 Hexadecapole moment (field-independent basis, Debye-Ang**3):
 XXXX=          -1776.9568 YYYY=          -1023.8496 ZZZZ=            -92.5991 XXXY=            -64.9873
 XXXZ=             -0.7608 YYYX=              2.7401 YYYZ=              0.1633 ZZZX=              0.1433
 ZZZY=              0.2099 XXYY=           -499.0217 XXZZ=           -338.1224 YYZZ=           -188.3638
 XXYZ=             -0.1689 YYXZ=             -0.0772 ZZXY=              3.0756
 N-N= 6.854446877677D+02 E-N=-2.664891381466D+03  KE= 5.520071286071D+02
 Breneman (CHELPG) radii used.
 Read replacement radii for each type of atom:
 Atom Element Radius
    1     6    1.50
    2     8    1.70
    3     6    1.50
    4     8    1.70
    5     6    1.50
    6     6    1.50
    7     6    1.50
    8     6    1.50
    9     6    1.50
   10     7    1.70
   11     6    1.50
   12     6    1.50
   13     1    1.45
   14     1    1.45
   15     1    1.45
   16     1    1.45
   17     1    1.45
   18     1    1.45
   19     1    1.45
   20     1    1.45
   21     1    1.45
   22     1    1.45
   23     1    1.45
 Generate Potential Derived Charges using the Breneman model, NDens= 1.
 Grid spacing= 0.300 Box extension= 2.800
 NStep X,Y,Z=   46     41     26   Total possible points=       49036
 Number of Points to Fit=   14961

 **********************************************************************

            Electrostatic Properties Using The SCF Density.

 **********************************************************************

       Atomic Center    1 is at   3.384360 -1.490659 -0.005659
       Atomic Center    2 is at   1.986580 -1.258939 -0.007939
       Atomic Center    3 is at   1.599080  0.024491  0.003881
       Atomic Center    4 is at   2.389309  0.934441  0.015221
       Atomic Center    5 is at   0.112530  0.161270  0.001261
       Atomic Center    6 is at  -0.690140 -0.982220  0.002601
       Atomic Center    7 is at  -2.079170 -0.875420  0.001481
       Atomic Center    8 is at  -2.971350 -2.086040  0.002841
       Atomic Center    9 is at  -2.589951  0.424460 -0.001609
       Atomic Center   10 is at  -1.845871  1.524380 -0.003969
       Atomic Center   11 is at  -0.514421  1.429900 -0.002459
       Atomic Center   12 is at   0.234159  2.732971 -0.004719
       Atomic Center   13 is at   3.514630 -2.578459 -0.015009
       Atomic Center   14 is at   3.851600 -1.059399  0.891401
       Atomic Center   15 is at   3.856990 -1.043619 -0.892119
       Atomic Center   16 is at  -0.210860 -1.962840  0.004811
       Atomic Center   17 is at  -2.787300 -2.714310  0.887741
       Atomic Center   18 is at  -4.032290 -1.799450  0.007791
       Atomic Center   19 is at  -2.794810 -2.710580 -0.886279
       Atomic Center   20 is at  -3.676411  0.579060 -0.002419
       Atomic Center   21 is at   0.906169  2.807621 -0.870729
       Atomic Center   22 is at   0.874399  2.826571  0.883581
       Atomic Center   23 is at  -0.498711  3.548210 -0.024959
   14961 points will be used for fitting atomic charges
 Fitting point charges to electrostatic potential
 Charges from ESP fit, RMS=   0.00284 RRMS=   0.21922:
 ESP charges:
               1
     1  C   -0.039749
     2  O   -0.313532
     3  C    0.740481
     4  O   -0.516221
     5  C   -0.431269
     6  C    0.046097
     7  C   -0.018020
     8  C   -0.296288
     9  C    0.259675
    10  N   -0.621166
    11  C    0.595601
    12  C   -0.283621
    13  H    0.087466
    14  H    0.070174
    15  H    0.069885
    16  H    0.079096
    17  H    0.098215
    18  H    0.084958
    19  H    0.098106
    20  H    0.058431
    21  H    0.081826
    22  H    0.081930
    23  H    0.067924
 Sum of ESP charges =   0.00000
 ESP charges with hydrogens summed into heavy atoms:
               1
     1  C    0.187777
     2  O   -0.313532
     3  C    0.740481
     4  O   -0.516221
     5  C   -0.431269
     6  C    0.125193
     7  C   -0.018020
     8  C   -0.015009
     9  C    0.318106
    10  N   -0.621166
    11  C    0.595601
    12  C   -0.051941
 Charge=   0.00000 Dipole=    -0.1480    -3.5001    -0.0104 Tot=     3.5032
 -----------------------------------------------------------------

              Electrostatic Properties (Atomic Units)

 -----------------------------------------------------------------
    Center     Electric         -------- Electric Field --------
               Potential          X             Y             Z
 -----------------------------------------------------------------
    1 Atom    -14.709507
    2 Atom    -22.307675
    3 Atom    -14.637495
    4 Atom    -22.378494
    5 Atom    -14.745043
    6 Atom    -14.747875
    7 Atom    -14.748912
    8 Atom    -14.757757
    9 Atom    -14.732860
   10 Atom    -18.401686
   11 Atom    -14.718707
   12 Atom    -14.784378
   13 Atom     -1.097851
   14 Atom     -1.102196
   15 Atom     -1.102205
   16 Atom     -1.089485
   17 Atom     -1.103157
   18 Atom     -1.104384
   19 Atom     -1.103151
   20 Atom     -1.102181
   21 Atom     -1.123250
   22 Atom     -1.122898
   23 Atom     -1.130993
 -----------------------------------------------------------------
 Unable to Open any file for archive entry.
 1\1\GINC-NOTCH340\SP\RwB97XD\def2TZVP\C9H11N1O2\U6053008\12-Jul-2024\0
 \\#N Guess=Read Geom=Check Integral(Ultrafine) Density Pop=(ChelpG,Rea
 dRadii) NMR wB97XD def2TZVP\\12356205_1\\0,1\C,0,3.38436,-1.49066,-0.0
 0566\O,0,1.98658,-1.25894,-0.00794\C,0,1.59908,0.02449,0.00388\O,0,2.3
 8931,0.93444,0.01522\C,0,0.11253,0.16127,0.00126\C,0,-0.69014,-0.98222
 ,0.0026\C,0,-2.07917,-0.87542,0.00148\C,0,-2.97135,-2.08604,0.00284\C,
 0,-2.58995,0.42446,-0.00161\N,0,-1.84587,1.52438,-0.00397\C,0,-0.51442
 ,1.4299,-0.00246\C,0,0.23416,2.73297,-0.00472\H,0,3.51463,-2.57846,-0.
 01501\H,0,3.8516,-1.0594,0.8914\H,0,3.85699,-1.04362,-0.89212\H,0,-0.2
 1086,-1.96284,0.00481\H,0,-2.7873,-2.71431,0.88774\H,0,-4.03229,-1.799
 45,0.00779\H,0,-2.79481,-2.71058,-0.88628\H,0,-3.67641,0.57906,-0.0024
 2\H,0,0.90617,2.80762,-0.87073\H,0,0.8744,2.82657,0.88358\H,0,-0.49871
 ,3.54821,-0.02496\\Version=ES64L-G16RevC.01\State=1-A\HF=-554.8217432\
 RMSD=1.506e-09\Dipole=-0.0413619,-1.3813183,-0.0040826\Quadrupole=2.63
 472,-0.9226049,-1.7121151,-0.5670358,-0.0569818,-0.0246061\PG=C01 [X(C
 9H11N1O2)]\\@
 The archive entry for this job was punched.


 "A LITTLE BIT GOES A LONG WAY"
 R.S. MULLIKEN AS QUOTED BY K. RUEDENBERG
 Job cpu time:       0 days  0 hours 38 minutes 57.1 seconds.
 Elapsed time:       0 days  0 hours  2 minutes 34.9 seconds.
 File lengths (MBytes):  RWF=    125 Int=      0 D2E=      0 Chk=     18 Scr=      2
 Normal termination of Gaussian 16 at Fri Jul 12 13:20:47 2024.
