 Entering Gaussian System, Link 0=g16
 Input=12356206_4.com
 Output=12356206_4.log
 Initial command:
 /uufs/chpc.utah.edu/sys/installdir/gaussian16/C01/AVX/g16/l1.exe "/scratch/general/vast/u6053008/1287157-notchpeak.peaks/Gau-848967.inp" -scrdir="/scratch/general/vast/u6053008/1287157-notchpeak.peaks/"
 Entering Link 1 = /uufs/chpc.utah.edu/sys/installdir/gaussian16/C01/AVX/g16/l1.exe PID=    848968.
  
 Copyright (c) 1988-2019, Gaussian, Inc.  All Rights Reserved.
  
 This is part of the Gaussian(R) 16 program.  It is based on
 the Gaussian(R) 09 system (copyright 2009, Gaussian, Inc.),
 the Gaussian(R) 03 system (copyright 2003, Gaussian, Inc.),
 the Gaussian(R) 98 system (copyright 1998, Gaussian, Inc.),
 the Gaussian(R) 94 system (copyright 1995, Gaussian, Inc.),
 the Gaussian 92(TM) system (copyright 1992, Gaussian, Inc.),
 the Gaussian 90(TM) system (copyright 1990, Gaussian, Inc.),
 the Gaussian 88(TM) system (copyright 1988, Gaussian, Inc.),
 the Gaussian 86(TM) system (copyright 1986, Carnegie Mellon
 University), and the Gaussian 82(TM) system (copyright 1983,
 Carnegie Mellon University). Gaussian is a federally registered
 trademark of Gaussian, Inc.
  
 This software contains proprietary and confidential information,
 including trade secrets, belonging to Gaussian, Inc.
  
 This software is provided under written license and may be
 used, copied, transmitted, or stored only in accord with that
 written license.
  
 The following legend is applicable only to US Government
 contracts under FAR:
  
                    RESTRICTED RIGHTS LEGEND
  
 Use, reproduction and disclosure by the US Government is
 subject to restrictions as set forth in subparagraphs (a)
 and (c) of the Commercial Computer Software - Restricted
 Rights clause in FAR 52.227-19.
  
 Gaussian, Inc.
 340 Quinnipiac St., Bldg. 40, Wallingford CT 06492
  
  
 ---------------------------------------------------------------
 Warning -- This program may not be used in any manner that
 competes with the business of Gaussian, Inc. or will provide
 assistance to any competitor of Gaussian, Inc.  The licensee
 of this program is prohibited from giving any competitor of
 Gaussian, Inc. access to this program.  By using this program,
 the user acknowledges that Gaussian, Inc. is engaged in the
 business of creating and licensing software in the field of
 computational chemistry and represents and warrants to the
 licensee that it is not a competitor of Gaussian, Inc. and that
 it will not use this program in any manner prohibited above.
 ---------------------------------------------------------------
  

 Cite this work as:
 Gaussian 16, Revision C.01,
 M. J. Frisch, G. W. Trucks, H. B. Schlegel, G. E. Scuseria, 
 M. A. Robb, J. R. Cheeseman, G. Scalmani, V. Barone, 
 G. A. Petersson, H. Nakatsuji, X. Li, M. Caricato, A. V. Marenich, 
 J. Bloino, B. G. Janesko, R. Gomperts, B. Mennucci, H. P. Hratchian, 
 J. V. Ortiz, A. F. Izmaylov, J. L. Sonnenberg, D. Williams-Young, 
 F. Ding, F. Lipparini, F. Egidi, J. Goings, B. Peng, A. Petrone, 
 T. Henderson, D. Ranasinghe, V. G. Zakrzewski, J. Gao, N. Rega, 
 G. Zheng, W. Liang, M. Hada, M. Ehara, K. Toyota, R. Fukuda, 
 J. Hasegawa, M. Ishida, T. Nakajima, Y. Honda, O. Kitao, H. Nakai, 
 T. Vreven, K. Throssell, J. A. Montgomery, Jr., J. E. Peralta, 
 F. Ogliaro, M. J. Bearpark, J. J. Heyd, E. N. Brothers, K. N. Kudin, 
 V. N. Staroverov, T. A. Keith, R. Kobayashi, J. Normand, 
 K. Raghavachari, A. P. Rendell, J. C. Burant, S. S. Iyengar, 
 J. Tomasi, M. Cossi, J. M. Millam, M. Klene, C. Adamo, R. Cammi, 
 J. W. Ochterski, R. L. Martin, K. Morokuma, O. Farkas, 
 J. B. Foresman, and D. J. Fox, Gaussian, Inc., Wallingford CT, 2019.
 
 ******************************************
 Gaussian 16:  ES64L-G16RevC.01  3-Jul-2019
                12-Jul-2024 
 ******************************************
 %NProcShared=16
 Will use up to   16 processors via shared memory.
 %Mem=32GB
 %chk=12356206_4.chk
 ------------------------------------------------------
 #N OPT FREQ=NORAMAN Integral(Ultrafine) wB97XD def2SVP
 ------------------------------------------------------
 1/18=20,19=15,26=4,38=1/1,3;
 2/9=110,12=2,17=6,18=5,40=1/2;
 3/5=43,7=101,11=2,25=1,30=1,71=1,74=-58,75=-5/1,2,3;
 4//1;
 5/5=2,38=5/2;
 6/7=2,8=2,9=2,10=2,28=1/1;
 7//1,2,3,16;
 1/18=20,19=15,26=4/3(2);
 2/9=110/2;
 99//99;
 2/9=110/2;
 3/5=43,7=101,11=2,25=1,30=1,71=1,74=-58,75=-5/1,2,3;
 4/5=5,16=3,69=1/1;
 5/5=2,38=5/2;
 7//1,2,3,16;
 1/18=20,19=15,26=4/3(-5);
 2/9=110/2;
 6/7=2,8=2,9=2,10=2,19=2,28=1/1;
 99/9=1/99;
 ----------
 12356206_4
 ----------
 Symbolic Z-matrix:
 Charge =  0 Multiplicity = 1
 C                    -4.07503  -0.6397    0.00069 
 O                    -2.81071   0.00291   0.00093 
 C                    -1.74196  -0.79588  -0.00008 
 O                    -1.82999  -1.99797  -0.00139 
 C                    -0.43395  -0.06368  -0.00008 
 C                     0.69163  -0.88262   0.00002 
 C                     1.96673  -0.3198    0.00011 
 O                     3.01788  -1.16095   0.00025 
 C                     4.31356  -0.6224    0.00028 
 C                     2.04581   1.07601   0.00002 
 N                     0.97028   1.85855  -0.00016 
 C                    -0.25795   1.34309  -0.00022 
 C                    -1.37811   2.34955  -0.00048 
 H                    -4.82333   0.16042   0.00165 
 H                    -4.19184  -1.27068  -0.89186 
 H                    -4.19133  -1.27234   0.89212 
 H                     0.57088  -1.96699   0.00004 
 H                     4.5016   -0.00849  -0.89778 
 H                     5.00655  -1.47212   0.00036 
 H                     4.50152  -0.00838   0.89827 
 H                     3.01172   1.59005   0.00009 
 H                    -2.02374   2.2347    0.88105 
 H                    -0.93156   3.35087  -0.00112 
 H                    -2.02424   2.23378  -0.88152 
 

 GradGradGradGradGradGradGradGradGradGradGradGradGradGradGradGradGradGrad
 Berny optimization.
 Initialization pass.
                           ----------------------------
                           !    Initial Parameters    !
                           ! (Angstroms and Degrees)  !
 --------------------------                            --------------------------
 ! Name  Definition              Value          Derivative Info.                !
 --------------------------------------------------------------------------------
 ! R1    R(1,2)                  1.4183         estimate D2E/DX2                !
 ! R2    R(1,14)                 1.0955         estimate D2E/DX2                !
 ! R3    R(1,15)                 1.0993         estimate D2E/DX2                !
 ! R4    R(1,16)                 1.0993         estimate D2E/DX2                !
 ! R5    R(2,3)                  1.3343         estimate D2E/DX2                !
 ! R6    R(3,4)                  1.2053         estimate D2E/DX2                !
 ! R7    R(3,5)                  1.499          estimate D2E/DX2                !
 ! R8    R(5,6)                  1.392          estimate D2E/DX2                !
 ! R9    R(5,12)                 1.4177         estimate D2E/DX2                !
 ! R10   R(6,7)                  1.3938         estimate D2E/DX2                !
 ! R11   R(6,17)                 1.0911         estimate D2E/DX2                !
 ! R12   R(7,8)                  1.3463         estimate D2E/DX2                !
 ! R13   R(7,10)                 1.398          estimate D2E/DX2                !
 ! R14   R(8,9)                  1.4031         estimate D2E/DX2                !
 ! R15   R(9,18)                 1.104          estimate D2E/DX2                !
 ! R16   R(9,19)                 1.0965         estimate D2E/DX2                !
 ! R17   R(9,20)                 1.104          estimate D2E/DX2                !
 ! R18   R(10,11)                1.3301         estimate D2E/DX2                !
 ! R19   R(10,21)                1.0942         estimate D2E/DX2                !
 ! R20   R(11,12)                1.332          estimate D2E/DX2                !
 ! R21   R(12,13)                1.5059         estimate D2E/DX2                !
 ! R22   R(13,22)                1.0987         estimate D2E/DX2                !
 ! R23   R(13,23)                1.0964         estimate D2E/DX2                !
 ! R24   R(13,24)                1.0987         estimate D2E/DX2                !
 ! A1    A(2,1,14)             106.1406         estimate D2E/DX2                !
 ! A2    A(2,1,15)             110.7897         estimate D2E/DX2                !
 ! A3    A(2,1,16)             110.7896         estimate D2E/DX2                !
 ! A4    A(14,1,15)            110.3254         estimate D2E/DX2                !
 ! A5    A(14,1,16)            110.3254         estimate D2E/DX2                !
 ! A6    A(15,1,16)            108.4721         estimate D2E/DX2                !
 ! A7    A(1,2,3)              116.2827         estimate D2E/DX2                !
 ! A8    A(2,3,4)              122.5863         estimate D2E/DX2                !
 ! A9    A(2,3,5)              113.986          estimate D2E/DX2                !
 ! A10   A(4,3,5)              123.4276         estimate D2E/DX2                !
 ! A11   A(3,5,6)              114.7221         estimate D2E/DX2                !
 ! A12   A(3,5,12)             126.3705         estimate D2E/DX2                !
 ! A13   A(6,5,12)             118.9074         estimate D2E/DX2                !
 ! A14   A(5,6,7)              120.1451         estimate D2E/DX2                !
 ! A15   A(5,6,17)             119.6846         estimate D2E/DX2                !
 ! A16   A(7,6,17)             120.1703         estimate D2E/DX2                !
 ! A17   A(6,7,8)              117.5162         estimate D2E/DX2                !
 ! A18   A(6,7,10)             117.059          estimate D2E/DX2                !
 ! A19   A(8,7,10)             125.4248         estimate D2E/DX2                !
 ! A20   A(7,8,9)              118.7623         estimate D2E/DX2                !
 ! A21   A(8,9,18)             111.759          estimate D2E/DX2                !
 ! A22   A(8,9,19)             106.6288         estimate D2E/DX2                !
 ! A23   A(8,9,20)             111.7596         estimate D2E/DX2                !
 ! A24   A(18,9,19)            108.8659         estimate D2E/DX2                !
 ! A25   A(18,9,20)            108.8691         estimate D2E/DX2                !
 ! A26   A(19,9,20)            108.8663         estimate D2E/DX2                !
 ! A27   A(7,10,11)            122.7964         estimate D2E/DX2                !
 ! A28   A(7,10,21)            121.2637         estimate D2E/DX2                !
 ! A29   A(11,10,21)           115.9398         estimate D2E/DX2                !
 ! A30   A(10,11,12)           121.1942         estimate D2E/DX2                !
 ! A31   A(5,12,11)            119.8979         estimate D2E/DX2                !
 ! A32   A(5,12,13)            124.8084         estimate D2E/DX2                !
 ! A33   A(11,12,13)           115.2937         estimate D2E/DX2                !
 ! A34   A(12,13,22)           111.5375         estimate D2E/DX2                !
 ! A35   A(12,13,23)           107.9046         estimate D2E/DX2                !
 ! A36   A(12,13,24)           111.5409         estimate D2E/DX2                !
 ! A37   A(22,13,23)           109.5895         estimate D2E/DX2                !
 ! A38   A(22,13,24)           106.6667         estimate D2E/DX2                !
 ! A39   A(23,13,24)           109.5904         estimate D2E/DX2                !
 ! D1    D(14,1,2,3)           179.9981         estimate D2E/DX2                !
 ! D2    D(15,1,2,3)           -60.2225         estimate D2E/DX2                !
 ! D3    D(16,1,2,3)            60.2186         estimate D2E/DX2                !
 ! D4    D(1,2,3,4)              0.014          estimate D2E/DX2                !
 ! D5    D(1,2,3,5)            179.9871         estimate D2E/DX2                !
 ! D6    D(2,3,5,6)            179.948          estimate D2E/DX2                !
 ! D7    D(2,3,5,12)            -0.0545         estimate D2E/DX2                !
 ! D8    D(4,3,5,6)             -0.0791         estimate D2E/DX2                !
 ! D9    D(4,3,5,12)           179.9184         estimate D2E/DX2                !
 ! D10   D(3,5,6,7)           -179.9962         estimate D2E/DX2                !
 ! D11   D(3,5,6,17)             0.003          estimate D2E/DX2                !
 ! D12   D(12,5,6,7)             0.0061         estimate D2E/DX2                !
 ! D13   D(12,5,6,17)         -179.9947         estimate D2E/DX2                !
 ! D14   D(3,5,12,11)          179.9979         estimate D2E/DX2                !
 ! D15   D(3,5,12,13)           -0.0039         estimate D2E/DX2                !
 ! D16   D(6,5,12,11)           -0.0047         estimate D2E/DX2                !
 ! D17   D(6,5,12,13)          179.9935         estimate D2E/DX2                !
 ! D18   D(5,6,7,8)            179.9978         estimate D2E/DX2                !
 ! D19   D(5,6,7,10)            -0.0034         estimate D2E/DX2                !
 ! D20   D(17,6,7,8)            -0.0014         estimate D2E/DX2                !
 ! D21   D(17,6,7,10)          179.9973         estimate D2E/DX2                !
 ! D22   D(6,7,8,9)            179.9971         estimate D2E/DX2                !
 ! D23   D(10,7,8,9)            -0.0016         estimate D2E/DX2                !
 ! D24   D(6,7,10,11)           -0.0008         estimate D2E/DX2                !
 ! D25   D(6,7,10,21)          179.9995         estimate D2E/DX2                !
 ! D26   D(8,7,10,11)          179.9978         estimate D2E/DX2                !
 ! D27   D(8,7,10,21)           -0.0018         estimate D2E/DX2                !
 ! D28   D(7,8,9,18)           -61.1449         estimate D2E/DX2                !
 ! D29   D(7,8,9,19)          -179.9979         estimate D2E/DX2                !
 ! D30   D(7,8,9,20)            61.1483         estimate D2E/DX2                !
 ! D31   D(7,10,11,12)           0.0023         estimate D2E/DX2                !
 ! D32   D(21,10,11,12)       -179.998          estimate D2E/DX2                !
 ! D33   D(10,11,12,5)           0.0005         estimate D2E/DX2                !
 ! D34   D(10,11,12,13)       -179.9978         estimate D2E/DX2                !
 ! D35   D(5,12,13,22)          59.6143         estimate D2E/DX2                !
 ! D36   D(5,12,13,23)        -179.9681         estimate D2E/DX2                !
 ! D37   D(5,12,13,24)         -59.5472         estimate D2E/DX2                !
 ! D38   D(11,12,13,22)       -120.3875         estimate D2E/DX2                !
 ! D39   D(11,12,13,23)          0.0301         estimate D2E/DX2                !
 ! D40   D(11,12,13,24)        120.451          estimate D2E/DX2                !
 --------------------------------------------------------------------------------
 Trust Radius=3.00D-01 FncErr=1.00D-07 GrdErr=1.00D-06 EigMax=2.50D+02 EigMin=1.00D-04
 Number of steps in this run=    113 maximum allowed number of steps=    144.
 GradGradGradGradGradGradGradGradGradGradGradGradGradGradGradGradGradGrad

                          Input orientation:                          
 ---------------------------------------------------------------------
 Center     Atomic      Atomic             Coordinates (Angstroms)
 Number     Number       Type             X           Y           Z
 ---------------------------------------------------------------------
      1          6           0       -4.075030   -0.639700    0.000690
      2          8           0       -2.810710    0.002910    0.000930
      3          6           0       -1.741960   -0.795880   -0.000080
      4          8           0       -1.829990   -1.997970   -0.001390
      5          6           0       -0.433950   -0.063680   -0.000080
      6          6           0        0.691630   -0.882620    0.000020
      7          6           0        1.966730   -0.319800    0.000110
      8          8           0        3.017880   -1.160950    0.000250
      9          6           0        4.313560   -0.622400    0.000280
     10          6           0        2.045810    1.076010    0.000020
     11          7           0        0.970280    1.858550   -0.000160
     12          6           0       -0.257950    1.343090   -0.000220
     13          6           0       -1.378110    2.349550   -0.000480
     14          1           0       -4.823330    0.160420    0.001650
     15          1           0       -4.191840   -1.270680   -0.891860
     16          1           0       -4.191330   -1.272340    0.892120
     17          1           0        0.570880   -1.966990    0.000040
     18          1           0        4.501600   -0.008490   -0.897780
     19          1           0        5.006550   -1.472120    0.000360
     20          1           0        4.501520   -0.008380    0.898270
     21          1           0        3.011720    1.590050    0.000090
     22          1           0       -2.023740    2.234700    0.881050
     23          1           0       -0.931560    3.350870   -0.001120
     24          1           0       -2.024240    2.233780   -0.881520
 ---------------------------------------------------------------------
                    Distance matrix (angstroms):
                    1          2          3          4          5
     1  C    0.000000
     2  O    1.418257   0.000000
     3  C    2.338292   1.334276   0.000000
     4  O    2.623949   2.228304   1.205310   0.000000
     5  C    3.686362   2.377693   1.499002   2.385457   0.000000
     6  C    4.772846   3.612554   2.435135   2.757277   1.391975
     7  C    6.050223   4.788327   3.739122   4.151065   2.414304
     8  O    7.112037   5.943655   4.773820   4.919598   3.622034
     9  C    8.388608   7.151660   6.058004   6.295665   4.780274
    10  C    6.356756   4.973664   4.225065   4.946835   2.729121
    11  N    5.629956   4.211803   3.795029   4.765948   2.380510
    12  C    4.301344   2.883170   2.603359   3.692424   1.417737
    13  C    4.026040   2.749375   3.166404   4.370941   2.591354
    14  H    1.095512   2.018774   3.226353   3.690358   4.395097
    15  H    1.099284   2.080054   2.650022   2.626828   4.046462
    16  H    1.099275   2.080047   2.649990   2.626942   4.046577
    17  H    4.831788   3.913522   2.592437   2.401070   2.152271
    18  H    8.646633   7.367339   6.356720   6.697057   5.016828
    19  H    9.119650   7.955204   6.782307   6.856734   5.619853
    20  H    8.646469   7.367093   6.356747   6.697453   5.016867
    21  H    7.429254   6.034874   5.318847   6.026280   3.821971
    22  H    3.639368   2.524841   3.168628   4.328017   2.930251
    23  H    5.079966   3.839277   4.225196   5.423769   3.450619
    24  H    3.638808   2.524685   3.167879   4.326670   2.929894
                    6          7          8          9         10
     6  C    0.000000
     7  C    1.393788   0.000000
     8  O    2.342842   1.346273   0.000000
     9  C    3.631266   2.366258   1.403147   0.000000
    10  C    2.381184   1.398048   2.439039   2.833247   0.000000
    11  N    2.755297   2.395438   3.648294   4.163248   1.330088
    12  C    2.419811   2.777482   4.123261   4.976129   2.319190
    13  C    3.838066   4.279414   5.625686   6.420872   3.653099
    14  H    5.612728   6.807021   7.951767   9.170364   6.929891
    15  H    4.979389   6.295059   7.265533   8.576597   6.723889
    16  H    4.979058   6.294817   7.265022   8.576185   6.724025
    17  H    1.091072   2.159081   2.576336   3.976880   3.381607
    18  H    4.010738   2.707155   2.082318   1.103973   2.830740
    19  H    4.355002   3.250899   2.012867   1.096476   3.906270
    20  H    4.010787   2.707182   2.082317   1.103964   2.830771
    21  H    3.390710   2.177046   2.751007   2.567045   1.094175
    22  H    4.226953   4.819271   6.142001   7.007150   4.322038
    23  H    4.534003   4.676955   5.996215   6.580134   3.746962
    24  H    4.226702   4.819324   6.142042   7.007356   4.322366
                   11         12         13         14         15
    11  N    0.000000
    12  C    1.332009   0.000000
    13  C    2.399170   1.505895   0.000000
    14  H    6.037348   4.716080   4.081891   0.000000
    15  H    6.102024   4.806486   4.670942   1.801440   0.000000
    16  H    6.102528   4.807101   4.672155   1.801433   1.783981
    17  H    3.846333   3.412270   4.736146   5.798567   4.895287
    18  H    4.094115   5.028489   6.398163   9.369729   8.784592
    19  H    5.233052   5.969955   7.441038   9.964524   9.243755
    20  H    4.094174   5.028550   6.398252   9.369378   8.965070
    21  H    2.059022   3.278983   4.455047   7.964412   7.801963
    22  H    3.143593   2.165553   1.098692   3.593562   4.486820
    23  H    2.417440   2.117766   1.096380   5.032380   5.725519
    24  H    3.144001   2.165594   1.098689   3.593566   4.120660
                   16         17         18         19         20
    16  H    0.000000
    17  H    4.894588   0.000000
    18  H    8.964825   4.482451   0.000000
    19  H    9.243167   4.463190   1.789928   0.000000
    20  H    8.784263   4.482511   1.796050   1.789925   0.000000
    21  H    7.802110   4.313958   2.362465   3.654618   2.362458
    22  H    4.122851   5.016217   7.125742   7.996318   6.900052
    23  H    5.726958   5.526026   6.450467   7.649992   6.450723
    24  H    4.487199   5.015801   6.900335   7.996463   7.126042
                   21         22         23         24
    21  H    0.000000
    22  H    5.152429   0.000000
    23  H    4.318558   1.793576   0.000000
    24  H    5.152914   1.762570   1.793584   0.000000
 Stoichiometry    C9H11NO3
 Framework group  C1[X(C9H11NO3)]
 Deg. of freedom    66
 Full point group                 C1      NOp   1
 Largest Abelian subgroup         C1      NOp   1
 Largest concise Abelian subgroup C1      NOp   1
                         Standard orientation:                         
 ---------------------------------------------------------------------
 Center     Atomic      Atomic             Coordinates (Angstroms)
 Number     Number       Type             X           Y           Z
 ---------------------------------------------------------------------
      1          6           0       -4.075030   -0.639700    0.000689
      2          8           0       -2.810710    0.002910    0.000929
      3          6           0       -1.741960   -0.795880   -0.000081
      4          8           0       -1.829990   -1.997970   -0.001391
      5          6           0       -0.433950   -0.063680   -0.000081
      6          6           0        0.691630   -0.882620    0.000019
      7          6           0        1.966730   -0.319800    0.000109
      8          8           0        3.017880   -1.160950    0.000249
      9          6           0        4.313560   -0.622400    0.000279
     10          6           0        2.045810    1.076010    0.000019
     11          7           0        0.970280    1.858550   -0.000161
     12          6           0       -0.257950    1.343090   -0.000221
     13          6           0       -1.378110    2.349550   -0.000481
     14          1           0       -4.823330    0.160420    0.001649
     15          1           0       -4.191840   -1.270680   -0.891861
     16          1           0       -4.191330   -1.272340    0.892119
     17          1           0        0.570880   -1.966990    0.000039
     18          1           0        4.501600   -0.008490   -0.897781
     19          1           0        5.006550   -1.472120    0.000359
     20          1           0        4.501520   -0.008380    0.898269
     21          1           0        3.011720    1.590050    0.000089
     22          1           0       -2.023740    2.234700    0.881049
     23          1           0       -0.931560    3.350870   -0.001121
     24          1           0       -2.024240    2.233780   -0.881521
 ---------------------------------------------------------------------
 Rotational constants (GHZ):           1.6772145           0.4703881           0.3699380
 Standard basis: def2SVP (5D, 7F)
 There are   250 symmetry adapted cartesian basis functions of A   symmetry.
 There are   237 symmetry adapted basis functions of A   symmetry.
   237 basis functions,   402 primitive gaussians,   250 cartesian basis functions
    48 alpha electrons       48 beta electrons
       nuclear repulsion energy       787.2760009564 Hartrees.
 NAtoms=   24 NActive=   24 NUniq=   24 SFac= 1.00D+00 NAtFMM=   60 NAOKFM=F Big=F
 Integral buffers will be    131072 words long.
 Raffenetti 2 integral format.
 Two-electron integral symmetry is turned on.
 Nuclear repulsion after empirical dispersion term =      787.2633264881 Hartrees.
 One-electron integrals computed using PRISM.
   1 Symmetry operations used in ECPInt.
 ECPInt:  NShTT=    6216 NPrTT=   22568 LenC2=    5813 LenP2D=   15610.
 LDataN:  DoStor=T MaxTD1= 4 Len=   56
 NBasis=   237 RedAO= T EigKep=  5.28D-04  NBF=   237
 NBsUse=   237 1.00D-06 EigRej= -1.00D+00 NBFU=   237
 ExpMin= 1.22D-01 ExpMax= 2.27D+03 ExpMxC= 3.41D+02 IAcc=3 IRadAn=         5 AccDes= 0.00D+00
 Harris functional with IExCor= 4639 and IRadAn=       5 diagonalized for initial guess.
 HarFok:  IExCor= 4639 AccDes= 0.00D+00 IRadAn=         5 IDoV= 1 UseB2=F ITyADJ=14
 ICtDFT=  3500011 ScaDFX=  1.000000  1.000000  1.000000  1.000000
 FoFCou: FMM=F IPFlag=           0 FMFlag=      100000 FMFlg1=           0
         NFxFlg=           0 DoJE=T BraDBF=F KetDBF=T FulRan=T
         wScrn=  0.000000 ICntrl=       500 IOpCl=  0 I1Cent=   200000004 NGrid=           0
         NMat0=    1 NMatS0=      1 NMatT0=    0 NMatD0=    1 NMtDS0=    0 NMtDT0=    0
 Petite list used in FoFCou.
 Requested convergence on RMS density matrix=1.00D-08 within 128 cycles.
 Requested convergence on MAX density matrix=1.00D-06.
 Requested convergence on             energy=1.00D-06.
 No special actions if energy rises.
 Integral accuracy reduced to 1.0D-05 until final iterations.
 Initial convergence to 1.0D-05 achieved.  Increase integral accuracy.
 SCF Done:  E(RwB97XD) =  -629.338761421     A.U. after   16 cycles
            NFock= 16  Conv=0.48D-08     -V/T= 2.0096

 **********************************************************************

            Population analysis using the SCF Density.

 **********************************************************************

 Orbital symmetries:
       Occupied  (A) (A) (A) (A) (A) (A) (A) (A) (A) (A) (A) (A)
                 (A) (A) (A) (A) (A) (A) (A) (A) (A) (A) (A) (A)
                 (A) (A) (A) (A) (A) (A) (A) (A) (A) (A) (A) (A)
                 (A) (A) (A) (A) (A) (A) (A) (A) (A) (A) (A) (A)
       Virtual   (A) (A) (A) (A) (A) (A) (A) (A) (A) (A) (A) (A)
                 (A) (A) (A) (A) (A) (A) (A) (A) (A) (A) (A) (A)
                 (A) (A) (A) (A) (A) (A) (A) (A) (A) (A) (A) (A)
                 (A) (A) (A) (A) (A) (A) (A) (A) (A) (A) (A) (A)
                 (A) (A) (A) (A) (A) (A) (A) (A) (A) (A) (A) (A)
                 (A) (A) (A) (A) (A) (A) (A) (A) (A) (A) (A) (A)
                 (A) (A) (A) (A) (A) (A) (A) (A) (A) (A) (A) (A)
                 (A) (A) (A) (A) (A) (A) (A) (A) (A) (A) (A) (A)
                 (A) (A) (A) (A) (A) (A) (A) (A) (A) (A) (A) (A)
                 (A) (A) (A) (A) (A) (A) (A) (A) (A) (A) (A) (A)
                 (A) (A) (A) (A) (A) (A) (A) (A) (A) (A) (A) (A)
                 (A) (A) (A) (A) (A) (A) (A) (A) (A) (A) (A) (A)
                 (A) (A) (A) (A) (A) (A) (A) (A) (A) (A) (A) (A)
                 (A) (A) (A) (A) (A) (A) (A) (A) (A) (A) (A) (A)
                 (A) (A) (A) (A) (A) (A) (A) (A) (A) (A) (A) (A)
                 (A) (A) (A) (A) (A) (A) (A) (A) (A)
 The electronic state is 1-A.
 Alpha  occ. eigenvalues --  -19.31007 -19.29831 -19.24534 -14.44056 -10.43322
 Alpha  occ. eigenvalues --  -10.37057 -10.36289 -10.35950 -10.34628 -10.33871
 Alpha  occ. eigenvalues --  -10.32301 -10.31864 -10.28747  -1.21214  -1.17764
 Alpha  occ. eigenvalues --   -1.11348  -1.04382  -0.91200  -0.88823  -0.83392
 Alpha  occ. eigenvalues --   -0.82090  -0.77767  -0.73628  -0.70176  -0.66601
 Alpha  occ. eigenvalues --   -0.64195  -0.61690  -0.59232  -0.58649  -0.57276
 Alpha  occ. eigenvalues --   -0.57143  -0.55725  -0.52493  -0.52062  -0.51418
 Alpha  occ. eigenvalues --   -0.49440  -0.48884  -0.47368  -0.46903  -0.46311
 Alpha  occ. eigenvalues --   -0.43885  -0.43443  -0.42523  -0.39500  -0.37450
 Alpha  occ. eigenvalues --   -0.36336  -0.33447  -0.30994
 Alpha virt. eigenvalues --    0.01238   0.05381   0.13060   0.14256   0.14778
 Alpha virt. eigenvalues --    0.17668   0.18181   0.19277   0.20410   0.20826
 Alpha virt. eigenvalues --    0.21087   0.21421   0.21600   0.21662   0.21822
 Alpha virt. eigenvalues --    0.23713   0.26765   0.29982   0.30364   0.32350
 Alpha virt. eigenvalues --    0.32524   0.34244   0.37018   0.37847   0.40778
 Alpha virt. eigenvalues --    0.43073   0.44414   0.48233   0.51385   0.51746
 Alpha virt. eigenvalues --    0.51958   0.52357   0.52550   0.54273   0.55578
 Alpha virt. eigenvalues --    0.56114   0.56640   0.58228   0.59209   0.59602
 Alpha virt. eigenvalues --    0.62467   0.64400   0.66184   0.68435   0.68680
 Alpha virt. eigenvalues --    0.69408   0.71144   0.71646   0.72032   0.72300
 Alpha virt. eigenvalues --    0.72837   0.73273   0.74392   0.75042   0.75478
 Alpha virt. eigenvalues --    0.75763   0.75972   0.76938   0.78007   0.79845
 Alpha virt. eigenvalues --    0.80523   0.81160   0.82671   0.83418   0.85430
 Alpha virt. eigenvalues --    0.87999   0.90159   0.90472   0.92221   0.98038
 Alpha virt. eigenvalues --    1.00455   1.01491   1.05209   1.08260   1.08442
 Alpha virt. eigenvalues --    1.09855   1.13300   1.16665   1.17929   1.19589
 Alpha virt. eigenvalues --    1.23344   1.27482   1.28069   1.28571   1.28684
 Alpha virt. eigenvalues --    1.32898   1.35131   1.36211   1.36827   1.39543
 Alpha virt. eigenvalues --    1.41672   1.42006   1.45760   1.50215   1.50779
 Alpha virt. eigenvalues --    1.57513   1.58800   1.59019   1.59666   1.60733
 Alpha virt. eigenvalues --    1.62782   1.64225   1.66325   1.66774   1.67841
 Alpha virt. eigenvalues --    1.71799   1.75675   1.76226   1.79219   1.79289
 Alpha virt. eigenvalues --    1.80233   1.82534   1.84569   1.84818   1.86078
 Alpha virt. eigenvalues --    1.88189   1.88535   1.89506   1.89535   1.90443
 Alpha virt. eigenvalues --    1.91779   1.92820   1.95495   1.96598   1.97950
 Alpha virt. eigenvalues --    1.98455   2.02562   2.04079   2.04193   2.07067
 Alpha virt. eigenvalues --    2.07953   2.11130   2.13353   2.16307   2.18836
 Alpha virt. eigenvalues --    2.22204   2.25577   2.28053   2.29090   2.29561
 Alpha virt. eigenvalues --    2.33872   2.34650   2.38714   2.39215   2.40396
 Alpha virt. eigenvalues --    2.42777   2.43636   2.47152   2.47692   2.48300
 Alpha virt. eigenvalues --    2.49769   2.52782   2.55926   2.58761   2.65845
 Alpha virt. eigenvalues --    2.71434   2.72642   2.72843   2.74017   2.75423
 Alpha virt. eigenvalues --    2.77201   2.80151   2.82548   2.86451   2.88250
 Alpha virt. eigenvalues --    2.88258   2.89549   2.96801   2.97101   2.97908
 Alpha virt. eigenvalues --    2.98265   3.02639   3.03701   3.04995   3.06689
 Alpha virt. eigenvalues --    3.06971   3.14821   3.16463   3.17169   3.19219
 Alpha virt. eigenvalues --    3.27284   3.30625   3.38712   3.48522   3.54554
 Alpha virt. eigenvalues --    3.59816   3.71065   3.76975   3.82046
          Condensed to atoms (all electrons):
               1          2          3          4          5          6
     1  C    4.407009   0.263286  -0.031698   0.002578   0.012025  -0.000254
     2  O    0.263286   7.942479   0.407078  -0.084183  -0.128299   0.003824
     3  C   -0.031698   0.407078   4.575004   0.737261   0.163110  -0.071659
     4  O    0.002578  -0.084183   0.737261   7.676633  -0.137113   0.014031
     5  C    0.012025  -0.128299   0.163110  -0.137113   5.629315   0.413501
     6  C   -0.000254   0.003824  -0.071659   0.014031   0.413501   5.056991
     7  C    0.000001   0.000030   0.022991   0.002080   0.032246   0.337105
     8  O   -0.000000   0.000000  -0.000036  -0.000000   0.004261  -0.082475
     9  C    0.000000  -0.000000   0.000010   0.000000  -0.000173   0.006421
    10  C    0.000001  -0.000001  -0.001029  -0.000029  -0.063606  -0.030385
    11  N    0.000003   0.000027   0.005811  -0.000014  -0.055146  -0.050472
    12  C   -0.000300  -0.000657  -0.039844   0.000930   0.356148  -0.031935
    13  C    0.000097  -0.012767  -0.009805  -0.000032  -0.086503   0.000681
    14  H    0.398437  -0.023782   0.004880   0.000788   0.000070   0.000005
    15  H    0.406412  -0.025541  -0.004846   0.006813   0.000581   0.000024
    16  H    0.406413  -0.025527  -0.004848   0.006805   0.000578   0.000025
    17  H   -0.000059   0.000684  -0.017069   0.016950  -0.050590   0.432894
    18  H    0.000000  -0.000000   0.000000  -0.000000   0.000017  -0.000033
    19  H   -0.000000   0.000000  -0.000000   0.000000   0.000009  -0.000121
    20  H    0.000000  -0.000000   0.000000  -0.000000   0.000017  -0.000033
    21  H    0.000000  -0.000000   0.000058  -0.000000   0.001274   0.004589
    22  H   -0.000087   0.006633   0.000711   0.000015  -0.007077   0.000252
    23  H   -0.000017   0.000863   0.000084   0.000005   0.012803  -0.000042
    24  H   -0.000087   0.006632   0.000713   0.000015  -0.007097   0.000255
               7          8          9         10         11         12
     1  C    0.000001  -0.000000   0.000000   0.000001   0.000003  -0.000300
     2  O    0.000030   0.000000  -0.000000  -0.000001   0.000027  -0.000657
     3  C    0.022991  -0.000036   0.000010  -0.001029   0.005811  -0.039844
     4  O    0.002080  -0.000000   0.000000  -0.000029  -0.000014   0.000930
     5  C    0.032246   0.004261  -0.000173  -0.063606  -0.055146   0.356148
     6  C    0.337105  -0.082475   0.006421  -0.030385  -0.050472  -0.031935
     7  C    4.951374   0.387417  -0.060957   0.358553  -0.019085  -0.065157
     8  O    0.387417   7.867347   0.302134  -0.065737   0.002086   0.000441
     9  C   -0.060957   0.302134   4.420700   0.003233   0.000336   0.000008
    10  C    0.358553  -0.065737   0.003233   4.952551   0.511520  -0.069473
    11  N   -0.019085   0.002086   0.000336   0.511520   6.228739   0.592386
    12  C   -0.065157   0.000441   0.000008  -0.069473   0.592386   4.990623
    13  C    0.002166   0.000007  -0.000000   0.005100  -0.077714   0.417845
    14  H   -0.000001   0.000000  -0.000000   0.000000   0.000000   0.000062
    15  H    0.000000   0.000000   0.000000   0.000000   0.000000  -0.000086
    16  H    0.000000   0.000000   0.000000   0.000000   0.000000  -0.000086
    17  H   -0.057834   0.002330  -0.000300   0.012185  -0.000467   0.010087
    18  H   -0.006901  -0.029538   0.399729   0.006408   0.000037  -0.000053
    19  H    0.004038  -0.022427   0.400491   0.000091  -0.000001   0.000003
    20  H   -0.006900  -0.029538   0.399730   0.006407   0.000037  -0.000053
    21  H   -0.076539  -0.004056   0.007961   0.430714  -0.030536   0.004467
    22  H   -0.000048  -0.000000  -0.000000  -0.000159   0.002092  -0.004351
    23  H    0.000077  -0.000001  -0.000000   0.001143   0.011600  -0.013304
    24  H   -0.000048  -0.000000  -0.000000  -0.000159   0.002099  -0.004352
              13         14         15         16         17         18
     1  C    0.000097   0.398437   0.406412   0.406413  -0.000059   0.000000
     2  O   -0.012767  -0.023782  -0.025541  -0.025527   0.000684  -0.000000
     3  C   -0.009805   0.004880  -0.004846  -0.004848  -0.017069   0.000000
     4  O   -0.000032   0.000788   0.006813   0.006805   0.016950  -0.000000
     5  C   -0.086503   0.000070   0.000581   0.000578  -0.050590   0.000017
     6  C    0.000681   0.000005   0.000024   0.000025   0.432894  -0.000033
     7  C    0.002166  -0.000001   0.000000   0.000000  -0.057834  -0.006901
     8  O    0.000007   0.000000   0.000000   0.000000   0.002330  -0.029538
     9  C   -0.000000  -0.000000   0.000000   0.000000  -0.000300   0.399729
    10  C    0.005100   0.000000   0.000000   0.000000   0.012185   0.006408
    11  N   -0.077714   0.000000   0.000000   0.000000  -0.000467   0.000037
    12  C    0.417845   0.000062  -0.000086  -0.000086   0.010087  -0.000053
    13  C    4.563483  -0.000079   0.000044   0.000044  -0.000143   0.000000
    14  H   -0.000079   0.613122  -0.023944  -0.023945  -0.000000   0.000000
    15  H    0.000044  -0.023944   0.614926  -0.029088  -0.000008  -0.000000
    16  H    0.000044  -0.023945  -0.029088   0.614933  -0.000008   0.000000
    17  H   -0.000143  -0.000000  -0.000008  -0.000008   0.601345   0.000069
    18  H    0.000000   0.000000  -0.000000   0.000000   0.000069   0.650484
    19  H   -0.000000  -0.000000   0.000000   0.000000  -0.000103  -0.022461
    20  H    0.000000   0.000000   0.000000  -0.000000   0.000069  -0.043079
    21  H   -0.000231   0.000000  -0.000000  -0.000000  -0.000206   0.000708
    22  H    0.375732   0.000026   0.000108  -0.000184   0.000002  -0.000000
    23  H    0.357655  -0.000023   0.000003   0.000003   0.000006   0.000000
    24  H    0.375740   0.000026  -0.000185   0.000108   0.000002   0.000000
              19         20         21         22         23         24
     1  C   -0.000000   0.000000   0.000000  -0.000087  -0.000017  -0.000087
     2  O    0.000000  -0.000000  -0.000000   0.006633   0.000863   0.006632
     3  C   -0.000000   0.000000   0.000058   0.000711   0.000084   0.000713
     4  O    0.000000  -0.000000  -0.000000   0.000015   0.000005   0.000015
     5  C    0.000009   0.000017   0.001274  -0.007077   0.012803  -0.007097
     6  C   -0.000121  -0.000033   0.004589   0.000252  -0.000042   0.000255
     7  C    0.004038  -0.006900  -0.076539  -0.000048   0.000077  -0.000048
     8  O   -0.022427  -0.029538  -0.004056  -0.000000  -0.000001  -0.000000
     9  C    0.400491   0.399730   0.007961  -0.000000  -0.000000  -0.000000
    10  C    0.000091   0.006407   0.430714  -0.000159   0.001143  -0.000159
    11  N   -0.000001   0.000037  -0.030536   0.002092   0.011600   0.002099
    12  C    0.000003  -0.000053   0.004467  -0.004351  -0.013304  -0.004352
    13  C   -0.000000   0.000000  -0.000231   0.375732   0.357655   0.375740
    14  H   -0.000000   0.000000   0.000000   0.000026  -0.000023   0.000026
    15  H    0.000000   0.000000  -0.000000   0.000108   0.000003  -0.000185
    16  H    0.000000  -0.000000  -0.000000  -0.000184   0.000003   0.000108
    17  H   -0.000103   0.000069  -0.000206   0.000002   0.000006   0.000002
    18  H   -0.022461  -0.043079   0.000708  -0.000000   0.000000   0.000000
    19  H    0.600172  -0.022462  -0.000161   0.000000  -0.000000   0.000000
    20  H   -0.022462   0.650487   0.000708   0.000000   0.000000  -0.000000
    21  H   -0.000161   0.000708   0.634608   0.000009  -0.000203   0.000009
    22  H    0.000000   0.000000   0.000009   0.619284  -0.015244  -0.020754
    23  H   -0.000000   0.000000  -0.000203  -0.015244   0.618988  -0.015256
    24  H    0.000000  -0.000000   0.000009  -0.020754  -0.015256   0.619347
 Mulliken charges:
               1
     1  C    0.136241
     2  O   -0.330781
     3  C    0.263123
     4  O   -0.243532
     5  C   -0.090352
     6  C   -0.003190
     7  C    0.195392
     8  O   -0.332215
     9  C    0.120676
    10  C   -0.057327
    11  N   -0.123338
    12  C   -0.143347
    13  C    0.088681
    14  H    0.054359
    15  H    0.054787
    16  H    0.054779
    17  H    0.050163
    18  H    0.044613
    19  H    0.062934
    20  H    0.044611
    21  H    0.026828
    22  H    0.043039
    23  H    0.040861
    24  H    0.042993
 Sum of Mulliken charges =  -0.00000
 Mulliken charges with hydrogens summed into heavy atoms:
               1
     1  C    0.300166
     2  O   -0.330781
     3  C    0.263123
     4  O   -0.243532
     5  C   -0.090352
     6  C    0.046973
     7  C    0.195392
     8  O   -0.332215
     9  C    0.272834
    10  C   -0.030499
    11  N   -0.123338
    12  C   -0.143347
    13  C    0.215575
 Electronic spatial extent (au):  <R**2>=           2924.7955
 Charge=             -0.0000 electrons
 Dipole moment (field-independent basis, Debye):
    X=              0.3783    Y=              0.5296    Z=              0.0022  Tot=              0.6508
 Quadrupole moment (field-independent basis, Debye-Ang):
   XX=            -50.7648   YY=            -85.2250   ZZ=            -75.6267
   XY=             -2.5843   XZ=             -0.0032   YZ=             -0.0065
 Traceless Quadrupole moment (field-independent basis, Debye-Ang):
   XX=             19.7741   YY=            -14.6862   ZZ=             -5.0879
   XY=             -2.5843   XZ=             -0.0032   YZ=             -0.0065
 Octapole moment (field-independent basis, Debye-Ang**2):
  XXX=              7.9511  YYY=             -8.0669  ZZZ=             -0.0006  XYY=             -1.3725
  XXY=             -6.5522  XXZ=              0.0158  XZZ=             -6.0885  YZZ=             -4.9620
  YYZ=              0.0161  XYZ=              0.0144
 Hexadecapole moment (field-independent basis, Debye-Ang**3):
 XXXX=          -2201.3196 YYYY=           -889.9051 ZZZZ=            -92.6667 XXXY=             12.0503
 XXXZ=             -0.0272 YYYX=            -44.1147 YYYZ=             -0.0240 ZZZX=              0.0068
 ZZZY=              0.0112 XXYY=           -617.8171 XXZZ=           -478.1911 YYZZ=           -155.2218
 XXYZ=             -0.0208 YYXZ=             -0.0328 ZZXY=              3.8052
 N-N= 7.872633264881D+02 E-N=-3.041473342942D+03  KE= 6.233582350167D+02
   1 Symmetry operations used in ECPInt.
 ECPInt:  NShTT=    6216 NPrTT=   22568 LenC2=    5813 LenP2D=   15610.
 LDataN:  DoStor=T MaxTD1= 5 Len=  102
 Calling FoFJK, ICntrl=      2127 FMM=F ISym2X=0 I1Cent= 0 IOpClX= 0 NMat=1 NMatS=1 NMatT=0.
 ***** Axes restored to original set *****
 -------------------------------------------------------------------
 Center     Atomic                   Forces (Hartrees/Bohr)
 Number     Number              X              Y              Z
 -------------------------------------------------------------------
      1        6           0.000001681    0.000008687   -0.000004505
      2        8          -0.000003118    0.000001965    0.000024685
      3        6           0.000004773    0.000001400   -0.000083907
      4        8          -0.000004620   -0.000006326    0.000034462
      5        6          -0.000015710    0.000005713    0.000023146
      6        6           0.000025905   -0.000000689    0.000001999
      7        6          -0.000013304    0.000000902   -0.000004176
      8        8           0.000002202   -0.000003400    0.000000365
      9        6          -0.000022515    0.000012272   -0.000005574
     10        6          -0.000006061    0.000000377    0.000002088
     11        7           0.000010693   -0.000002388   -0.000004508
     12        6          -0.000004765   -0.000006332    0.000005360
     13        6           0.000015710   -0.000018480   -0.000001229
     14        1          -0.000003868    0.000004453    0.000000264
     15        1           0.000001610   -0.000000862   -0.000002274
     16        1          -0.000000048   -0.000003613    0.000006187
     17        1          -0.000003329   -0.000001670    0.000000052
     18        1          -0.000001753    0.000002087   -0.000002766
     19        1          -0.000002624   -0.000007523    0.000000400
     20        1          -0.000001136    0.000004946    0.000007735
     21        1           0.000012091   -0.000002189    0.000000284
     22        1          -0.000002014   -0.000001857    0.000008874
     23        1           0.000009135    0.000012784    0.000001410
     24        1           0.000001065   -0.000000257   -0.000008370
 -------------------------------------------------------------------
 Cartesian Forces:  Max     0.000083907 RMS     0.000013499

 GradGradGradGradGradGradGradGradGradGradGradGradGradGradGradGradGradGrad
 Berny optimization.
 FormGI is forming the generalized inverse of G from B-inverse, IUseBI=4.
 Internal  Forces:  Max     0.000066791 RMS     0.000011657
 Search for a local minimum.
 Step number   1 out of a maximum of  113
 All quantities printed in internal units (Hartrees-Bohrs-Radians)
 Mixed Optimization -- En-DIIS/RFO-DIIS
 Second derivative matrix not updated -- first step.
 ITU=  0
     Eigenvalues ---    0.00688   0.00779   0.01366   0.01442   0.01450
     Eigenvalues ---    0.01631   0.01650   0.02019   0.02155   0.02183
     Eigenvalues ---    0.02205   0.02276   0.02402   0.02495   0.02561
     Eigenvalues ---    0.07180   0.07461   0.10075   0.10228   0.10638
     Eigenvalues ---    0.10640   0.16000   0.16000   0.16000   0.16000
     Eigenvalues ---    0.16000   0.16000   0.16000   0.16000   0.16000
     Eigenvalues ---    0.16000   0.16000   0.23301   0.23485   0.25000
     Eigenvalues ---    0.25000   0.25000   0.25000   0.25000   0.25000
     Eigenvalues ---    0.25000   0.25000   0.31767   0.32482   0.33247
     Eigenvalues ---    0.33248   0.33761   0.33762   0.33827   0.33827
     Eigenvalues ---    0.34075   0.34086   0.34183   0.34335   0.34689
     Eigenvalues ---    0.40826   0.42724   0.44523   0.44813   0.45103
     Eigenvalues ---    0.46620   0.55822   0.56822   0.58450   0.58507
     Eigenvalues ---    1.02200
 RFO step:  Lambda=-2.25020537D-07 EMin= 6.87965896D-03
 Linear search not attempted -- first point.
 Iteration  1 RMS(Cart)=  0.00083987 RMS(Int)=  0.00000038
 Iteration  2 RMS(Cart)=  0.00000074 RMS(Int)=  0.00000023
 Variable       Old X    -DE/DX   Delta X   Delta X   Delta X     New X
                                 (Linear)    (Quad)   (Total)
    R1        2.68012  -0.00000   0.00000  -0.00000  -0.00000   2.68011
    R2        2.07022   0.00000   0.00000   0.00001   0.00001   2.07023
    R3        2.07735   0.00000   0.00000   0.00001   0.00001   2.07735
    R4        2.07733   0.00001   0.00000   0.00002   0.00002   2.07735
    R5        2.52142   0.00000   0.00000   0.00001   0.00001   2.52142
    R6        2.27771   0.00001   0.00000   0.00001   0.00001   2.27771
    R7        2.83270   0.00000   0.00000   0.00001   0.00001   2.83271
    R8        2.63045   0.00001   0.00000   0.00002   0.00002   2.63047
    R9        2.67913  -0.00000   0.00000  -0.00000  -0.00000   2.67913
   R10        2.63388  -0.00001   0.00000  -0.00003  -0.00003   2.63385
   R11        2.06183   0.00000   0.00000   0.00001   0.00001   2.06183
   R12        2.54409  -0.00003   0.00000  -0.00005  -0.00005   2.54403
   R13        2.64193  -0.00001   0.00000  -0.00003  -0.00003   2.64189
   R14        2.65156  -0.00002   0.00000  -0.00004  -0.00004   2.65152
   R15        2.08621   0.00000   0.00000   0.00001   0.00001   2.08622
   R16        2.07204   0.00000   0.00000   0.00001   0.00001   2.07205
   R17        2.08619   0.00001   0.00000   0.00003   0.00003   2.08622
   R18        2.51350  -0.00002   0.00000  -0.00004  -0.00004   2.51346
   R19        2.06769   0.00001   0.00000   0.00003   0.00003   2.06772
   R20        2.51713  -0.00000   0.00000  -0.00000  -0.00000   2.51713
   R21        2.84573  -0.00002   0.00000  -0.00007  -0.00007   2.84566
   R22        2.07623   0.00001   0.00000   0.00003   0.00003   2.07625
   R23        2.07186   0.00001   0.00000   0.00004   0.00004   2.07190
   R24        2.07622   0.00001   0.00000   0.00002   0.00002   2.07624
    A1        1.85250   0.00000   0.00000   0.00002   0.00002   1.85252
    A2        1.93364  -0.00000   0.00000  -0.00002  -0.00002   1.93362
    A3        1.93364  -0.00000   0.00000  -0.00001  -0.00001   1.93363
    A4        1.92554   0.00000   0.00000   0.00001   0.00001   1.92555
    A5        1.92554   0.00000   0.00000   0.00001   0.00001   1.92555
    A6        1.89319   0.00000   0.00000  -0.00001  -0.00001   1.89319
    A7        2.02952   0.00000   0.00000   0.00000   0.00000   2.02952
    A8        2.13954  -0.00000   0.00000  -0.00000  -0.00000   2.13953
    A9        1.98943  -0.00001   0.00000  -0.00002  -0.00002   1.98941
   A10        2.15422   0.00001   0.00000   0.00003   0.00003   2.15424
   A11        2.00228   0.00001   0.00000   0.00004   0.00004   2.00232
   A12        2.20558   0.00000   0.00000   0.00000   0.00000   2.20558
   A13        2.07533  -0.00001   0.00000  -0.00004  -0.00004   2.07528
   A14        2.09693  -0.00001   0.00000  -0.00004  -0.00004   2.09689
   A15        2.08889   0.00000   0.00000   0.00000   0.00000   2.08889
   A16        2.09737   0.00001   0.00000   0.00004   0.00004   2.09740
   A17        2.05105   0.00002   0.00000   0.00008   0.00008   2.05112
   A18        2.04306   0.00002   0.00000   0.00008   0.00008   2.04314
   A19        2.18908  -0.00004   0.00000  -0.00016  -0.00016   2.18892
   A20        2.07279  -0.00007   0.00000  -0.00027  -0.00027   2.07253
   A21        1.95056  -0.00000   0.00000  -0.00001  -0.00001   1.95056
   A22        1.86102  -0.00001   0.00000  -0.00004  -0.00004   1.86098
   A23        1.95057  -0.00000   0.00000  -0.00002  -0.00002   1.95056
   A24        1.90007   0.00000   0.00000   0.00003   0.00003   1.90010
   A25        1.90012   0.00000   0.00000   0.00000   0.00000   1.90013
   A26        1.90008   0.00000   0.00000   0.00003   0.00003   1.90010
   A27        2.14320  -0.00000   0.00000  -0.00003  -0.00003   2.14317
   A28        2.11645  -0.00000   0.00000  -0.00003  -0.00003   2.11642
   A29        2.02353   0.00001   0.00000   0.00006   0.00006   2.02359
   A30        2.11524  -0.00001   0.00000  -0.00003  -0.00003   2.11521
   A31        2.09261   0.00001   0.00000   0.00006   0.00006   2.09267
   A32        2.17832   0.00000   0.00000   0.00001   0.00001   2.17833
   A33        2.01226  -0.00002   0.00000  -0.00007  -0.00007   2.01219
   A34        1.94670  -0.00000   0.00000  -0.00001  -0.00001   1.94668
   A35        1.88329  -0.00000   0.00000  -0.00002  -0.00002   1.88327
   A36        1.94676  -0.00000   0.00000  -0.00002  -0.00002   1.94674
   A37        1.91270   0.00000   0.00000   0.00001   0.00001   1.91270
   A38        1.86168   0.00001   0.00000   0.00004   0.00004   1.86173
   A39        1.91271   0.00000   0.00000   0.00001   0.00001   1.91272
    D1        3.14156   0.00000   0.00000   0.00001   0.00001   3.14157
    D2       -1.05108   0.00000   0.00000   0.00003   0.00003  -1.05105
    D3        1.05101  -0.00000   0.00000  -0.00000  -0.00000   1.05101
    D4        0.00024  -0.00002   0.00000  -0.00149  -0.00149  -0.00125
    D5        3.14137   0.00002   0.00000   0.00145   0.00145  -3.14037
    D6        3.14069  -0.00002   0.00000  -0.00117  -0.00117   3.13952
    D7       -0.00095  -0.00002   0.00000  -0.00118  -0.00118  -0.00213
    D8       -0.00138   0.00002   0.00000   0.00180   0.00180   0.00041
    D9        3.14017   0.00002   0.00000   0.00179   0.00179  -3.14123
   D10       -3.14153  -0.00000   0.00000  -0.00007  -0.00007   3.14159
   D11        0.00005  -0.00000   0.00000  -0.00002  -0.00002   0.00003
   D12        0.00011  -0.00000   0.00000  -0.00006  -0.00006   0.00005
   D13       -3.14150  -0.00000   0.00000  -0.00001  -0.00001  -3.14151
   D14        3.14156   0.00000   0.00000   0.00006   0.00006  -3.14157
   D15       -0.00007   0.00000   0.00000   0.00001   0.00001  -0.00006
   D16       -0.00008   0.00000   0.00000   0.00005   0.00005  -0.00003
   D17        3.14148   0.00000   0.00000  -0.00000  -0.00000   3.14148
   D18        3.14155   0.00000   0.00000   0.00002   0.00002   3.14157
   D19       -0.00006   0.00000   0.00000   0.00005   0.00005  -0.00001
   D20       -0.00002  -0.00000   0.00000  -0.00003  -0.00003  -0.00005
   D21        3.14155   0.00000   0.00000   0.00000   0.00000   3.14155
   D22        3.14154   0.00000   0.00000   0.00002   0.00002   3.14156
   D23       -0.00003  -0.00000   0.00000  -0.00001  -0.00001  -0.00004
   D24       -0.00001  -0.00000   0.00000  -0.00003  -0.00003  -0.00005
   D25        3.14158  -0.00000   0.00000  -0.00002  -0.00002   3.14157
   D26        3.14155   0.00000   0.00000   0.00000   0.00000   3.14156
   D27       -0.00003   0.00000   0.00000   0.00001   0.00001  -0.00002
   D28       -1.06718   0.00000   0.00000  -0.00000  -0.00000  -1.06718
   D29       -3.14156  -0.00000   0.00000  -0.00001  -0.00001  -3.14157
   D30        1.06724  -0.00000   0.00000  -0.00001  -0.00001   1.06723
   D31        0.00004   0.00000   0.00000   0.00002   0.00002   0.00006
   D32       -3.14156   0.00000   0.00000   0.00001   0.00001  -3.14155
   D33        0.00001  -0.00000   0.00000  -0.00003  -0.00003  -0.00002
   D34       -3.14155   0.00000   0.00000   0.00001   0.00001  -3.14154
   D35        1.04047   0.00000   0.00000  -0.00014  -0.00014   1.04032
   D36       -3.14104  -0.00000   0.00000  -0.00016  -0.00016  -3.14119
   D37       -1.03929  -0.00000   0.00000  -0.00017  -0.00017  -1.03947
   D38       -2.10116  -0.00000   0.00000  -0.00019  -0.00019  -2.10135
   D39        0.00053  -0.00000   0.00000  -0.00021  -0.00021   0.00032
   D40        2.10227  -0.00000   0.00000  -0.00022  -0.00022   2.10204
         Item               Value     Threshold  Converged?
 Maximum Force            0.000067     0.000450     YES
 RMS     Force            0.000012     0.000300     YES
 Maximum Displacement     0.003444     0.001800     NO 
 RMS     Displacement     0.000840     0.001200     YES
 Predicted change in Energy=-1.125111D-07
 GradGradGradGradGradGradGradGradGradGradGradGradGradGradGradGradGradGrad

                          Input orientation:                          
 ---------------------------------------------------------------------
 Center     Atomic      Atomic             Coordinates (Angstroms)
 Number     Number       Type             X           Y           Z
 ---------------------------------------------------------------------
      1          6           0       -4.075065   -0.639561    0.001568
      2          8           0       -2.810687    0.002929    0.000578
      3          6           0       -1.742010   -0.795961   -0.001733
      4          8           0       -1.830156   -1.998047   -0.001670
      5          6           0       -0.433945   -0.063852   -0.001010
      6          6           0        0.691616   -0.882833   -0.000771
      7          6           0        1.966696   -0.320007   -0.000111
      8          8           0        3.017898   -1.161049    0.000114
      9          6           0        4.313367   -0.622049    0.000741
     10          6           0        2.045872    1.075780    0.000274
     11          7           0        0.970390    1.858351   -0.000017
     12          6           0       -0.257844    1.342904   -0.000628
     13          6           0       -1.377896    2.349430   -0.000965
     14          1           0       -4.823311    0.160618    0.003472
     15          1           0       -4.192857   -1.270375   -0.890976
     16          1           0       -4.190457   -1.272369    0.893012
     17          1           0        0.570837   -1.967202   -0.001135
     18          1           0        4.501480   -0.007790   -0.897073
     19          1           0        5.006628   -1.471554    0.000797
     20          1           0        4.500795   -0.008226    0.898996
     21          1           0        3.011845    1.589733    0.000822
     22          1           0       -2.023936    2.234240    0.880237
     23          1           0       -0.931232    3.350725   -0.000954
     24          1           0       -2.023607    2.234096   -0.882382
 ---------------------------------------------------------------------
                    Distance matrix (angstroms):
                    1          2          3          4          5
     1  C    0.000000
     2  O    1.418255   0.000000
     3  C    2.338294   1.334280   0.000000
     4  O    2.623949   2.228308   1.205313   0.000000
     5  C    3.686353   2.377681   1.499005   2.385480   0.000000
     6  C    4.772885   3.612576   2.435176   2.757361   1.391983
     7  C    6.050206   4.788286   3.739122   4.151133   2.414269
     8  O    7.112107   5.943673   4.773888   4.919776   3.622024
     9  C    8.388450   7.151416   6.057874   6.295733   4.780017
    10  C    6.356749   4.973648   4.225099   4.946919   2.729149
    11  N    5.629937   4.211786   3.795062   4.766012   2.380552
    12  C    4.301320   2.883148   2.603362   3.692442   1.417736
    13  C    4.026015   2.749356   3.166397   4.370938   2.591327
    14  H    1.095519   2.018793   3.226373   3.690371   4.395104
    15  H    1.099289   2.080040   2.649995   2.627304   4.046870
    16  H    1.099288   2.080045   2.649986   2.626420   4.046130
    17  H    4.831878   3.913582   2.592502   2.401191   2.152284
    18  H    8.646608   7.367068   6.356415   6.697200   5.016423
    19  H    9.119724   7.955157   6.782370   6.857027   5.619739
    20  H    8.645770   7.366482   6.356450   6.697129   5.016450
    21  H    7.429269   6.034884   5.318898   6.026371   3.822017
    22  H    3.638396   2.524188   3.168513   4.327536   2.930169
    23  H    5.079968   3.839282   4.225206   5.423784   3.450599
    24  H    3.639747   2.525316   3.167979   4.327137   2.929916
                    6          7          8          9         10
     6  C    0.000000
     7  C    1.393773   0.000000
     8  O    2.342860   1.346245   0.000000
     9  C    3.631128   2.366029   1.403126   0.000000
    10  C    2.381212   1.398031   2.438901   2.832694   0.000000
    11  N    2.755323   2.395385   3.648159   4.162677   1.330067
    12  C    2.419789   2.777382   4.123138   4.975642   2.319151
    13  C    3.838021   4.279274   5.625519   6.420293   3.652994
    14  H    5.612773   6.806997   7.951815   9.170139   6.929877
    15  H    4.980033   6.295787   7.266428   8.577373   6.724619
    16  H    4.978476   6.294060   7.264298   8.575202   6.723286
    17  H    1.091075   2.159091   2.576430   3.976930   3.381637
    18  H    4.010502   2.706871   2.082299   1.103979   2.830083
    19  H    4.354989   3.250731   2.012825   1.096481   3.905763
    20  H    4.010531   2.706891   2.082300   1.103979   2.830092
    21  H    3.390729   2.177026   2.750788   2.566308   1.094190
    22  H    4.226883   4.819163   6.141879   7.006661   4.322001
    23  H    4.533944   4.676779   5.995976   6.579419   3.746802
    24  H    4.226692   4.819167   6.141871   7.006762   4.322203
                   11         12         13         14         15
    11  N    0.000000
    12  C    1.332008   0.000000
    13  C    2.399085   1.505858   0.000000
    14  H    6.037324   4.716069   4.081887   0.000000
    15  H    6.102611   4.806899   4.671094   1.801458   0.000000
    16  H    6.101906   4.806630   4.671951   1.801454   1.783991
    17  H    3.846362   3.412260   4.736124   5.798661   4.895933
    18  H    4.093383   5.027838   6.397387   9.369689   8.785537
    19  H    5.232541   5.969577   7.440569   9.964522   9.244796
    20  H    4.093421   5.027875   6.397459   9.368533   8.965300
    21  H    2.059051   3.278992   4.454993   7.964423   7.802771
    22  H    3.143585   2.165521   1.098706   3.592370   4.485949
    23  H    2.417302   2.117734   1.096403   5.032403   5.725810
    24  H    3.143847   2.165556   1.098700   3.594773   4.121534
                   16         17         18         19         20
    16  H    0.000000
    17  H    4.894099   0.000000
    18  H    8.964002   4.482406   0.000000
    19  H    9.242408   4.463398   1.789958   0.000000
    20  H    8.782707   4.482454   1.796069   1.789960   0.000000
    21  H    7.801332   4.313967   2.361632   3.653852   2.361602
    22  H    4.121927   5.016151   7.125067   7.995946   6.899356
    23  H    5.726667   5.525990   6.449575   7.649351   6.449759
    24  H    4.488046   5.015839   6.899495   7.996003   7.125247
                   21         22         23         24
    21  H    0.000000
    22  H    5.152460   0.000000
    23  H    4.318443   1.793610   0.000000
    24  H    5.152769   1.762619   1.793616   0.000000
 Stoichiometry    C9H11NO3
 Framework group  C1[X(C9H11NO3)]
 Deg. of freedom    66
 Full point group                 C1      NOp   1
 Largest Abelian subgroup         C1      NOp   1
 Largest concise Abelian subgroup C1      NOp   1
                         Standard orientation:                         
 ---------------------------------------------------------------------
 Center     Atomic      Atomic             Coordinates (Angstroms)
 Number     Number       Type             X           Y           Z
 ---------------------------------------------------------------------
      1          6           0       -4.075088   -0.639363    0.001765
      2          8           0       -2.810688    0.003086    0.000775
      3          6           0       -1.742038   -0.795841   -0.001536
      4          8           0       -1.830225   -1.997924   -0.001473
      5          6           0       -0.433948   -0.063776   -0.000813
      6          6           0        0.691585   -0.882795   -0.000573
      7          6           0        1.966684   -0.320012    0.000087
      8          8           0        3.017857   -1.161090    0.000311
      9          6           0        4.313345   -0.622133    0.000938
     10          6           0        2.045907    1.075772    0.000471
     11          7           0        0.970452    1.858380    0.000180
     12          6           0       -0.257800    1.342974   -0.000431
     13          6           0       -1.377817    2.349538   -0.000768
     14          1           0       -4.823306    0.160842    0.003669
     15          1           0       -4.192901   -1.270173   -0.890779
     16          1           0       -4.190501   -1.272166    0.893210
     17          1           0        0.570769   -1.967160   -0.000938
     18          1           0        4.501479   -0.007880   -0.896876
     19          1           0        5.006578   -1.471662    0.000995
     20          1           0        4.500794   -0.008317    0.899193
     21          1           0        3.011897    1.589692    0.001019
     22          1           0       -2.023861    2.234369    0.880435
     23          1           0       -0.931120    3.350818   -0.000757
     24          1           0       -2.023533    2.234226   -0.882185
 ---------------------------------------------------------------------
 Rotational constants (GHZ):           1.6773517           0.4703949           0.3699490
 Standard basis: def2SVP (5D, 7F)
 There are   250 symmetry adapted cartesian basis functions of A   symmetry.
 There are   237 symmetry adapted basis functions of A   symmetry.
   237 basis functions,   402 primitive gaussians,   250 cartesian basis functions
    48 alpha electrons       48 beta electrons
       nuclear repulsion energy       787.2855713109 Hartrees.
 NAtoms=   24 NActive=   24 NUniq=   24 SFac= 1.00D+00 NAtFMM=   60 NAOKFM=F Big=F
 Integral buffers will be    131072 words long.
 Raffenetti 2 integral format.
 Two-electron integral symmetry is turned on.
 Nuclear repulsion after empirical dispersion term =      787.2728966633 Hartrees.
 One-electron integrals computed using PRISM.
   1 Symmetry operations used in ECPInt.
 ECPInt:  NShTT=    6216 NPrTT=   22568 LenC2=    5813 LenP2D=   15610.
 LDataN:  DoStor=T MaxTD1= 4 Len=   56
 NBasis=   237 RedAO= T EigKep=  5.28D-04  NBF=   237
 NBsUse=   237 1.00D-06 EigRej= -1.00D+00 NBFU=   237
 Initial guess from the checkpoint file:  "12356206_4.chk"
 B after Tr=     0.000000   -0.000000   -0.000000
         Rot=    1.000000   -0.000018    0.000015    0.000023 Ang=  -0.00 deg.
 Requested convergence on RMS density matrix=1.00D-08 within 128 cycles.
 Requested convergence on MAX density matrix=1.00D-06.
 Requested convergence on             energy=1.00D-06.
 No special actions if energy rises.
 SCF Done:  E(RwB97XD) =  -629.338761154     A.U. after    8 cycles
            NFock=  8  Conv=0.87D-08     -V/T= 2.0096
   1 Symmetry operations used in ECPInt.
 ECPInt:  NShTT=    6216 NPrTT=   22568 LenC2=    5813 LenP2D=   15610.
 LDataN:  DoStor=T MaxTD1= 5 Len=  102
 Calling FoFJK, ICntrl=      2127 FMM=F ISym2X=0 I1Cent= 0 IOpClX= 0 NMat=1 NMatS=1 NMatT=0.
 ***** Axes restored to original set *****
 -------------------------------------------------------------------
 Center     Atomic                   Forces (Hartrees/Bohr)
 Number     Number              X              Y              Z
 -------------------------------------------------------------------
      1        6           0.000000265    0.000001699   -0.000002197
      2        8          -0.000001511    0.000002302   -0.000104096
      3        6           0.000002097    0.000000425    0.000343241
      4        8           0.000001726    0.000002050   -0.000135116
      5        6          -0.000003200    0.000003839   -0.000098152
      6        6           0.000007069   -0.000000612   -0.000007386
      7        6          -0.000016108   -0.000003262    0.000008032
      8        8           0.000008891   -0.000005355   -0.000000129
      9        6           0.000009587   -0.000011350   -0.000000334
     10        6          -0.000004028    0.000012558   -0.000000604
     11        7           0.000007322   -0.000000262    0.000008775
     12        6          -0.000005337   -0.000003205   -0.000010015
     13        6          -0.000002713    0.000002079    0.000007809
     14        1           0.000000833    0.000001447   -0.000002356
     15        1          -0.000004768    0.000000927    0.000001129
     16        1           0.000002923    0.000001087    0.000000595
     17        1          -0.000001687   -0.000000234    0.000000049
     18        1           0.000001456   -0.000002655    0.000000847
     19        1           0.000001906   -0.000000288    0.000000195
     20        1           0.000001525   -0.000002933   -0.000000673
     21        1          -0.000006578   -0.000001150   -0.000001958
     22        1           0.000004183    0.000003503   -0.000002771
     23        1          -0.000000001   -0.000000637   -0.000002806
     24        1          -0.000003854    0.000000028   -0.000002077
 -------------------------------------------------------------------
 Cartesian Forces:  Max     0.000343241 RMS     0.000046854

 GradGradGradGradGradGradGradGradGradGradGradGradGradGradGradGradGradGrad
 Berny optimization.
 Using GEDIIS/GDIIS optimizer.
 FormGI is forming the generalized inverse of G from B-inverse, IUseBI=4.
 Internal  Forces:  Max     0.000086873 RMS     0.000021187
 Search for a local minimum.
 Step number   2 out of a maximum of  113
 All quantities printed in internal units (Hartrees-Bohrs-Radians)
 Mixed Optimization -- En-DIIS/RFO-DIIS
 Swapping is turned off.
 Update second derivatives using D2CorX and points    1    2
 DE=  2.67D-07 DEPred=-1.13D-07 R=-2.37D+00
 Trust test=-2.37D+00 RLast= 3.72D-03 DXMaxT set to 1.50D-01
 ITU= -1  0
     Eigenvalues ---    0.00687   0.00775   0.01442   0.01450   0.01631
     Eigenvalues ---    0.01650   0.02018   0.02155   0.02183   0.02204
     Eigenvalues ---    0.02276   0.02402   0.02495   0.02561   0.06589
     Eigenvalues ---    0.07175   0.07461   0.10076   0.10224   0.10638
     Eigenvalues ---    0.10640   0.15918   0.16000   0.16000   0.16000
     Eigenvalues ---    0.16000   0.16000   0.16000   0.16000   0.16000
     Eigenvalues ---    0.16000   0.16029   0.23099   0.23339   0.23882
     Eigenvalues ---    0.25000   0.25000   0.25000   0.25000   0.25000
     Eigenvalues ---    0.25000   0.25026   0.31646   0.32485   0.33215
     Eigenvalues ---    0.33247   0.33725   0.33762   0.33802   0.33834
     Eigenvalues ---    0.34034   0.34076   0.34180   0.34327   0.34688
     Eigenvalues ---    0.40810   0.42723   0.44523   0.44713   0.45056
     Eigenvalues ---    0.46606   0.55800   0.56767   0.58366   0.58504
     Eigenvalues ---    1.02185
 En-DIIS/RFO-DIIS/Sim-DIIS IScMMF=       -3 using points:     2    1
 RFO step:  Lambda=-6.19531844D-07.
 DidBck=T Rises=T En-DIIS coefs:    0.36585    0.63415
 Iteration  1 RMS(Cart)=  0.00073920 RMS(Int)=  0.00000024
 Iteration  2 RMS(Cart)=  0.00000054 RMS(Int)=  0.00000001
 Variable       Old X    -DE/DX   Delta X   Delta X   Delta X     New X
                                 (Linear)    (Quad)   (Total)
    R1        2.68011  -0.00000   0.00000  -0.00000  -0.00000   2.68011
    R2        2.07023  -0.00000  -0.00001   0.00001   0.00000   2.07023
    R3        2.07735  -0.00000  -0.00001   0.00001   0.00000   2.07736
    R4        2.07735   0.00000  -0.00001   0.00002   0.00000   2.07736
    R5        2.52142   0.00000  -0.00000   0.00001   0.00000   2.52143
    R6        2.27771  -0.00000  -0.00000   0.00000   0.00000   2.27771
    R7        2.83271  -0.00000  -0.00000   0.00000  -0.00000   2.83271
    R8        2.63047   0.00000  -0.00001   0.00001   0.00000   2.63047
    R9        2.67913  -0.00000   0.00000  -0.00000  -0.00000   2.67913
   R10        2.63385  -0.00000   0.00002  -0.00002  -0.00000   2.63384
   R11        2.06183   0.00000  -0.00000   0.00000   0.00000   2.06183
   R12        2.54403   0.00003   0.00003  -0.00003   0.00001   2.54404
   R13        2.64189   0.00001   0.00002  -0.00002   0.00000   2.64190
   R14        2.65152   0.00001   0.00003  -0.00002   0.00000   2.65152
   R15        2.08622  -0.00000  -0.00001   0.00001   0.00000   2.08622
   R16        2.07205   0.00000  -0.00001   0.00001   0.00000   2.07205
   R17        2.08622  -0.00000  -0.00002   0.00002   0.00000   2.08622
   R18        2.51346   0.00000   0.00003  -0.00003  -0.00000   2.51346
   R19        2.06772  -0.00001  -0.00002   0.00002  -0.00000   2.06772
   R20        2.51713   0.00001   0.00000   0.00000   0.00000   2.51713
   R21        2.84566   0.00001   0.00004  -0.00005  -0.00000   2.84566
   R22        2.07625  -0.00000  -0.00002   0.00002  -0.00000   2.07625
   R23        2.07190  -0.00000  -0.00003   0.00003   0.00000   2.07190
   R24        2.07624   0.00000  -0.00001   0.00002   0.00000   2.07625
    A1        1.85252  -0.00000  -0.00001   0.00001   0.00000   1.85252
    A2        1.93362   0.00001   0.00001  -0.00001   0.00001   1.93363
    A3        1.93363  -0.00001   0.00001  -0.00002  -0.00001   1.93362
    A4        1.92555  -0.00000  -0.00001   0.00001  -0.00000   1.92555
    A5        1.92555   0.00000  -0.00000   0.00001   0.00000   1.92555
    A6        1.89319  -0.00000   0.00000  -0.00001  -0.00000   1.89319
    A7        2.02952   0.00000  -0.00000   0.00000   0.00000   2.02952
    A8        2.13953   0.00000   0.00000  -0.00000   0.00000   2.13953
    A9        1.98941   0.00000   0.00002  -0.00002  -0.00000   1.98941
   A10        2.15424  -0.00000  -0.00002   0.00002   0.00000   2.15425
   A11        2.00232  -0.00000  -0.00002   0.00003   0.00000   2.00232
   A12        2.20558   0.00000  -0.00000   0.00000   0.00000   2.20558
   A13        2.07528   0.00000   0.00003  -0.00003  -0.00000   2.07528
   A14        2.09689   0.00001   0.00003  -0.00003   0.00000   2.09689
   A15        2.08889  -0.00000  -0.00000  -0.00000  -0.00000   2.08889
   A16        2.09740  -0.00000  -0.00002   0.00003   0.00000   2.09741
   A17        2.05112  -0.00001  -0.00005   0.00005  -0.00000   2.05112
   A18        2.04314  -0.00001  -0.00005   0.00005  -0.00000   2.04314
   A19        2.18892   0.00002   0.00010  -0.00010   0.00000   2.18892
   A20        2.07253   0.00004   0.00017  -0.00016   0.00001   2.07254
   A21        1.95056   0.00000   0.00000  -0.00000   0.00000   1.95056
   A22        1.86098   0.00000   0.00002  -0.00002  -0.00000   1.86098
   A23        1.95056   0.00000   0.00001  -0.00001   0.00000   1.95056
   A24        1.90010  -0.00000  -0.00002   0.00002  -0.00000   1.90010
   A25        1.90013  -0.00000  -0.00000   0.00000  -0.00000   1.90013
   A26        1.90010  -0.00000  -0.00002   0.00002  -0.00000   1.90010
   A27        2.14317   0.00000   0.00002  -0.00002   0.00000   2.14317
   A28        2.11642   0.00000   0.00002  -0.00002  -0.00000   2.11642
   A29        2.02359  -0.00000  -0.00004   0.00004  -0.00000   2.02359
   A30        2.11521   0.00000   0.00002  -0.00002  -0.00000   2.11521
   A31        2.09267  -0.00001  -0.00004   0.00004   0.00000   2.09267
   A32        2.17833   0.00000  -0.00001   0.00001   0.00000   2.17833
   A33        2.01219   0.00000   0.00004  -0.00005  -0.00000   2.01218
   A34        1.94668   0.00000   0.00001  -0.00001   0.00000   1.94668
   A35        1.88327   0.00000   0.00001  -0.00002  -0.00000   1.88326
   A36        1.94674   0.00000   0.00001  -0.00001   0.00000   1.94674
   A37        1.91270  -0.00000  -0.00000   0.00000  -0.00000   1.91270
   A38        1.86173  -0.00000  -0.00003   0.00003   0.00000   1.86173
   A39        1.91272  -0.00000  -0.00000   0.00000  -0.00000   1.91272
    D1        3.14157   0.00000  -0.00001   0.00001   0.00000   3.14158
    D2       -1.05105   0.00000  -0.00002   0.00003   0.00001  -1.05104
    D3        1.05101   0.00000   0.00000   0.00000   0.00000   1.05102
    D4       -0.00125   0.00008   0.00094   0.00029   0.00124  -0.00001
    D5       -3.14037  -0.00008  -0.00092  -0.00029  -0.00121  -3.14158
    D6        3.13952   0.00008   0.00074   0.00044   0.00119   3.14070
    D7       -0.00213   0.00008   0.00075   0.00045   0.00120  -0.00093
    D8        0.00041  -0.00009  -0.00114  -0.00014  -0.00128  -0.00087
    D9       -3.14123  -0.00009  -0.00113  -0.00013  -0.00127   3.14069
   D10        3.14159   0.00000   0.00004  -0.00001   0.00004  -3.14156
   D11        0.00003   0.00000   0.00001  -0.00000   0.00001   0.00004
   D12        0.00005   0.00000   0.00004  -0.00001   0.00003   0.00007
   D13       -3.14151   0.00000   0.00001  -0.00001   0.00000  -3.14151
   D14       -3.14157  -0.00000  -0.00004   0.00000  -0.00004   3.14158
   D15       -0.00006  -0.00000  -0.00001  -0.00000  -0.00001  -0.00007
   D16       -0.00003  -0.00000  -0.00003   0.00001  -0.00002  -0.00005
   D17        3.14148  -0.00000   0.00000   0.00000   0.00000   3.14148
   D18        3.14157  -0.00000  -0.00001   0.00000  -0.00001   3.14156
   D19       -0.00001  -0.00000  -0.00003   0.00001  -0.00002  -0.00003
   D20       -0.00005   0.00000   0.00002  -0.00000   0.00001  -0.00004
   D21        3.14155   0.00000  -0.00000   0.00001   0.00001   3.14155
   D22        3.14156  -0.00000  -0.00001   0.00001  -0.00000   3.14156
   D23       -0.00004   0.00000   0.00001   0.00000   0.00001  -0.00003
   D24       -0.00005   0.00000   0.00002  -0.00001   0.00001  -0.00004
   D25        3.14157   0.00000   0.00001   0.00000   0.00002   3.14158
   D26        3.14156  -0.00000  -0.00000   0.00000  -0.00000   3.14156
   D27       -0.00002   0.00000  -0.00001   0.00002   0.00001  -0.00001
   D28       -1.06718  -0.00000   0.00000  -0.00000   0.00000  -1.06718
   D29       -3.14157  -0.00000   0.00001  -0.00001  -0.00000  -3.14157
   D30        1.06723   0.00000   0.00001  -0.00001   0.00000   1.06723
   D31        0.00006  -0.00000  -0.00002   0.00001  -0.00000   0.00006
   D32       -3.14155  -0.00000  -0.00001  -0.00000  -0.00001  -3.14156
   D33       -0.00002   0.00000   0.00002  -0.00001   0.00001  -0.00001
   D34       -3.14154  -0.00000  -0.00001  -0.00000  -0.00001  -3.14155
   D35        1.04032   0.00000   0.00009  -0.00004   0.00005   1.04037
   D36       -3.14119   0.00000   0.00010  -0.00005   0.00005  -3.14115
   D37       -1.03947   0.00000   0.00011  -0.00007   0.00004  -1.03943
   D38       -2.10135   0.00000   0.00012  -0.00005   0.00007  -2.10128
   D39        0.00032   0.00000   0.00013  -0.00006   0.00007   0.00039
   D40        2.10204   0.00000   0.00014  -0.00008   0.00007   2.10211
         Item               Value     Threshold  Converged?
 Maximum Force            0.000087     0.000450     YES
 RMS     Force            0.000021     0.000300     YES
 Maximum Displacement     0.003537     0.001800     NO 
 RMS     Displacement     0.000739     0.001200     YES
 Predicted change in Energy=-3.097681D-07
 GradGradGradGradGradGradGradGradGradGradGradGradGradGradGradGradGradGrad

                          Input orientation:                          
 ---------------------------------------------------------------------
 Center     Atomic      Atomic             Coordinates (Angstroms)
 Number     Number       Type             X           Y           Z
 ---------------------------------------------------------------------
      1          6           0       -4.075067   -0.639563    0.000713
      2          8           0       -2.810689    0.002928    0.000730
      3          6           0       -1.742009   -0.795963   -0.000258
      4          8           0       -1.830153   -1.998049   -0.001112
      5          6           0       -0.433947   -0.063850   -0.000170
      6          6           0        0.691618   -0.882829   -0.000066
      7          6           0        1.966694   -0.320000    0.000064
      8          8           0        3.017899   -1.161044    0.000196
      9          6           0        4.313374   -0.622057    0.000291
     10          6           0        2.045866    1.075789    0.000048
     11          7           0        0.970385    1.858357   -0.000127
     12          6           0       -0.257849    1.342906   -0.000230
     13          6           0       -1.377899    2.349431   -0.000479
     14          1           0       -4.823315    0.160616    0.001600
     15          1           0       -4.191993   -1.270700   -0.891717
     16          1           0       -4.191320   -1.272051    0.892274
     17          1           0        0.570839   -1.967198   -0.000096
     18          1           0        4.501226   -0.008037   -0.897741
     19          1           0        5.006627   -1.471570    0.000365
     20          1           0        4.501079   -0.007999    0.898330
     21          1           0        3.011837    1.589744    0.000156
     22          1           0       -2.023626    2.234513    0.880988
     23          1           0       -0.931233    3.350726   -0.000935
     24          1           0       -2.023923    2.233828   -0.881635
 ---------------------------------------------------------------------
                    Distance matrix (angstroms):
                    1          2          3          4          5
     1  C    0.000000
     2  O    1.418254   0.000000
     3  C    2.338294   1.334281   0.000000
     4  O    2.623952   2.228310   1.205314   0.000000
     5  C    3.686353   2.377680   1.499004   2.385480   0.000000
     6  C    4.772889   3.612579   2.435177   2.757362   1.391985
     7  C    6.050207   4.788286   3.739120   4.151132   2.414269
     8  O    7.112110   5.943675   4.773888   4.919774   3.622026
     9  C    8.388459   7.151425   6.057880   6.295735   4.780027
    10  C    6.356749   4.973647   4.225098   4.946918   2.729149
    11  N    5.629937   4.211785   3.795061   4.766012   2.380552
    12  C    4.301317   2.883146   2.603361   3.692440   1.417735
    13  C    4.026015   2.749357   3.166398   4.370939   2.591326
    14  H    1.095520   2.018794   3.226375   3.690374   4.395104
    15  H    1.099289   2.080046   2.650000   2.626881   4.046511
    16  H    1.099289   2.080039   2.649980   2.626846   4.046486
    17  H    4.831879   3.913583   2.592500   2.401190   2.152285
    18  H    8.646319   7.366917   6.356436   6.697047   5.016441
    19  H    9.119726   7.955161   6.782369   6.857021   5.619744
    20  H    8.646089   7.366665   6.356452   6.697297   5.016463
[...]
 Alpha virt. eigenvalues --    2.78142   2.78246   2.79839   2.82801   2.86766
 Alpha virt. eigenvalues --    2.86909   2.88390   2.88891   2.91437   2.92021
 Alpha virt. eigenvalues --    2.92252   2.92630   2.94871   2.94881   2.96613
 Alpha virt. eigenvalues --    2.96706   2.97111   3.04535   3.05210   3.05710
 Alpha virt. eigenvalues --    3.06843   3.07686   3.09546   3.10306   3.12777
 Alpha virt. eigenvalues --    3.14216   3.14444   3.15502   3.17714   3.18297
 Alpha virt. eigenvalues --    3.19416   3.20685   3.22312   3.22331   3.23670
 Alpha virt. eigenvalues --    3.27112   3.27836   3.28465   3.29220   3.29941
 Alpha virt. eigenvalues --    3.31549   3.31645   3.33114   3.33844   3.34019
 Alpha virt. eigenvalues --    3.34355   3.35394   3.38161   3.38275   3.39342
 Alpha virt. eigenvalues --    3.39756   3.41874   3.42148   3.42619   3.42781
 Alpha virt. eigenvalues --    3.44147   3.44849   3.46496   3.47251   3.48494
 Alpha virt. eigenvalues --    3.50576   3.50925   3.51706   3.53794   3.54067
 Alpha virt. eigenvalues --    3.57195   3.59962   3.60156   3.61817   3.62377
 Alpha virt. eigenvalues --    3.63102   3.64201   3.64839   3.65442   3.67186
 Alpha virt. eigenvalues --    3.69178   3.70562   3.72765   3.76764   3.79230
 Alpha virt. eigenvalues --    3.80829   3.81995   3.85353   3.89885   3.90912
 Alpha virt. eigenvalues --    3.92733   3.93566   3.97333   4.01149   4.01453
 Alpha virt. eigenvalues --    4.03112   4.06190   4.11023   4.13520   4.15187
 Alpha virt. eigenvalues --    4.18653   4.21777   4.22067   4.23147   4.24819
 Alpha virt. eigenvalues --    4.25204   4.28673   4.34026   4.34466   4.36239
 Alpha virt. eigenvalues --    4.37163   4.40693   4.44604   4.45314   4.46180
 Alpha virt. eigenvalues --    4.47421   4.52067   4.53103   4.53289   4.57470
 Alpha virt. eigenvalues --    4.60186   4.62334   4.63006   4.66722   4.72070
 Alpha virt. eigenvalues --    4.72484   4.80102   4.82808   4.89960   4.95132
 Alpha virt. eigenvalues --    4.96676   4.99479   5.01831   5.07734   5.15304
 Alpha virt. eigenvalues --    5.21650   5.24888   5.24966   5.27794   5.31681
 Alpha virt. eigenvalues --    5.33141   5.36138   5.36327   5.39648   5.44956
 Alpha virt. eigenvalues --    5.47330   5.51866   5.56971   5.59921   5.68061
 Alpha virt. eigenvalues --    5.76619   5.76872   5.76900   5.84673   5.86015
 Alpha virt. eigenvalues --    5.91269   6.01168   6.01904   6.07370   6.08808
 Alpha virt. eigenvalues --    6.18016   6.23078   6.28389   6.38826   6.43983
 Alpha virt. eigenvalues --    6.48237   6.54098   6.67028   6.68579   6.72330
 Alpha virt. eigenvalues --    6.74700   6.85446   6.85824   6.85922   6.94936
 Alpha virt. eigenvalues --    6.97604   7.05728   7.15344   7.24861   7.26253
 Alpha virt. eigenvalues --    7.44020   7.49352   7.54110  22.45014  22.47098
 Alpha virt. eigenvalues --   22.55913  22.65216  22.88259  23.05052  23.18130
 Alpha virt. eigenvalues --   23.37057  23.60389  32.69771  44.04392  44.28902
 Alpha virt. eigenvalues --   44.35189
          Condensed to atoms (all electrons):
               1          2          3          4          5          6
     1  C    4.772140   0.220369  -0.044176   0.008367   0.009889  -0.001485
     2  O    0.220369   7.963777   0.399461  -0.084984  -0.118905   0.006062
     3  C   -0.044176   0.399461   4.479070   0.624661   0.294661  -0.102550
     4  O    0.008367  -0.084984   0.624661   7.901762  -0.140220   0.032362
     5  C    0.009889  -0.118905   0.294661  -0.140220   5.373053   0.374053
     6  C   -0.001485   0.006062  -0.102550   0.032362   0.374053   5.309462
     7  C    0.000014   0.000388   0.010512   0.002061  -0.038211   0.434754
     8  O   -0.000000   0.000000  -0.000005   0.000018   0.008796  -0.101662
     9  C    0.000000  -0.000000   0.000042  -0.000003  -0.000530   0.005207
    10  C   -0.000005  -0.000015  -0.000199   0.000025  -0.013786  -0.023111
    11  N    0.000035   0.000147   0.003982  -0.000319  -0.053755  -0.079978
    12  C   -0.001096  -0.004579  -0.029619   0.002385   0.353478  -0.022873
    13  C   -0.001293  -0.013672  -0.014702   0.000241  -0.039755   0.007087
    14  H    0.396763  -0.035162   0.005900   0.001803   0.002481  -0.000036
    15  H    0.419121  -0.032549  -0.008859   0.004574  -0.002262  -0.000064
    16  H    0.419093  -0.032524  -0.008870   0.004575  -0.002269  -0.000061
    17  H   -0.000205   0.000845  -0.015959   0.019322  -0.035029   0.433155
    18  H    0.000000   0.000000   0.000002  -0.000000   0.000099  -0.000014
    19  H   -0.000000   0.000000  -0.000002   0.000000  -0.000047  -0.000125
    20  H    0.000000   0.000000   0.000002  -0.000000   0.000099  -0.000012
    21  H    0.000000  -0.000001   0.000066  -0.000003  -0.001806  -0.000263
    22  H    0.000016   0.001321  -0.004686  -0.000012   0.006386   0.000437
    23  H   -0.000057   0.002009   0.000127   0.000024   0.005402   0.000300
    24  H    0.000014   0.001307  -0.004678  -0.000012   0.006373   0.000448
               7          8          9         10         11         12
     1  C    0.000014  -0.000000   0.000000  -0.000005   0.000035  -0.001096
     2  O    0.000388   0.000000  -0.000000  -0.000015   0.000147  -0.004579
     3  C    0.010512  -0.000005   0.000042  -0.000199   0.003982  -0.029619
     4  O    0.002061   0.000018  -0.000003   0.000025  -0.000319   0.002385
     5  C   -0.038211   0.008796  -0.000530  -0.013786  -0.053755   0.353478
     6  C    0.434754  -0.101662   0.005207  -0.023111  -0.079978  -0.022873
     7  C    4.793566   0.375080  -0.076849   0.355344  -0.024531  -0.013427
     8  O    0.375080   7.923689   0.240975  -0.062738   0.006740  -0.000911
     9  C   -0.076849   0.240975   4.809525   0.007536  -0.001292  -0.000084
    10  C    0.355344  -0.062738   0.007536   4.992567   0.524284  -0.123969
    11  N   -0.024531   0.006740  -0.001292   0.524284   6.431106   0.536394
    12  C   -0.013427  -0.000911  -0.000084  -0.123969   0.536394   5.064484
    13  C   -0.000045   0.000013  -0.000035   0.002770  -0.057685   0.282528
    14  H   -0.000004   0.000000   0.000000   0.000001   0.000002   0.000283
    15  H    0.000006  -0.000000   0.000000  -0.000001   0.000001  -0.000191
    16  H    0.000006  -0.000000   0.000000  -0.000001   0.000001  -0.000192
    17  H   -0.054857   0.005662   0.000067   0.006435  -0.001999   0.008197
    18  H   -0.008947  -0.041651   0.414031   0.005615  -0.000136  -0.000234
    19  H    0.004467  -0.030039   0.400906  -0.000064   0.000024   0.000037
    20  H   -0.008949  -0.041651   0.414027   0.005616  -0.000136  -0.000234
    21  H   -0.091072  -0.001100   0.005379   0.454608  -0.022461   0.006296
    22  H    0.000011  -0.000002   0.000000  -0.000254   0.000317  -0.037266
    23  H    0.000158  -0.000004   0.000001   0.001966   0.011511  -0.071958
    24  H    0.000009  -0.000002   0.000000  -0.000253   0.000322  -0.037368
              13         14         15         16         17         18
     1  C   -0.001293   0.396763   0.419121   0.419093  -0.000205   0.000000
     2  O   -0.013672  -0.035162  -0.032549  -0.032524   0.000845   0.000000
     3  C   -0.014702   0.005900  -0.008859  -0.008870  -0.015959   0.000002
     4  O    0.000241   0.001803   0.004574   0.004575   0.019322  -0.000000
     5  C   -0.039755   0.002481  -0.002262  -0.002269  -0.035029   0.000099
     6  C    0.007087  -0.000036  -0.000064  -0.000061   0.433155  -0.000014
     7  C   -0.000045  -0.000004   0.000006   0.000006  -0.054857  -0.008947
     8  O    0.000013   0.000000  -0.000000  -0.000000   0.005662  -0.041651
     9  C   -0.000035   0.000000   0.000000   0.000000   0.000067   0.414031
    10  C    0.002770   0.000001  -0.000001  -0.000001   0.006435   0.005615
    11  N   -0.057685   0.000002   0.000001   0.000001  -0.001999  -0.000136
    12  C    0.282528   0.000283  -0.000191  -0.000192   0.008197  -0.000234
    13  C    4.916071  -0.000991   0.000162   0.000165   0.000086  -0.000001
    14  H   -0.000991   0.545600  -0.024365  -0.024362   0.000001  -0.000000
    15  H    0.000162  -0.024365   0.544546  -0.035104  -0.000023  -0.000000
    16  H    0.000165  -0.024362  -0.035104   0.544564  -0.000023   0.000000
    17  H    0.000086   0.000001  -0.000023  -0.000023   0.464643   0.000074
    18  H   -0.000001  -0.000000  -0.000000   0.000000   0.000074   0.579134
    19  H    0.000000  -0.000000   0.000000   0.000000  -0.000114  -0.018782
    20  H   -0.000001  -0.000000   0.000000  -0.000000   0.000074  -0.054903
    21  H   -0.000165   0.000000  -0.000000  -0.000000  -0.000095  -0.000932
    22  H    0.404488   0.000167   0.000141  -0.000262   0.000001  -0.000000
    23  H    0.430429  -0.000052   0.000007   0.000007   0.000010   0.000000
    24  H    0.404618   0.000168  -0.000263   0.000140   0.000001   0.000001
              19         20         21         22         23         24
     1  C   -0.000000   0.000000   0.000000   0.000016  -0.000057   0.000014
     2  O    0.000000   0.000000  -0.000001   0.001321   0.002009   0.001307
     3  C   -0.000002   0.000002   0.000066  -0.004686   0.000127  -0.004678
     4  O    0.000000  -0.000000  -0.000003  -0.000012   0.000024  -0.000012
     5  C   -0.000047   0.000099  -0.001806   0.006386   0.005402   0.006373
     6  C   -0.000125  -0.000012  -0.000263   0.000437   0.000300   0.000448
     7  C    0.004467  -0.008949  -0.091072   0.000011   0.000158   0.000009
     8  O   -0.030039  -0.041651  -0.001100  -0.000002  -0.000004  -0.000002
     9  C    0.400906   0.414027   0.005379   0.000000   0.000001   0.000000
    10  C   -0.000064   0.005616   0.454608  -0.000254   0.001966  -0.000253
    11  N    0.000024  -0.000136  -0.022461   0.000317   0.011511   0.000322
    12  C    0.000037  -0.000234   0.006296  -0.037266  -0.071958  -0.037368
    13  C    0.000000  -0.000001  -0.000165   0.404488   0.430429   0.404618
    14  H   -0.000000  -0.000000   0.000000   0.000167  -0.000052   0.000168
    15  H    0.000000   0.000000  -0.000000   0.000141   0.000007  -0.000263
    16  H    0.000000  -0.000000  -0.000000  -0.000262   0.000007   0.000140
    17  H   -0.000114   0.000074  -0.000095   0.000001   0.000010   0.000001
    18  H   -0.018782  -0.054903  -0.000932  -0.000000   0.000000   0.000001
    19  H    0.518161  -0.018783   0.000018   0.000000  -0.000000   0.000000
    20  H   -0.018783   0.579141  -0.000932   0.000001   0.000000  -0.000000
    21  H    0.000018  -0.000932   0.510067   0.000006  -0.000277   0.000006
    22  H    0.000000   0.000001   0.000006   0.559415  -0.019753  -0.029365
    23  H   -0.000000   0.000000  -0.000277  -0.019753   0.523952  -0.019757
    24  H    0.000000  -0.000000   0.000006  -0.029365  -0.019757   0.559391
 Mulliken charges:
               1
     1  C   -0.197502
     2  O   -0.273294
     3  C    0.415820
     4  O   -0.376629
     5  C    0.011804
     6  C   -0.271091
     7  C    0.340517
     8  O   -0.281208
     9  C   -0.218902
    10  C   -0.132369
    11  N   -0.272570
    12  C    0.089917
    13  C   -0.320312
    14  H    0.131802
    15  H    0.135123
    16  H    0.135118
    17  H    0.169734
    18  H    0.126645
    19  H    0.144342
    20  H    0.126642
    21  H    0.142660
    22  H    0.118895
    23  H    0.135956
    24  H    0.118901
 Sum of Mulliken charges =  -0.00000
 Mulliken charges with hydrogens summed into heavy atoms:
               1
     1  C    0.204541
     2  O   -0.273294
     3  C    0.415820
     4  O   -0.376629
     5  C    0.011804
     6  C   -0.101357
     7  C    0.340517
     8  O   -0.281208
     9  C    0.178728
    10  C    0.010292
    11  N   -0.272570
    12  C    0.089917
    13  C    0.053440
 Electronic spatial extent (au):  <R**2>=           2926.2161
 Charge=              0.0000 electrons
 Dipole moment (field-independent basis, Debye):
    X=              0.4592    Y=              0.6266    Z=              0.0017  Tot=              0.7768
 Quadrupole moment (field-independent basis, Debye-Ang):
   XX=            -51.9499   YY=            -85.6452   ZZ=            -76.0510
   XY=             -3.2717   XZ=             -0.0025   YZ=             -0.0053
 Traceless Quadrupole moment (field-independent basis, Debye-Ang):
   XX=             19.2655   YY=            -14.4299   ZZ=             -4.8356
   XY=             -3.2717   XZ=             -0.0025   YZ=             -0.0053
 Octapole moment (field-independent basis, Debye-Ang**2):
  XXX=              8.8633  YYY=             -7.7262  ZZZ=              0.0002  XYY=             -0.1095
  XXY=             -5.3394  XXZ=              0.0175  XZZ=             -6.0694  YZZ=             -4.9512
  YYZ=              0.0128  XYZ=              0.0113
 Hexadecapole moment (field-independent basis, Debye-Ang**3):
 XXXX=          -2257.3305 YYYY=           -905.3219 ZZZZ=            -96.8575 XXXY=              3.1495
 XXXZ=             -0.0299 YYYX=            -48.7442 YYYZ=             -0.0186 ZZZX=              0.0054
 ZZZY=              0.0115 XXYY=           -624.1424 XXZZ=           -483.7210 YYZZ=           -159.3174
 XXYZ=             -0.0148 YYXZ=             -0.0274 ZZXY=              3.6519
 N-N= 7.872725537524D+02 E-N=-3.046349355350D+03  KE= 6.269687200353D+02
 Breneman (CHELPG) radii used.
 Read replacement radii for each type of atom:
 Atom Element Radius
    1     6    1.50
    2     8    1.70
    3     6    1.50
    4     8    1.70
    5     6    1.50
    6     6    1.50
    7     6    1.50
    8     8    1.70
    9     6    1.50
   10     6    1.50
   11     7    1.70
   12     6    1.50
   13     6    1.50
   14     1    1.45
   15     1    1.45
   16     1    1.45
   17     1    1.45
   18     1    1.45
   19     1    1.45
   20     1    1.45
   21     1    1.45
   22     1    1.45
   23     1    1.45
   24     1    1.45
 Generate Potential Derived Charges using the Breneman model, NDens= 1.
 Grid spacing= 0.300 Box extension= 2.800
 NStep X,Y,Z=   52     38     26   Total possible points=       51376
 Number of Points to Fit=   15341

 **********************************************************************

            Electrostatic Properties Using The SCF Density.

 **********************************************************************

       Atomic Center    1 is at  -4.075088 -0.639367  0.000727
       Atomic Center    2 is at  -2.810690  0.003082  0.000743
       Atomic Center    3 is at  -1.742036 -0.795845 -0.000244
       Atomic Center    4 is at  -1.830220 -1.997928 -0.001098
       Atomic Center    5 is at  -0.433950 -0.063776 -0.000156
       Atomic Center    6 is at   0.691588 -0.882792 -0.000052
       Atomic Center    7 is at   1.966683 -0.320006  0.000078
       Atomic Center    8 is at   3.017860 -1.161085  0.000209
       Atomic Center    9 is at   4.313353 -0.622140  0.000305
       Atomic Center   10 is at   2.045902  1.075781  0.000062
       Atomic Center   11 is at   0.970446  1.858384 -0.000114
       Atomic Center   12 is at  -0.257805  1.342974 -0.000216
       Atomic Center   13 is at  -1.377821  2.349537 -0.000466
       Atomic Center   14 is at  -4.823310  0.160837  0.001614
       Atomic Center   15 is at  -4.192036 -1.270500 -0.891703
       Atomic Center   16 is at  -4.191363 -1.271851  0.892287
       Atomic Center   17 is at   0.570773 -1.967157 -0.000083
       Atomic Center   18 is at   4.501225 -0.008127 -0.897727
       Atomic Center   19 is at   5.006578 -1.471676  0.000378
       Atomic Center   20 is at   4.501078 -0.008089  0.898343
       Atomic Center   21 is at   3.011890  1.589704  0.000169
       Atomic Center   22 is at  -2.023552  2.234640  0.881002
       Atomic Center   23 is at  -0.931121  3.350817 -0.000921
       Atomic Center   24 is at  -2.023849  2.233956 -0.881622
   15341 points will be used for fitting atomic charges
 Fitting point charges to electrostatic potential
 Charges from ESP fit, RMS=   0.00277 RRMS=   0.20907:
 ESP charges:
               1
     1  C   -0.092396
     2  O   -0.263326
     3  C    0.724143
     4  O   -0.521121
     5  C   -0.397915
     6  C    0.011566
     7  C    0.158071
     8  O   -0.325081
     9  C    0.102387
    10  C    0.203240
    11  N   -0.608192
    12  C    0.526963
    13  C   -0.230260
    14  H    0.100315
    15  H    0.082376
    16  H    0.082335
    17  H    0.101508
    18  H    0.019573
    19  H    0.066358
    20  H    0.019570
    21  H    0.069351
    22  H    0.050766
    23  H    0.069029
    24  H    0.050740
 Sum of ESP charges =   0.00000
 ESP charges with hydrogens summed into heavy atoms:
               1
     1  C    0.172629
     2  O   -0.263326
     3  C    0.724143
     4  O   -0.521121
     5  C   -0.397915
     6  C    0.113074
     7  C    0.158071
     8  O   -0.325081
     9  C    0.207888
    10  C    0.272591
    11  N   -0.608192
    12  C    0.526963
    13  C   -0.059725
 Charge=   0.00000 Dipole=     0.4771     0.6435     0.0018 Tot=     0.8011
 -----------------------------------------------------------------

              Electrostatic Properties (Atomic Units)

 -----------------------------------------------------------------
    Center     Electric         -------- Electric Field --------
               Potential          X             Y             Z
 -----------------------------------------------------------------
    1 Atom    -14.709302
    2 Atom    -22.306290
    3 Atom    -14.637556
    4 Atom    -22.379842
    5 Atom    -14.742852
    6 Atom    -14.752659
    7 Atom    -14.697495
    8 Atom    -22.313666
    9 Atom    -14.704556
   10 Atom    -14.731321
   11 Atom    -18.398556
   12 Atom    -14.720537
   13 Atom    -14.778901
   14 Atom     -1.097691
   15 Atom     -1.101524
   16 Atom     -1.101525
   17 Atom     -1.091027
   18 Atom     -1.097060
   19 Atom     -1.095985
   20 Atom     -1.097060
   21 Atom     -1.094064
   22 Atom     -1.118651
   23 Atom     -1.126437
   24 Atom     -1.118650
 -----------------------------------------------------------------
 Unable to Open any file for archive entry.
 1\1\GINC-NOTCH305\SP\RwB97XD\def2TZVP\C9H11N1O3\U6053008\12-Jul-2024\0
 \\#N Guess=Read Geom=Check Integral(Ultrafine) Density Pop=(ChelpG,Rea
 dRadii) NMR wB97XD def2TZVP\\12356206_4\\0,1\C,0,-4.0750667934,-0.6395
 62918,0.0007129179\O,0,-2.8106893609,0.0029283357,0.0007296337\C,0,-1.
 7420089028,-0.7959625956,-0.0002575266\O,0,-1.8301526608,-1.9980485795
 ,-0.0011116767\C,0,-0.4339473181,-0.0638502135,-0.0001697129\C,0,0.691
 6182372,-0.8828285377,-0.0000658479\C,0,1.9666944255,-0.3200001212,0.0
 000640635\O,0,3.0178986582,-1.161044154,0.0001958947\C,0,4.3133739797,
 -0.6220567307,0.0002913897\C,0,2.0458662405,1.0757888898,0.0000479991\
 N,0,0.9703847749,1.8583567713,-0.000127234\C,0,-0.2578492625,1.3429056
 077,-0.0002296575\C,0,-1.3778992507,2.3494306969,-0.0004791425\H,0,-4.
 8233151778,0.1606162358,0.0016003317\H,0,-4.1919934441,-1.270699839,-0
 .8917168566\H,0,-4.1913198734,-1.2720508494,0.8922739011\H,0,0.5708387
 436,-1.9671982993,-0.0000963424\H,0,4.5012257829,-0.008036616,-0.89774
 07499\H,0,5.0066270647,-1.471569506,0.0003648924\H,0,4.5010786393,-0.0
 079992449,0.8983295944\H,0,3.0118373787,1.5897444541,0.0001558228\H,0,
 -2.0236262424,2.2345130107,0.8809881596\H,0,-0.9312325099,3.3507258329
 ,-0.0009346354\H,0,-2.0239231286,2.23382837,-0.8816352181\\Version=ES6
 4L-G16RevC.01\State=1-A\HF=-630.0326228\RMSD=2.014e-09\Dipole=0.180662
 8,0.2465128,0.0006698\Quadrupole=14.3235564,-10.7284133,-3.5951431,-2.
 4315897,-0.0018703,-0.0039405\PG=C01 [X(C9H11N1O3)]\\@
 The archive entry for this job was punched.


 REPARTEE - WHAT YOU THINK OF AFTER YOU BECOME A DEPARTEE.
 Job cpu time:       0 days  0 hours 44 minutes 53.4 seconds.
 Elapsed time:       0 days  0 hours  2 minutes 56.9 seconds.
 File lengths (MBytes):  RWF=    141 Int=      0 D2E=      0 Chk=     21 Scr=      2
 Normal termination of Gaussian 16 at Fri Jul 12 13:25:56 2024.
