 Entering Gaussian System, Link 0=g16
 Input=12365813_15.com
 Output=12365813_15.log
 Initial command:
 /uufs/chpc.utah.edu/sys/installdir/gaussian16/C01/AVX/g16/l1.exe "/scratch/general/vast/u6053008/1287169-notchpeak.peaks/Gau-2358712.inp" -scrdir="/scratch/general/vast/u6053008/1287169-notchpeak.peaks/"
 Entering Link 1 = /uufs/chpc.utah.edu/sys/installdir/gaussian16/C01/AVX/g16/l1.exe PID=   2358713.
  
 Copyright (c) 1988-2019, Gaussian, Inc.  All Rights Reserved.
  
 This is part of the Gaussian(R) 16 program.  It is based on
 the Gaussian(R) 09 system (copyright 2009, Gaussian, Inc.),
 the Gaussian(R) 03 system (copyright 2003, Gaussian, Inc.),
 the Gaussian(R) 98 system (copyright 1998, Gaussian, Inc.),
 the Gaussian(R) 94 system (copyright 1995, Gaussian, Inc.),
 the Gaussian 92(TM) system (copyright 1992, Gaussian, Inc.),
 the Gaussian 90(TM) system (copyright 1990, Gaussian, Inc.),
 the Gaussian 88(TM) system (copyright 1988, Gaussian, Inc.),
 the Gaussian 86(TM) system (copyright 1986, Carnegie Mellon
 University), and the Gaussian 82(TM) system (copyright 1983,
 Carnegie Mellon University). Gaussian is a federally registered
 trademark of Gaussian, Inc.
  
 This software contains proprietary and confidential information,
 including trade secrets, belonging to Gaussian, Inc.
  
 This software is provided under written license and may be
 used, copied, transmitted, or stored only in accord with that
 written license.
  
 The following legend is applicable only to US Government
 contracts under FAR:
  
                    RESTRICTED RIGHTS LEGEND
  
 Use, reproduction and disclosure by the US Government is
 subject to restrictions as set forth in subparagraphs (a)
 and (c) of the Commercial Computer Software - Restricted
 Rights clause in FAR 52.227-19.
  
 Gaussian, Inc.
 340 Quinnipiac St., Bldg. 40, Wallingford CT 06492
  
  
 ---------------------------------------------------------------
 Warning -- This program may not be used in any manner that
 competes with the business of Gaussian, Inc. or will provide
 assistance to any competitor of Gaussian, Inc.  The licensee
 of this program is prohibited from giving any competitor of
 Gaussian, Inc. access to this program.  By using this program,
 the user acknowledges that Gaussian, Inc. is engaged in the
 business of creating and licensing software in the field of
 computational chemistry and represents and warrants to the
 licensee that it is not a competitor of Gaussian, Inc. and that
 it will not use this program in any manner prohibited above.
 ---------------------------------------------------------------
  

 Cite this work as:
 Gaussian 16, Revision C.01,
 M. J. Frisch, G. W. Trucks, H. B. Schlegel, G. E. Scuseria, 
 M. A. Robb, J. R. Cheeseman, G. Scalmani, V. Barone, 
 G. A. Petersson, H. Nakatsuji, X. Li, M. Caricato, A. V. Marenich, 
 J. Bloino, B. G. Janesko, R. Gomperts, B. Mennucci, H. P. Hratchian, 
 J. V. Ortiz, A. F. Izmaylov, J. L. Sonnenberg, D. Williams-Young, 
 F. Ding, F. Lipparini, F. Egidi, J. Goings, B. Peng, A. Petrone, 
 T. Henderson, D. Ranasinghe, V. G. Zakrzewski, J. Gao, N. Rega, 
 G. Zheng, W. Liang, M. Hada, M. Ehara, K. Toyota, R. Fukuda, 
 J. Hasegawa, M. Ishida, T. Nakajima, Y. Honda, O. Kitao, H. Nakai, 
 T. Vreven, K. Throssell, J. A. Montgomery, Jr., J. E. Peralta, 
 F. Ogliaro, M. J. Bearpark, J. J. Heyd, E. N. Brothers, K. N. Kudin, 
 V. N. Staroverov, T. A. Keith, R. Kobayashi, J. Normand, 
 K. Raghavachari, A. P. Rendell, J. C. Burant, S. S. Iyengar, 
 J. Tomasi, M. Cossi, J. M. Millam, M. Klene, C. Adamo, R. Cammi, 
 J. W. Ochterski, R. L. Martin, K. Morokuma, O. Farkas, 
 J. B. Foresman, and D. J. Fox, Gaussian, Inc., Wallingford CT, 2019.
 
 ******************************************
 Gaussian 16:  ES64L-G16RevC.01  3-Jul-2019
                12-Jul-2024 
 ******************************************
 %NProcShared=16
 Will use up to   16 processors via shared memory.
 %Mem=32GB
 %chk=12365813_15.chk
 ------------------------------------------------------
 #N OPT FREQ=NORAMAN Integral(Ultrafine) wB97XD def2SVP
 ------------------------------------------------------
 1/18=20,19=15,26=4,38=1/1,3;
 2/9=110,12=2,17=6,18=5,40=1/2;
 3/5=43,7=101,11=2,25=1,30=1,71=1,74=-58,75=-5/1,2,3;
 4//1;
 5/5=2,38=5/2;
 6/7=2,8=2,9=2,10=2,28=1/1;
 7//1,2,3,16;
 1/18=20,19=15,26=4/3(2);
 2/9=110/2;
 99//99;
 2/9=110/2;
 3/5=43,7=101,11=2,25=1,30=1,71=1,74=-58,75=-5/1,2,3;
 4/5=5,16=3,69=1/1;
 5/5=2,38=5/2;
 7//1,2,3,16;
 1/18=20,19=15,26=4/3(-5);
 2/9=110/2;
 6/7=2,8=2,9=2,10=2,19=2,28=1/1;
 99/9=1/99;
 -----------
 12365813_15
 -----------
 Symbolic Z-matrix:
 Charge =  0 Multiplicity = 1
 O                     0.1278    2.28008  -1.15306 
 C                     0.60666   1.883     0.10526 
 C                    -0.54774   1.60459   1.0987 
 C                    -1.44548   0.47269   0.67164 
 C                    -2.49983   0.69219  -0.22101 
 C                    -3.2862   -0.36544  -0.67331 
 C                    -3.02843  -1.66429  -0.23755 
 C                    -1.98216  -1.89654   0.65377 
 C                    -1.19883  -0.83571   1.10296 
 C                     1.47789   0.66229  -0.07531 
 C                     2.45227   0.33162   0.86554 
 C                     3.18026  -0.84345   0.70581 
 C                     2.90524  -1.64498  -0.4016 
 N                     1.98581  -1.33843  -1.31296 
 C                     1.29141  -0.21462  -1.1498 
 H                    -0.45899   3.03167  -1.03552 
 H                     1.2324    2.68194   0.5518 
 H                    -1.13227   2.53438   1.21127 
 H                    -0.10844   1.39291   2.08607 
 H                    -2.70842   1.70629  -0.571 
 H                    -4.10477  -0.17408  -1.37072 
 H                    -3.64242  -2.49476  -0.59253 
 H                    -1.7706   -2.91096   0.99848 
 H                    -0.37079  -1.02683   1.79087 
 H                     2.64163   0.98947   1.71945 
 H                     3.95172  -1.13284   1.42169 
 H                     3.4587   -2.57763  -0.55839 
 H                     0.53862   0.02075  -1.90687 
 

 GradGradGradGradGradGradGradGradGradGradGradGradGradGradGradGradGradGrad
 Berny optimization.
 Initialization pass.
                           ----------------------------
                           !    Initial Parameters    !
                           ! (Angstroms and Degrees)  !
 --------------------------                            --------------------------
 ! Name  Definition              Value          Derivative Info.                !
 --------------------------------------------------------------------------------
 ! R1    R(1,2)                  1.4037         estimate D2E/DX2                !
 ! R2    R(1,16)                 0.9607         estimate D2E/DX2                !
 ! R3    R(2,3)                  1.5482         estimate D2E/DX2                !
 ! R4    R(2,10)                 1.5106         estimate D2E/DX2                !
 ! R5    R(2,17)                 1.1087         estimate D2E/DX2                !
 ! R6    R(3,4)                  1.5065         estimate D2E/DX2                !
 ! R7    R(3,18)                 1.104          estimate D2E/DX2                !
 ! R8    R(3,19)                 1.1012         estimate D2E/DX2                !
 ! R9    R(4,5)                  1.3988         estimate D2E/DX2                !
 ! R10   R(4,9)                  1.3996         estimate D2E/DX2                !
 ! R11   R(5,6)                  1.3934         estimate D2E/DX2                !
 ! R12   R(5,20)                 1.0929         estimate D2E/DX2                !
 ! R13   R(6,7)                  1.394          estimate D2E/DX2                !
 ! R14   R(6,21)                 1.0923         estimate D2E/DX2                !
 ! R15   R(7,8)                  1.3939         estimate D2E/DX2                !
 ! R16   R(7,22)                 1.0921         estimate D2E/DX2                !
 ! R17   R(8,9)                  1.3931         estimate D2E/DX2                !
 ! R18   R(8,23)                 1.0921         estimate D2E/DX2                !
 ! R19   R(9,24)                 1.0933         estimate D2E/DX2                !
 ! R20   R(10,11)                1.3943         estimate D2E/DX2                !
 ! R21   R(10,15)                1.3994         estimate D2E/DX2                !
 ! R22   R(11,12)                1.3915         estimate D2E/DX2                !
 ! R23   R(11,25)                1.0944         estimate D2E/DX2                !
 ! R24   R(12,13)                1.3944         estimate D2E/DX2                !
 ! R25   R(12,26)                1.0915         estimate D2E/DX2                !
 ! R26   R(13,14)                1.3304         estimate D2E/DX2                !
 ! R27   R(13,27)                1.0958         estimate D2E/DX2                !
 ! R28   R(14,15)                1.3311         estimate D2E/DX2                !
 ! R29   R(15,28)                1.0933         estimate D2E/DX2                !
 ! A1    A(2,1,16)             108.6621         estimate D2E/DX2                !
 ! A2    A(1,2,3)              111.821          estimate D2E/DX2                !
 ! A3    A(1,2,10)             108.5542         estimate D2E/DX2                !
 ! A4    A(1,2,17)             110.471          estimate D2E/DX2                !
 ! A5    A(3,2,10)             111.1879         estimate D2E/DX2                !
 ! A6    A(3,2,17)             106.9756         estimate D2E/DX2                !
 ! A7    A(10,2,17)            107.7558         estimate D2E/DX2                !
 ! A8    A(2,3,4)              113.4243         estimate D2E/DX2                !
 ! A9    A(2,3,18)             107.9841         estimate D2E/DX2                !
 ! A10   A(2,3,19)             108.2063         estimate D2E/DX2                !
 ! A11   A(4,3,18)             110.2532         estimate D2E/DX2                !
 ! A12   A(4,3,19)             110.3325         estimate D2E/DX2                !
 ! A13   A(18,3,19)            106.3603         estimate D2E/DX2                !
 ! A14   A(3,4,5)              120.8086         estimate D2E/DX2                !
 ! A15   A(3,4,9)              120.6654         estimate D2E/DX2                !
 ! A16   A(5,4,9)              118.4375         estimate D2E/DX2                !
 ! A17   A(4,5,6)              120.8922         estimate D2E/DX2                !
 ! A18   A(4,5,20)             119.5928         estimate D2E/DX2                !
 ! A19   A(6,5,20)             119.5148         estimate D2E/DX2                !
 ! A20   A(5,6,7)              120.0915         estimate D2E/DX2                !
 ! A21   A(5,6,21)             119.8163         estimate D2E/DX2                !
 ! A22   A(7,6,21)             120.0922         estimate D2E/DX2                !
 ! A23   A(6,7,8)              119.5974         estimate D2E/DX2                !
 ! A24   A(6,7,22)             120.1953         estimate D2E/DX2                !
 ! A25   A(8,7,22)             120.2073         estimate D2E/DX2                !
 ! A26   A(7,8,9)              120.0892         estimate D2E/DX2                !
 ! A27   A(7,8,23)             120.1326         estimate D2E/DX2                !
 ! A28   A(9,8,23)             119.7775         estimate D2E/DX2                !
 ! A29   A(4,9,8)              120.892          estimate D2E/DX2                !
 ! A30   A(4,9,24)             119.3924         estimate D2E/DX2                !
 ! A31   A(8,9,24)             119.7101         estimate D2E/DX2                !
 ! A32   A(2,10,11)            120.9349         estimate D2E/DX2                !
 ! A33   A(2,10,15)            121.4213         estimate D2E/DX2                !
 ! A34   A(11,10,15)           117.5579         estimate D2E/DX2                !
 ! A35   A(10,11,12)           119.2377         estimate D2E/DX2                !
 ! A36   A(10,11,25)           120.3221         estimate D2E/DX2                !
 ! A37   A(12,11,25)           120.4402         estimate D2E/DX2                !
 ! A38   A(11,12,13)           118.2541         estimate D2E/DX2                !
 ! A39   A(11,12,26)           121.2233         estimate D2E/DX2                !
 ! A40   A(13,12,26)           120.5217         estimate D2E/DX2                !
 ! A41   A(12,13,14)           123.2224         estimate D2E/DX2                !
 ! A42   A(12,13,27)           120.2154         estimate D2E/DX2                !
 ! A43   A(14,13,27)           116.562          estimate D2E/DX2                !
 ! A44   A(13,14,15)           118.1065         estimate D2E/DX2                !
 ! A45   A(10,15,14)           123.6188         estimate D2E/DX2                !
 ! A46   A(10,15,28)           119.2457         estimate D2E/DX2                !
 ! A47   A(14,15,28)           117.1355         estimate D2E/DX2                !
 ! D1    D(16,1,2,3)            54.3867         estimate D2E/DX2                !
 ! D2    D(16,1,2,10)          177.4154         estimate D2E/DX2                !
 ! D3    D(16,1,2,17)          -64.6369         estimate D2E/DX2                !
 ! D4    D(1,2,3,4)             62.5529         estimate D2E/DX2                !
 ! D5    D(1,2,3,18)           -59.9455         estimate D2E/DX2                !
 ! D6    D(1,2,3,19)          -174.6867         estimate D2E/DX2                !
 ! D7    D(10,2,3,4)           -58.9686         estimate D2E/DX2                !
 ! D8    D(10,2,3,18)          178.533          estimate D2E/DX2                !
 ! D9    D(10,2,3,19)           63.7919         estimate D2E/DX2                !
 ! D10   D(17,2,3,4)          -176.3751         estimate D2E/DX2                !
 ! D11   D(17,2,3,18)           61.1265         estimate D2E/DX2                !
 ! D12   D(17,2,3,19)          -53.6146         estimate D2E/DX2                !
 ! D13   D(1,2,10,11)          156.698          estimate D2E/DX2                !
 ! D14   D(1,2,10,15)          -26.7543         estimate D2E/DX2                !
 ! D15   D(3,2,10,11)          -79.8923         estimate D2E/DX2                !
 ! D16   D(3,2,10,15)           96.6554         estimate D2E/DX2                !
 ! D17   D(17,2,10,11)          37.0388         estimate D2E/DX2                !
 ! D18   D(17,2,10,15)        -146.4135         estimate D2E/DX2                !
 ! D19   D(2,3,4,5)            -84.2258         estimate D2E/DX2                !
 ! D20   D(2,3,4,9)             92.3018         estimate D2E/DX2                !
 ! D21   D(18,3,4,5)            37.0071         estimate D2E/DX2                !
 ! D22   D(18,3,4,9)          -146.4653         estimate D2E/DX2                !
 ! D23   D(19,3,4,5)           154.1956         estimate D2E/DX2                !
 ! D24   D(19,3,4,9)           -29.2768         estimate D2E/DX2                !
 ! D25   D(3,4,5,6)            176.5035         estimate D2E/DX2                !
 ! D26   D(3,4,5,20)            -3.3232         estimate D2E/DX2                !
 ! D27   D(9,4,5,6)             -0.0999         estimate D2E/DX2                !
 ! D28   D(9,4,5,20)          -179.9266         estimate D2E/DX2                !
 ! D29   D(3,4,9,8)           -176.5115         estimate D2E/DX2                !
 ! D30   D(3,4,9,24)             2.6296         estimate D2E/DX2                !
 ! D31   D(5,4,9,8)              0.0969         estimate D2E/DX2                !
 ! D32   D(5,4,9,24)           179.2381         estimate D2E/DX2                !
 ! D33   D(4,5,6,7)             -0.0042         estimate D2E/DX2                !
 ! D34   D(4,5,6,21)          -179.9665         estimate D2E/DX2                !
 ! D35   D(20,5,6,7)           179.8227         estimate D2E/DX2                !
 ! D36   D(20,5,6,21)           -0.1397         estimate D2E/DX2                !
 ! D37   D(5,6,7,8)              0.1129         estimate D2E/DX2                !
 ! D38   D(5,6,7,22)          -179.8763         estimate D2E/DX2                !
 ! D39   D(21,6,7,8)          -179.9248         estimate D2E/DX2                !
 ! D40   D(21,6,7,22)            0.086          estimate D2E/DX2                !
 ! D41   D(6,7,8,9)             -0.1159         estimate D2E/DX2                !
 ! D42   D(6,7,8,23)          -179.8157         estimate D2E/DX2                !
 ! D43   D(22,7,8,9)           179.8733         estimate D2E/DX2                !
 ! D44   D(22,7,8,23)            0.1735         estimate D2E/DX2                !
 ! D45   D(7,8,9,4)              0.0102         estimate D2E/DX2                !
 ! D46   D(7,8,9,24)          -179.1283         estimate D2E/DX2                !
 ! D47   D(23,8,9,4)           179.7111         estimate D2E/DX2                !
 ! D48   D(23,8,9,24)            0.5727         estimate D2E/DX2                !
 ! D49   D(2,10,11,12)         176.1729         estimate D2E/DX2                !
 ! D50   D(2,10,11,25)          -3.8335         estimate D2E/DX2                !
 ! D51   D(15,10,11,12)         -0.5041         estimate D2E/DX2                !
 ! D52   D(15,10,11,25)        179.4895         estimate D2E/DX2                !
 ! D53   D(2,10,15,14)        -176.3518         estimate D2E/DX2                !
 ! D54   D(2,10,15,28)           3.692          estimate D2E/DX2                !
 ! D55   D(11,10,15,14)          0.3082         estimate D2E/DX2                !
 ! D56   D(11,10,15,28)       -179.6481         estimate D2E/DX2                !
 ! D57   D(10,11,12,13)          0.2493         estimate D2E/DX2                !
 ! D58   D(10,11,12,26)        179.8888         estimate D2E/DX2                !
 ! D59   D(25,11,12,13)       -179.7443         estimate D2E/DX2                !
 ! D60   D(25,11,12,26)         -0.1048         estimate D2E/DX2                !
 ! D61   D(11,12,13,14)          0.2464         estimate D2E/DX2                !
 ! D62   D(11,12,13,27)       -179.9522         estimate D2E/DX2                !
 ! D63   D(26,12,13,14)       -179.3957         estimate D2E/DX2                !
 ! D64   D(26,12,13,27)          0.4056         estimate D2E/DX2                !
 ! D65   D(12,13,14,15)         -0.4529         estimate D2E/DX2                !
 ! D66   D(27,13,14,15)        179.739          estimate D2E/DX2                !
 ! D67   D(13,14,15,10)          0.1672         estimate D2E/DX2                !
 ! D68   D(13,14,15,28)       -179.8757         estimate D2E/DX2                !
 --------------------------------------------------------------------------------
 Trust Radius=3.00D-01 FncErr=1.00D-07 GrdErr=1.00D-06 EigMax=2.50D+02 EigMin=1.00D-04
 Number of steps in this run=    154 maximum allowed number of steps=    168.
 GradGradGradGradGradGradGradGradGradGradGradGradGradGradGradGradGradGrad

                          Input orientation:                          
 ---------------------------------------------------------------------
 Center     Atomic      Atomic             Coordinates (Angstroms)
 Number     Number       Type             X           Y           Z
 ---------------------------------------------------------------------
      1          8           0        0.127800    2.280080   -1.153060
      2          6           0        0.606660    1.883000    0.105260
      3          6           0       -0.547740    1.604590    1.098700
      4          6           0       -1.445480    0.472690    0.671640
      5          6           0       -2.499830    0.692190   -0.221010
      6          6           0       -3.286200   -0.365440   -0.673310
      7          6           0       -3.028430   -1.664290   -0.237550
      8          6           0       -1.982160   -1.896540    0.653770
      9          6           0       -1.198830   -0.835710    1.102960
     10          6           0        1.477890    0.662290   -0.075310
     11          6           0        2.452270    0.331620    0.865540
     12          6           0        3.180260   -0.843450    0.705810
     13          6           0        2.905240   -1.644980   -0.401600
     14          7           0        1.985810   -1.338430   -1.312960
     15          6           0        1.291410   -0.214620   -1.149800
     16          1           0       -0.458990    3.031670   -1.035520
     17          1           0        1.232400    2.681940    0.551800
     18          1           0       -1.132270    2.534380    1.211270
     19          1           0       -0.108440    1.392910    2.086070
     20          1           0       -2.708420    1.706290   -0.571000
     21          1           0       -4.104770   -0.174080   -1.370720
     22          1           0       -3.642420   -2.494760   -0.592530
     23          1           0       -1.770600   -2.910960    0.998480
     24          1           0       -0.370790   -1.026830    1.790870
     25          1           0        2.641630    0.989470    1.719450
     26          1           0        3.951720   -1.132840    1.421690
     27          1           0        3.458700   -2.577630   -0.558390
     28          1           0        0.538620    0.020750   -1.906870
 ---------------------------------------------------------------------
                    Distance matrix (angstroms):
                    1          2          3          4          5
     1  O    0.000000
     2  C    1.403691   0.000000
     3  C    2.446030   1.548249   0.000000
     4  C    3.011876   2.553633   1.506491   0.000000
     5  C    3.208512   3.342867   2.526809   1.398806   0.000000
     6  C    4.345611   4.562457   3.810538   2.428910   1.393389
     7  C    5.134004   5.090645   4.315665   2.810523   2.415096
     8  C    5.016046   4.613868   3.809650   2.429320   2.781141
     9  C    4.069118   3.412709   2.525668   1.399566   2.404158
    10  C    2.366756   1.510556   2.523768   3.023239   3.980500
    11  C    3.643405   2.528059   3.267243   3.905119   5.082706
    12  C    4.746509   3.797052   4.477192   4.809456   5.956560
    13  C    4.866720   4.241111   4.973296   4.956323   5.891499
    14  N    4.070796   3.780346   4.571252   4.358044   5.043485
    15  C    2.752731   2.538517   3.427499   3.358661   4.007300
    16  H    0.960742   1.938152   2.568916   3.230470   3.209614
    17  H    2.070792   1.108717   2.151437   3.473642   4.299521
    18  H    2.691190   2.161349   1.104018   2.154035   2.704683
    19  H    3.366726   2.162213   1.101223   2.152927   3.395935
    20  H    2.951639   3.387965   2.732541   2.158921   1.092887
    21  H    4.897441   5.348614   4.681257   3.414875   2.155943
    22  H    6.109652   6.140552   5.407585   3.902618   3.405905
    23  H    5.931268   5.425058   4.679276   3.414911   3.873193
    24  H    4.455443   3.501971   2.726680   2.157822   3.396395
    25  H    4.029433   2.746836   3.306930   4.250816   5.503487
    26  H    5.735828   4.692303   5.276645   5.680675   6.903021
    27  H    5.919956   5.335896   6.023991   5.904948   6.805118
    28  H    2.416935   2.742494   3.566816   3.284755   3.539087
                    6          7          8          9         10
     6  C    0.000000
     7  C    1.394039   0.000000
     8  C    2.409550   1.393941   0.000000
     9  C    2.780900   2.414736   1.393104   0.000000
    10  C    4.910233   5.074073   4.364758   3.285902   0.000000
    11  C    5.981972   5.936206   4.967264   3.840515   1.394259
    12  C    6.629146   6.333367   5.268993   4.397069   2.403220
    13  C    6.328110   5.935969   5.006373   4.445448   2.732634
    14  N    5.399069   5.138608   4.463664   4.028812   2.406791
    15  C    4.604813   4.647016   4.098534   3.414963   1.399384
    16  H    4.434486   5.412099   5.427799   4.480746   3.207408
    17  H    5.586158   6.137382   5.595201   4.311440   2.128971
    18  H    4.074311   4.829424   4.546006   3.372487   3.460194
    19  H    4.561155   4.824109   4.047566   2.668746   2.778815
    20  H    2.153221   3.402118   3.874003   3.397465   4.342906
    21  H    1.092271   2.159469   3.401603   3.873156   5.791692
    22  H    2.160422   1.092097   2.160462   3.405623   6.037554
    23  H    3.401705   2.159651   1.092076   2.155110   4.947103
    24  H    3.874175   3.403512   2.155436   1.093342   3.123039
    25  H    6.534543   6.559106   5.553752   4.296565   2.163909
    26  H    7.573996   7.194304   6.031904   5.168950   3.403430
    27  H    7.099343   6.558962   5.615708   5.242800   3.828062
    28  H    4.037333   4.283671   4.072740   3.579292   2.156018
                   11         12         13         14         15
    11  C    0.000000
    12  C    1.391500   0.000000
    13  C    2.391187   1.394433   0.000000
    14  N    2.784334   2.397321   1.330376   0.000000
    15  C    2.389052   2.721483   2.282582   1.331075   0.000000
    16  H    4.402242   5.594008   5.795770   5.015156   3.689900
    17  H    2.666556   4.030664   4.735990   4.495368   3.359908
    18  H    4.221446   5.501194   6.030745   5.576093   4.359573
    19  H    3.028740   4.209747   4.949701   4.837304   3.874866
    20  H    5.530469   6.542780   6.540098   5.644167   4.474768
    21  H    6.946320   7.604715   7.227931   6.201146   5.400853
    22  H    6.874565   7.138731   6.605334   5.790776   5.463723
    23  H    5.325845   5.373199   5.042461   4.682544   4.610994
    24  H    3.266694   3.717652   3.990164   3.909529   3.474210
    25  H    1.094434   2.162680   3.392443   3.878753   3.391979
    26  H    2.168478   1.091504   2.163745   3.374223   3.812209
    27  H    3.391786   2.164050   1.095782   2.067462   3.260480
    28  H    3.383039   3.814604   3.262113   2.072307   1.093273
                   16         17         18         19         20
    16  H    0.000000
    17  H    2.345783   0.000000
    18  H    2.397638   2.459337   0.000000
    19  H    3.542985   2.411107   1.765349   0.000000
    20  H    2.651857   4.212201   2.519220   3.730700   0.000000
    21  H    4.866303   6.351245   4.778931   5.511398   2.474901
    22  H    6.393113   7.202193   5.903118   5.897278   4.303678
    23  H    6.416567   6.363809   5.486754   4.740140   4.966062
    24  H    4.946482   4.226167   3.687547   2.451757   4.302661
    25  H    4.623233   2.492748   4.109418   2.803580   5.863704
    26  H    6.544875   4.764867   6.272139   4.827599   7.509257
    27  H    6.858585   5.818248   7.095164   5.956748   7.509028
    28  H    3.289394   3.688946   4.339701   4.271426   3.894722
                   21         22         23         24         25
    21  H    0.000000
    22  H    2.490964   0.000000
    23  H    4.307200   2.491635   0.000000
    24  H    4.966431   4.305691   2.477357   0.000000
    25  H    7.511119   7.548138   5.933037   3.625637   0.000000
    26  H    8.580432   7.973887   6.007143   4.339542   2.511811
    27  H    7.977657   7.101686   5.466309   4.752788   4.310494
    28  H    4.678300   5.053353   4.729533   3.949396   4.302472
                   26         27         28
    26  H    0.000000
    27  H    2.500241   0.000000
    28  H    4.905031   4.134833   0.000000
 Stoichiometry    C13H13NO
 Framework group  C1[X(C13H13NO)]
 Deg. of freedom    78
 Full point group                 C1      NOp   1
 Largest Abelian subgroup         C1      NOp   1
 Largest concise Abelian subgroup C1      NOp   1
                         Standard orientation:                         
 ---------------------------------------------------------------------
 Center     Atomic      Atomic             Coordinates (Angstroms)
 Number     Number       Type             X           Y           Z
 ---------------------------------------------------------------------
      1          8           0        0.127801    2.280080   -1.153060
      2          6           0        0.606661    1.883000    0.105260
      3          6           0       -0.547739    1.604589    1.098700
      4          6           0       -1.445478    0.472689    0.671640
      5          6           0       -2.499828    0.692189   -0.221010
      6          6           0       -3.286198   -0.365442   -0.673310
      7          6           0       -3.028427   -1.664292   -0.237550
      8          6           0       -1.982157   -1.896541    0.653770
      9          6           0       -1.198828   -0.835711    1.102960
     10          6           0        1.477892    0.662290   -0.075310
     11          6           0        2.452272    0.331621    0.865540
     12          6           0        3.180262   -0.843449    0.705810
     13          6           0        2.905243   -1.644979   -0.401600
     14          7           0        1.985812   -1.338430   -1.312960
     15          6           0        1.291412   -0.214620   -1.149800
     16          1           0       -0.458989    3.031669   -1.035520
     17          1           0        1.232401    2.681940    0.551800
     18          1           0       -1.132269    2.534379    1.211270
     19          1           0       -0.108439    1.392910    2.086070
     20          1           0       -2.708419    1.706289   -0.571000
     21          1           0       -4.104768   -0.174082   -1.370720
     22          1           0       -3.642417   -2.494762   -0.592530
     23          1           0       -1.770597   -2.910961    0.998480
     24          1           0       -0.370788   -1.026831    1.790870
     25          1           0        2.641631    0.989471    1.719450
     26          1           0        3.951722   -1.132839    1.421690
     27          1           0        3.458703   -2.577629   -0.558390
     28          1           0        0.538622    0.020750   -1.906870
 ---------------------------------------------------------------------
 Rotational constants (GHZ):           0.9629477           0.4880512           0.3993639
 Standard basis: def2SVP (5D, 7F)
 There are   290 symmetry adapted cartesian basis functions of A   symmetry.
 There are   275 symmetry adapted basis functions of A   symmetry.
   275 basis functions,   466 primitive gaussians,   290 cartesian basis functions
    53 alpha electrons       53 beta electrons
       nuclear repulsion energy       944.7464207275 Hartrees.
 NAtoms=   28 NActive=   28 NUniq=   28 SFac= 1.00D+00 NAtFMM=   60 NAOKFM=F Big=F
 Integral buffers will be    131072 words long.
 Raffenetti 2 integral format.
 Two-electron integral symmetry is turned on.
 Nuclear repulsion after empirical dispersion term =      944.7259430738 Hartrees.
 One-electron integrals computed using PRISM.
   1 Symmetry operations used in ECPInt.
 ECPInt:  NShTT=    8385 NPrTT=   30369 LenC2=    8110 LenP2D=   21811.
 LDataN:  DoStor=T MaxTD1= 4 Len=   56
 NBasis=   275 RedAO= T EigKep=  2.75D-04  NBF=   275
 NBsUse=   275 1.00D-06 EigRej= -1.00D+00 NBFU=   275
 ExpMin= 1.22D-01 ExpMax= 2.27D+03 ExpMxC= 3.41D+02 IAcc=3 IRadAn=         5 AccDes= 0.00D+00
 Harris functional with IExCor= 4639 and IRadAn=       5 diagonalized for initial guess.
 HarFok:  IExCor= 4639 AccDes= 0.00D+00 IRadAn=         5 IDoV= 1 UseB2=F ITyADJ=14
 ICtDFT=  3500011 ScaDFX=  1.000000  1.000000  1.000000  1.000000
 FoFCou: FMM=F IPFlag=           0 FMFlag=      100000 FMFlg1=           0
         NFxFlg=           0 DoJE=T BraDBF=F KetDBF=T FulRan=T
         wScrn=  0.000000 ICntrl=       500 IOpCl=  0 I1Cent=   200000004 NGrid=           0
         NMat0=    1 NMatS0=      1 NMatT0=    0 NMatD0=    1 NMtDS0=    0 NMtDT0=    0
 Petite list used in FoFCou.
 Requested convergence on RMS density matrix=1.00D-08 within 128 cycles.
 Requested convergence on MAX density matrix=1.00D-06.
 Requested convergence on             energy=1.00D-06.
 No special actions if energy rises.
 Integral accuracy reduced to 1.0D-05 until final iterations.
 Initial convergence to 1.0D-05 achieved.  Increase integral accuracy.
 SCF Done:  E(RwB97XD) =  -632.517949619     A.U. after   15 cycles
            NFock= 15  Conv=0.36D-08     -V/T= 2.0108

 **********************************************************************

            Population analysis using the SCF Density.

 **********************************************************************

 Orbital symmetries:
       Occupied  (A) (A) (A) (A) (A) (A) (A) (A) (A) (A) (A) (A)
                 (A) (A) (A) (A) (A) (A) (A) (A) (A) (A) (A) (A)
                 (A) (A) (A) (A) (A) (A) (A) (A) (A) (A) (A) (A)
                 (A) (A) (A) (A) (A) (A) (A) (A) (A) (A) (A) (A)
                 (A) (A) (A) (A) (A)
       Virtual   (A) (A) (A) (A) (A) (A) (A) (A) (A) (A) (A) (A)
                 (A) (A) (A) (A) (A) (A) (A) (A) (A) (A) (A) (A)
                 (A) (A) (A) (A) (A) (A) (A) (A) (A) (A) (A) (A)
                 (A) (A) (A) (A) (A) (A) (A) (A) (A) (A) (A) (A)
                 (A) (A) (A) (A) (A) (A) (A) (A) (A) (A) (A) (A)
                 (A) (A) (A) (A) (A) (A) (A) (A) (A) (A) (A) (A)
                 (A) (A) (A) (A) (A) (A) (A) (A) (A) (A) (A) (A)
                 (A) (A) (A) (A) (A) (A) (A) (A) (A) (A) (A) (A)
                 (A) (A) (A) (A) (A) (A) (A) (A) (A) (A) (A) (A)
                 (A) (A) (A) (A) (A) (A) (A) (A) (A) (A) (A) (A)
                 (A) (A) (A) (A) (A) (A) (A) (A) (A) (A) (A) (A)
                 (A) (A) (A) (A) (A) (A) (A) (A) (A) (A) (A) (A)
                 (A) (A) (A) (A) (A) (A) (A) (A) (A) (A) (A) (A)
                 (A) (A) (A) (A) (A) (A) (A) (A) (A) (A) (A) (A)
                 (A) (A) (A) (A) (A) (A) (A) (A) (A) (A) (A) (A)
                 (A) (A) (A) (A) (A) (A) (A) (A) (A) (A) (A) (A)
                 (A) (A) (A) (A) (A) (A) (A) (A) (A) (A) (A) (A)
                 (A) (A) (A) (A) (A) (A) (A) (A) (A) (A) (A) (A)
                 (A) (A) (A) (A) (A) (A)
 The electronic state is 1-A.
 Alpha  occ. eigenvalues --  -19.26550 -14.43220 -10.36458 -10.32937 -10.32504
 Alpha  occ. eigenvalues --  -10.31963 -10.31241 -10.31059 -10.30877 -10.30849
 Alpha  occ. eigenvalues --  -10.30144 -10.30100 -10.30036 -10.29986 -10.29958
 Alpha  occ. eigenvalues --   -1.12978  -1.03294  -0.95435  -0.91185  -0.87889
 Alpha  occ. eigenvalues --   -0.85491  -0.83613  -0.80783  -0.74789  -0.71979
 Alpha  occ. eigenvalues --   -0.69509  -0.69103  -0.66936  -0.61922  -0.61031
 Alpha  occ. eigenvalues --   -0.59291  -0.56384  -0.56021  -0.55241  -0.53874
 Alpha  occ. eigenvalues --   -0.53220  -0.51845  -0.50509  -0.49084  -0.48669
 Alpha  occ. eigenvalues --   -0.48231  -0.47126  -0.45512  -0.44263  -0.43202
 Alpha  occ. eigenvalues --   -0.42172  -0.41915  -0.37801  -0.36069  -0.33448
 Alpha  occ. eigenvalues --   -0.32765  -0.32469  -0.32110
 Alpha virt. eigenvalues --    0.04255   0.05465   0.06114   0.06502   0.11706
 Alpha virt. eigenvalues --    0.14355   0.15031   0.16759   0.18198   0.19330
 Alpha virt. eigenvalues --    0.19797   0.20796   0.21098   0.21859   0.22470
 Alpha virt. eigenvalues --    0.22913   0.23918   0.24208   0.25356   0.28596
 Alpha virt. eigenvalues --    0.29037   0.30019   0.31590   0.35065   0.36533
 Alpha virt. eigenvalues --    0.36981   0.37536   0.39048   0.39926   0.40546
 Alpha virt. eigenvalues --    0.40947   0.43547   0.45179   0.46543   0.47850
 Alpha virt. eigenvalues --    0.49235   0.49853   0.50983   0.51941   0.52726
 Alpha virt. eigenvalues --    0.53394   0.54846   0.56145   0.57033   0.57955
 Alpha virt. eigenvalues --    0.58292   0.58955   0.59656   0.61206   0.61580
 Alpha virt. eigenvalues --    0.62468   0.63976   0.65227   0.66301   0.67362
 Alpha virt. eigenvalues --    0.68802   0.69743   0.70432   0.71359   0.71897
 Alpha virt. eigenvalues --    0.72463   0.73304   0.73760   0.74476   0.75489
 Alpha virt. eigenvalues --    0.76101   0.76130   0.76895   0.77096   0.77417
 Alpha virt. eigenvalues --    0.78451   0.79883   0.80956   0.81662   0.82101
 Alpha virt. eigenvalues --    0.83387   0.83747   0.84151   0.84857   0.85658
 Alpha virt. eigenvalues --    0.87665   0.88450   0.90707   0.92079   0.92631
 Alpha virt. eigenvalues --    0.97312   0.98254   0.98826   1.00431   1.03161
 Alpha virt. eigenvalues --    1.05007   1.07499   1.10581   1.12985   1.14264
 Alpha virt. eigenvalues --    1.15720   1.17698   1.18794   1.21807   1.27319
 Alpha virt. eigenvalues --    1.27801   1.29447   1.29958   1.33187   1.33994
 Alpha virt. eigenvalues --    1.34331   1.35122   1.36155   1.37653   1.38355
 Alpha virt. eigenvalues --    1.39623   1.41542   1.42565   1.43156   1.45414
 Alpha virt. eigenvalues --    1.48931   1.50550   1.51490   1.58539   1.61945
 Alpha virt. eigenvalues --    1.62234   1.64679   1.71559   1.74403   1.75541
 Alpha virt. eigenvalues --    1.76397   1.77785   1.79396   1.79816   1.81077
 Alpha virt. eigenvalues --    1.81628   1.82450   1.83297   1.83963   1.84245
 Alpha virt. eigenvalues --    1.85611   1.85786   1.86462   1.87027   1.87854
 Alpha virt. eigenvalues --    1.89941   1.90426   1.91685   1.94192   1.94856
 Alpha virt. eigenvalues --    1.96030   1.96366   1.97403   1.99361   2.00355
 Alpha virt. eigenvalues --    2.02862   2.03567   2.04017   2.05106   2.06639
 Alpha virt. eigenvalues --    2.06932   2.08224   2.09884   2.10876   2.12445
 Alpha virt. eigenvalues --    2.16179   2.18756   2.18983   2.20868   2.22940
 Alpha virt. eigenvalues --    2.24099   2.24853   2.25851   2.27501   2.27847
 Alpha virt. eigenvalues --    2.31606   2.33068   2.36392   2.37422   2.37967
 Alpha virt. eigenvalues --    2.38821   2.39835   2.41083   2.43559   2.45577
 Alpha virt. eigenvalues --    2.47005   2.49224   2.50519   2.54012   2.55736
 Alpha virt. eigenvalues --    2.58195   2.60664   2.62280   2.65900   2.69588
 Alpha virt. eigenvalues --    2.71020   2.72143   2.72516   2.73496   2.77872
 Alpha virt. eigenvalues --    2.80219   2.81034   2.81826   2.82261   2.91148
 Alpha virt. eigenvalues --    2.91834   2.95046   2.95782   2.97244   2.98222
 Alpha virt. eigenvalues --    2.98981   3.03672   3.06005   3.06674   3.10182
 Alpha virt. eigenvalues --    3.15146   3.16934   3.18224   3.21992   3.23638
 Alpha virt. eigenvalues --    3.27456   3.33974   3.43165   3.48270   3.72337
 Alpha virt. eigenvalues --    3.72806   3.87730
          Condensed to atoms (all electrons):
               1          2          3          4          5          6
     1  O    7.736630   0.369513  -0.056584  -0.016469   0.020426  -0.000502
     2  C    0.369513   4.679749   0.420875  -0.061898  -0.005048   0.000228
     3  C   -0.056584   0.420875   4.803303   0.346360  -0.082609   0.009388
     4  C   -0.016469  -0.061898   0.346360   5.301593   0.298227   0.068726
     5  C    0.020426  -0.005048  -0.082609   0.298227   5.078031   0.347582
     6  C   -0.000502   0.000228   0.009388   0.068726   0.347582   4.985340
     7  C    0.000038   0.000105  -0.000138  -0.138698   0.062432   0.327374
     8  C    0.000011   0.000159   0.008845   0.065333  -0.113645   0.058552
     9  C   -0.000775  -0.016442  -0.058846   0.339451   0.027025  -0.114956
    10  C   -0.086566   0.194799  -0.052205  -0.014865  -0.006363   0.000374
    11  C    0.003002  -0.059940  -0.009469   0.000615   0.000060  -0.000006
    12  C   -0.000125   0.007506   0.000003  -0.000036   0.000000   0.000001
    13  C    0.000007   0.000844   0.000103   0.000023  -0.000001  -0.000002
    14  N    0.000276   0.007101  -0.000041  -0.000367   0.000061  -0.000004
    15  C    0.008490  -0.041641  -0.019137   0.005000   0.001504  -0.000008
    16  H    0.322320  -0.026205  -0.001111  -0.003429   0.001297   0.000173
    17  H   -0.028524   0.396151  -0.053365   0.012154   0.000886  -0.000004
    18  H   -0.004596  -0.030737   0.377159  -0.021332  -0.011784   0.000817
    19  H    0.004560  -0.002170   0.345486  -0.015448   0.010662  -0.000419
    20  H    0.004439  -0.002205  -0.010709  -0.075154   0.442653  -0.056294
    21  H   -0.000022  -0.000007  -0.000231   0.014874  -0.063260   0.444123
    22  H    0.000000   0.000002   0.000016  -0.001444   0.012631  -0.063370
    23  H    0.000000  -0.000015  -0.000225   0.014773  -0.001763   0.012749
    24  H    0.000032  -0.002070  -0.011971  -0.068885   0.012963  -0.001676
    25  H    0.000072  -0.010939  -0.001944   0.000314   0.000003  -0.000000
    26  H    0.000001  -0.000169   0.000006  -0.000004  -0.000000  -0.000000
    27  H   -0.000000   0.000069   0.000000  -0.000001   0.000000  -0.000000
    28  H    0.013946  -0.007460  -0.001566   0.001154   0.001000   0.000202
               7          8          9         10         11         12
     1  O    0.000038   0.000011  -0.000775  -0.086566   0.003002  -0.000125
     2  C    0.000105   0.000159  -0.016442   0.194799  -0.059940   0.007506
     3  C   -0.000138   0.008845  -0.058846  -0.052205  -0.009469   0.000003
     4  C   -0.138698   0.065333   0.339451  -0.014865   0.000615  -0.000036
     5  C    0.062432  -0.113645   0.027025  -0.006363   0.000060   0.000000
     6  C    0.327374   0.058552  -0.114956   0.000374  -0.000006   0.000001
     7  C    5.042452   0.326481   0.062021  -0.000158  -0.000000  -0.000001
     8  C    0.326481   4.981855   0.348364  -0.000324   0.000156  -0.000063
     9  C    0.062021   0.348364   5.025836   0.004530  -0.000025  -0.000643
    10  C   -0.000158  -0.000324   0.004530   5.520916   0.411597   0.005865
    11  C   -0.000000   0.000156  -0.000025   0.411597   4.911474   0.435532
    12  C   -0.000001  -0.000063  -0.000643   0.005865   0.435532   4.947367
    13  C   -0.000000   0.000110   0.000356  -0.068631  -0.007969   0.442909
    14  N   -0.000012  -0.000095  -0.000262  -0.034851  -0.053018  -0.037744
    15  C   -0.000243   0.000909   0.000245   0.417292  -0.031661  -0.054684
    16  H   -0.000008  -0.000005  -0.000066   0.013029  -0.000409   0.000016
    17  H    0.000002   0.000011  -0.000127  -0.049636  -0.005876   0.000580
    18  H   -0.000015  -0.000449   0.006612   0.013471   0.000022   0.000012
    19  H    0.000001   0.000899  -0.012754  -0.011015   0.004707  -0.000502
    20  H    0.013244  -0.001485   0.012131  -0.000068   0.000003   0.000000
    21  H   -0.066702   0.012539  -0.001617   0.000004  -0.000000   0.000000
    22  H    0.443789  -0.062898   0.012613  -0.000001  -0.000000   0.000000
    23  H   -0.067395   0.445703  -0.063403  -0.000011   0.000007  -0.000002
    24  H    0.013045  -0.058873   0.444497   0.001032   0.001233   0.000914
    25  H   -0.000000   0.000002   0.000015  -0.062654   0.438933  -0.052294
    26  H    0.000000  -0.000001  -0.000009   0.012842  -0.058382   0.422196
    27  H    0.000000  -0.000004   0.000006   0.001168   0.006314  -0.068501
    28  H    0.000177  -0.000107  -0.000271  -0.066990   0.006019   0.000778
              13         14         15         16         17         18
     1  O    0.000007   0.000276   0.008490   0.322320  -0.028524  -0.004596
     2  C    0.000844   0.007101  -0.041641  -0.026205   0.396151  -0.030737
     3  C    0.000103  -0.000041  -0.019137  -0.001111  -0.053365   0.377159
     4  C    0.000023  -0.000367   0.005000  -0.003429   0.012154  -0.021332
     5  C   -0.000001   0.000061   0.001504   0.001297   0.000886  -0.011784
     6  C   -0.000002  -0.000004  -0.000008   0.000173  -0.000004   0.000817
     7  C   -0.000000  -0.000012  -0.000243  -0.000008   0.000002  -0.000015
     8  C    0.000110  -0.000095   0.000909  -0.000005   0.000011  -0.000449
     9  C    0.000356  -0.000262   0.000245  -0.000066  -0.000127   0.006612
    10  C   -0.068631  -0.034851   0.417292   0.013029  -0.049636   0.013471
    11  C   -0.007969  -0.053018  -0.031661  -0.000409  -0.005876   0.000022
    12  C    0.442909  -0.037744  -0.054684   0.000016   0.000580   0.000012
    13  C    4.753727   0.523537  -0.063035   0.000000  -0.000066  -0.000001
    14  N    0.523537   6.279828   0.522023  -0.000008  -0.000106   0.000002
    15  C   -0.063035   0.522023   4.736889  -0.000179   0.009315  -0.000207
    16  H    0.000000  -0.000008  -0.000179   0.518953  -0.006069   0.004870
    17  H   -0.000066  -0.000106   0.009315  -0.006069   0.713252  -0.008329
    18  H   -0.000001   0.000002  -0.000207   0.004870  -0.008329   0.665519
    19  H    0.000041  -0.000017   0.000450   0.000039  -0.001906  -0.023332
    20  H   -0.000000   0.000002   0.000101   0.001445   0.000103   0.003797
    21  H   -0.000000   0.000000  -0.000007   0.000002  -0.000001  -0.000001
    22  H   -0.000000  -0.000000  -0.000003  -0.000000   0.000000  -0.000001
    23  H    0.000020   0.000008   0.000027   0.000000  -0.000000   0.000008
    24  H    0.000279  -0.000063  -0.000961  -0.000005  -0.000014   0.000124
    25  H    0.009160  -0.000403   0.009313  -0.000018   0.005383  -0.000098
    26  H   -0.044688   0.005626  -0.000028  -0.000000  -0.000018  -0.000000
    27  H    0.423352  -0.038454   0.004243   0.000000  -0.000003   0.000000
    28  H    0.004190  -0.033876   0.431596  -0.000871   0.000620  -0.000061
              19         20         21         22         23         24
     1  O    0.004560   0.004439  -0.000022   0.000000   0.000000   0.000032
     2  C   -0.002170  -0.002205  -0.000007   0.000002  -0.000015  -0.002070
     3  C    0.345486  -0.010709  -0.000231   0.000016  -0.000225  -0.011971
     4  C   -0.015448  -0.075154   0.014874  -0.001444   0.014773  -0.068885
     5  C    0.010662   0.442653  -0.063260   0.012631  -0.001763   0.012963
     6  C   -0.000419  -0.056294   0.444123  -0.063370   0.012749  -0.001676
     7  C    0.000001   0.013244  -0.066702   0.443789  -0.067395   0.013045
     8  C    0.000899  -0.001485   0.012539  -0.062898   0.445703  -0.058873
     9  C   -0.012754   0.012131  -0.001617   0.012613  -0.063403   0.444497
    10  C   -0.011015  -0.000068   0.000004  -0.000001  -0.000011   0.001032
    11  C    0.004707   0.000003  -0.000000  -0.000000   0.000007   0.001233
    12  C   -0.000502   0.000000   0.000000   0.000000  -0.000002   0.000914
    13  C    0.000041  -0.000000  -0.000000  -0.000000   0.000020   0.000279
    14  N   -0.000017   0.000002   0.000000  -0.000000   0.000008  -0.000063
    15  C    0.000450   0.000101  -0.000007  -0.000003   0.000027  -0.000961
    16  H    0.000039   0.001445   0.000002  -0.000000   0.000000  -0.000005
    17  H   -0.001906   0.000103  -0.000001   0.000000  -0.000000  -0.000014
    18  H   -0.023332   0.003797  -0.000001  -0.000001   0.000008   0.000124
    19  H    0.667639   0.000364   0.000006  -0.000001  -0.000004   0.004341
    20  H    0.000364   0.689733  -0.012476  -0.000233   0.000025  -0.000224
    21  H    0.000006  -0.012476   0.665187  -0.011133  -0.000223   0.000023
    22  H   -0.000001  -0.000233  -0.011133   0.659721  -0.011125  -0.000219
    23  H   -0.000004   0.000025  -0.000223  -0.011125   0.662593  -0.011988
    24  H    0.004341  -0.000224   0.000023  -0.000219  -0.011988   0.671205
    25  H    0.001859   0.000000   0.000000   0.000000   0.000000  -0.000041
    26  H   -0.000008  -0.000000  -0.000000   0.000000  -0.000000   0.000029
    27  H   -0.000000   0.000000  -0.000000   0.000000  -0.000000   0.000005
    28  H   -0.000065   0.000026   0.000003  -0.000000  -0.000004   0.000010
              25         26         27         28
     1  O    0.000072   0.000001  -0.000000   0.013946
     2  C   -0.010939  -0.000169   0.000069  -0.007460
     3  C   -0.001944   0.000006   0.000000  -0.001566
     4  C    0.000314  -0.000004  -0.000001   0.001154
     5  C    0.000003  -0.000000   0.000000   0.001000
     6  C   -0.000000  -0.000000  -0.000000   0.000202
     7  C   -0.000000   0.000000   0.000000   0.000177
     8  C    0.000002  -0.000001  -0.000004  -0.000107
     9  C    0.000015  -0.000009   0.000006  -0.000271
    10  C   -0.062654   0.012842   0.001168  -0.066990
    11  C    0.438933  -0.058382   0.006314   0.006019
    12  C   -0.052294   0.422196  -0.068501   0.000778
    13  C    0.009160  -0.044688   0.423352   0.004190
    14  N   -0.000403   0.005626  -0.038454  -0.033876
    15  C    0.009313  -0.000028   0.004243   0.431596
    16  H   -0.000018  -0.000000   0.000000  -0.000871
    17  H    0.005383  -0.000018  -0.000003   0.000620
    18  H   -0.000098  -0.000000   0.000000  -0.000061
    19  H    0.001859  -0.000008  -0.000000  -0.000065
    20  H    0.000000  -0.000000   0.000000   0.000026
    21  H    0.000000  -0.000000  -0.000000   0.000003
    22  H    0.000000   0.000000   0.000000  -0.000000
    23  H    0.000000  -0.000000  -0.000000  -0.000004
    24  H   -0.000041   0.000029   0.000005   0.000010
    25  H    0.655871  -0.010603  -0.000264  -0.000196
    26  H   -0.010603   0.652766  -0.005988   0.000053
    27  H   -0.000264  -0.005988   0.643748  -0.000255
    28  H   -0.000196   0.000053  -0.000255   0.607263
 Mulliken charges:
               1
     1  O   -0.289599
     2  C    0.189846
     3  C    0.048605
     4  C   -0.050567
     5  C   -0.032969
     6  C   -0.018389
     7  C   -0.017788
     8  C   -0.011981
     9  C   -0.013506
    10  C   -0.142581
    11  C    0.007079
    12  C   -0.049086
    13  C    0.025734
    14  N   -0.139144
    15  C    0.064396
    16  H    0.176238
    17  H    0.015584
    18  H    0.028531
    19  H    0.026589
    20  H   -0.009220
    21  H    0.018917
    22  H    0.021654
    23  H    0.020246
    24  H    0.007257
    25  H    0.018526
    26  H    0.026378
    27  H    0.034566
    28  H    0.044685
 Sum of Mulliken charges =  -0.00000
 Mulliken charges with hydrogens summed into heavy atoms:
               1
     1  O   -0.113360
     2  C    0.205430
     3  C    0.103725
     4  C   -0.050567
     5  C   -0.042189
     6  C    0.000527
     7  C    0.003866
     8  C    0.008264
     9  C   -0.006248
    10  C   -0.142581
    11  C    0.025604
    12  C   -0.022707
    13  C    0.060301
    14  N   -0.139144
    15  C    0.109082
 Electronic spatial extent (au):  <R**2>=           2983.4718
 Charge=             -0.0000 electrons
 Dipole moment (field-independent basis, Debye):
    X=             -0.3897    Y=              2.1705    Z=              2.6703  Tot=              3.4631
 Quadrupole moment (field-independent basis, Debye-Ang):
   XX=            -83.7813   YY=            -78.1070   ZZ=            -90.9254
   XY=             -1.7982   XZ=             10.1589   YZ=             -1.3583
 Traceless Quadrupole moment (field-independent basis, Debye-Ang):
   XX=              0.4900   YY=              6.1643   ZZ=             -6.6542
   XY=             -1.7982   XZ=             10.1589   YZ=             -1.3583
 Octapole moment (field-independent basis, Debye-Ang**2):
  XXX=             12.0212  YYY=             30.4440  ZZZ=              2.6296  XYY=            -12.0947
  XXY=             -7.6648  XXZ=             -3.8192  XZZ=              0.1188  YZZ=              8.7722
  YYZ=              4.7238  XYZ=             -0.6021
 Hexadecapole moment (field-independent basis, Debye-Ang**3):
 XXXX=          -2436.9832 YYYY=           -949.4896 ZZZZ=           -505.4685 XXXY=            -37.1037
 XXXZ=            113.2734 YYYX=            -22.7402 YYYZ=            -35.3393 ZZZX=             32.3435
 ZZZY=            -16.3885 XXYY=           -542.8579 XXZZ=           -501.0244 YYZZ=           -276.0531
 XXYZ=             -4.4210 YYXZ=             23.8086 ZZXY=              4.7284
 N-N= 9.447259430738D+02 E-N=-3.357043993987D+03  KE= 6.257785568166D+02
   1 Symmetry operations used in ECPInt.
 ECPInt:  NShTT=    8385 NPrTT=   30369 LenC2=    8110 LenP2D=   21811.
 LDataN:  DoStor=T MaxTD1= 5 Len=  102
 Calling FoFJK, ICntrl=      2127 FMM=F ISym2X=0 I1Cent= 0 IOpClX= 0 NMat=1 NMatS=1 NMatT=0.
 ***** Axes restored to original set *****
 -------------------------------------------------------------------
 Center     Atomic                   Forces (Hartrees/Bohr)
 Number     Number              X              Y              Z
 -------------------------------------------------------------------
      1        8          -0.000005737    0.000010619    0.000003560
      2        6           0.000004055   -0.000004105   -0.000000671
      3        6          -0.000000758    0.000010528    0.000000886
      4        6           0.000001239   -0.000008236    0.000005932
      5        6          -0.000004657   -0.000001040   -0.000005345
      6        6           0.000005945   -0.000000063    0.000006184
      7        6          -0.000003663    0.000004688   -0.000003283
      8        6           0.000001059   -0.000001590    0.000001349
      9        6           0.000005174    0.000002307    0.000002319
     10        6          -0.000007486    0.000009860   -0.000001998
     11        6           0.000004906   -0.000008874   -0.000002661
     12        6          -0.000006839    0.000002572    0.000000518
     13        6           0.000007183    0.000009233   -0.000007939
     14        7           0.000002688   -0.000003055    0.000000433
     15        6          -0.000005533   -0.000005099    0.000004766
     16        1           0.000000939   -0.000006137   -0.000001438
     17        1           0.000000236   -0.000000161    0.000000754
     18        1           0.000001210   -0.000001541   -0.000001306
     19        1           0.000003232   -0.000005101    0.000002379
     20        1          -0.000000191    0.000000092   -0.000000438
     21        1          -0.000003118    0.000000371   -0.000001159
     22        1          -0.000001042   -0.000002556   -0.000000915
     23        1           0.000001785   -0.000003452    0.000000721
     24        1          -0.000001340   -0.000000106   -0.000001824
     25        1          -0.000000486    0.000000501    0.000001113
     26        1           0.000002819    0.000000693    0.000001830
     27        1          -0.000001828   -0.000002330   -0.000000374
     28        1           0.000000205    0.000001982   -0.000003396
 -------------------------------------------------------------------
 Cartesian Forces:  Max     0.000010619 RMS     0.000004093

 GradGradGradGradGradGradGradGradGradGradGradGradGradGradGradGradGradGrad
 Berny optimization.
 FormGI is forming the generalized inverse of G from B-inverse, IUseBI=4.
 Internal  Forces:  Max     0.000008978 RMS     0.000002147
 Search for a local minimum.
 Step number   1 out of a maximum of  154
 All quantities printed in internal units (Hartrees-Bohrs-Radians)
 Mixed Optimization -- En-DIIS/RFO-DIIS
 Second derivative matrix not updated -- first step.
 ITU=  0
     Eigenvalues ---    0.00230   0.00626   0.00680   0.01515   0.01529
     Eigenvalues ---    0.01643   0.02109   0.02135   0.02142   0.02147
     Eigenvalues ---    0.02160   0.02168   0.02171   0.02172   0.02175
     Eigenvalues ---    0.02176   0.02186   0.02204   0.02260   0.02315
     Eigenvalues ---    0.02507   0.03965   0.05003   0.05358   0.05419
     Eigenvalues ---    0.07898   0.09421   0.12921   0.15998   0.16000
     Eigenvalues ---    0.16000   0.16000   0.16000   0.16000   0.16000
     Eigenvalues ---    0.16000   0.16000   0.16000   0.17729   0.20172
     Eigenvalues ---    0.21951   0.22000   0.22000   0.22000   0.23202
     Eigenvalues ---    0.23430   0.23457   0.24953   0.24954   0.27801
     Eigenvalues ---    0.31295   0.31706   0.32736   0.33242   0.33547
     Eigenvalues ---    0.34153   0.34305   0.34429   0.34437   0.34481
     Eigenvalues ---    0.34551   0.34571   0.34574   0.34639   0.42089
     Eigenvalues ---    0.42135   0.42305   0.44530   0.45014   0.45948
     Eigenvalues ---    0.46133   0.46235   0.46657   0.46758   0.46760
     Eigenvalues ---    0.55314   0.56969   0.58419
 RFO step:  Lambda= 0.00000000D+00 EMin= 2.30000000D-03
 Linear search not attempted -- first point.
 Iteration  1 RMS(Cart)=  0.00016293 RMS(Int)=  0.00000001
 Iteration  2 RMS(Cart)=  0.00000001 RMS(Int)=  0.00000000
 Variable       Old X    -DE/DX   Delta X   Delta X   Delta X     New X
                                 (Linear)    (Quad)   (Total)
    R1        2.65259   0.00000   0.00000   0.00000   0.00000   2.65260
    R2        1.81554  -0.00001   0.00000  -0.00001  -0.00001   1.81553
    R3        2.92577  -0.00000   0.00000  -0.00001  -0.00001   2.92576
    R4        2.85454  -0.00000   0.00000  -0.00001  -0.00001   2.85453
    R5        2.09517   0.00000   0.00000   0.00000   0.00000   2.09517
    R6        2.84686   0.00000   0.00000   0.00001   0.00001   2.84687
    R7        2.08629  -0.00000   0.00000  -0.00001  -0.00001   2.08629
    R8        2.08101   0.00000   0.00000   0.00001   0.00001   2.08102
    R9        2.64336   0.00001   0.00000   0.00001   0.00001   2.64337
   R10        2.64480  -0.00000   0.00000  -0.00000  -0.00000   2.64479
   R11        2.63312  -0.00000   0.00000  -0.00001  -0.00001   2.63312
   R12        2.06526   0.00000   0.00000   0.00000   0.00000   2.06526
   R13        2.63435  -0.00000   0.00000  -0.00000  -0.00000   2.63435
   R14        2.06409   0.00000   0.00000   0.00001   0.00001   2.06410
   R15        2.63417   0.00001   0.00000   0.00001   0.00001   2.63418
   R16        2.06376   0.00000   0.00000   0.00001   0.00001   2.06377
   R17        2.63258   0.00000   0.00000   0.00001   0.00001   2.63259
   R18        2.06373   0.00000   0.00000   0.00001   0.00001   2.06373
   R19        2.06612  -0.00000   0.00000  -0.00001  -0.00001   2.06611
   R20        2.63477   0.00000   0.00000   0.00001   0.00001   2.63477
   R21        2.64445   0.00000   0.00000   0.00001   0.00001   2.64446
   R22        2.62955  -0.00001   0.00000  -0.00001  -0.00001   2.62954
   R23        2.06818   0.00000   0.00000   0.00000   0.00000   2.06818
   R24        2.63510  -0.00000   0.00000  -0.00000  -0.00000   2.63509
   R25        2.06264   0.00000   0.00000   0.00001   0.00001   2.06265
   R26        2.51405  -0.00000   0.00000  -0.00000  -0.00000   2.51405
   R27        2.07073   0.00000   0.00000   0.00000   0.00000   2.07073
   R28        2.51537   0.00000   0.00000   0.00001   0.00001   2.51538
   R29        2.06599   0.00000   0.00000   0.00001   0.00001   2.06599
    A1        1.89651   0.00000   0.00000   0.00002   0.00002   1.89653
    A2        1.95165  -0.00000   0.00000  -0.00001  -0.00001   1.95164
    A3        1.89463   0.00000   0.00000   0.00003   0.00003   1.89466
    A4        1.92808  -0.00000   0.00000   0.00000   0.00000   1.92808
    A5        1.94059  -0.00000   0.00000  -0.00000  -0.00000   1.94059
    A6        1.86708   0.00000   0.00000  -0.00002  -0.00002   1.86706
    A7        1.88069  -0.00000   0.00000  -0.00001  -0.00001   1.88069
    A8        1.97963   0.00000   0.00000  -0.00000  -0.00000   1.97962
    A9        1.88468  -0.00000   0.00000  -0.00002  -0.00002   1.88466
   A10        1.88856   0.00000   0.00000  -0.00000  -0.00000   1.88856
   A11        1.92428   0.00000   0.00000   0.00001   0.00001   1.92429
   A12        1.92567  -0.00000   0.00000  -0.00002  -0.00002   1.92565
   A13        1.85634   0.00000   0.00000   0.00003   0.00003   1.85637
   A14        2.10851  -0.00000   0.00000  -0.00001  -0.00001   2.10850
   A15        2.10601   0.00000   0.00000   0.00001   0.00001   2.10602
   A16        2.06712   0.00000   0.00000   0.00000   0.00000   2.06713
   A17        2.10997  -0.00000   0.00000  -0.00000  -0.00000   2.10996
   A18        2.08729   0.00000   0.00000   0.00000   0.00000   2.08729
   A19        2.08593  -0.00000   0.00000  -0.00000  -0.00000   2.08592
   A20        2.09599   0.00000   0.00000   0.00001   0.00001   2.09600
   A21        2.09119  -0.00000   0.00000  -0.00000  -0.00000   2.09119
   A22        2.09600  -0.00000   0.00000  -0.00000  -0.00000   2.09600
   A23        2.08737  -0.00000   0.00000  -0.00000  -0.00000   2.08737
   A24        2.09780   0.00000   0.00000   0.00000   0.00000   2.09780
   A25        2.09801  -0.00000   0.00000  -0.00000  -0.00000   2.09801
   A26        2.09595  -0.00000   0.00000  -0.00000  -0.00000   2.09595
   A27        2.09671   0.00000   0.00000   0.00000   0.00000   2.09671
   A28        2.09051   0.00000   0.00000  -0.00000  -0.00000   2.09051
   A29        2.10996  -0.00000   0.00000  -0.00000  -0.00000   2.10996
   A30        2.08379   0.00000   0.00000   0.00000   0.00000   2.08379
   A31        2.08933   0.00000   0.00000   0.00000   0.00000   2.08934
   A32        2.11071  -0.00001   0.00000  -0.00002  -0.00002   2.11069
   A33        2.11920   0.00001   0.00000   0.00004   0.00004   2.11924
   A34        2.05177  -0.00000   0.00000  -0.00001  -0.00001   2.05176
   A35        2.08109   0.00000   0.00000   0.00002   0.00002   2.08111
   A36        2.10002  -0.00000   0.00000  -0.00001  -0.00001   2.10001
   A37        2.10208  -0.00000   0.00000  -0.00001  -0.00001   2.10207
   A38        2.06392  -0.00000   0.00000  -0.00001  -0.00001   2.06392
   A39        2.11574  -0.00000   0.00000  -0.00001  -0.00001   2.11574
   A40        2.10350   0.00000   0.00000   0.00001   0.00001   2.10351
   A41        2.15064   0.00000   0.00000  -0.00000  -0.00000   2.15064
   A42        2.09815   0.00000   0.00000   0.00000   0.00000   2.09816
   A43        2.03439  -0.00000   0.00000  -0.00000  -0.00000   2.03439
   A44        2.06135   0.00000   0.00000   0.00001   0.00001   2.06135
   A45        2.15755  -0.00000   0.00000  -0.00000  -0.00000   2.15755
   A46        2.08123   0.00000   0.00000   0.00001   0.00001   2.08124
   A47        2.04440  -0.00000   0.00000  -0.00000  -0.00000   2.04440
    D1        0.94923  -0.00000   0.00000  -0.00009  -0.00009   0.94913
    D2        3.09648  -0.00000   0.00000  -0.00008  -0.00008   3.09640
    D3       -1.12813  -0.00000   0.00000  -0.00007  -0.00007  -1.12820
    D4        1.09175   0.00000   0.00000   0.00005   0.00005   1.09181
    D5       -1.04625   0.00000   0.00000   0.00006   0.00006  -1.04619
    D6       -3.04886   0.00000   0.00000   0.00003   0.00003  -3.04883
    D7       -1.02920  -0.00000   0.00000   0.00002   0.00002  -1.02918
    D8        3.11599  -0.00000   0.00000   0.00002   0.00002   3.11601
    D9        1.11338  -0.00000   0.00000  -0.00001  -0.00001   1.11337
   D10       -3.07833   0.00000   0.00000   0.00004   0.00004  -3.07829
   D11        1.06686   0.00000   0.00000   0.00004   0.00004   1.06690
   D12       -0.93575  -0.00000   0.00000   0.00001   0.00001  -0.93574
   D13        2.73490   0.00000   0.00000   0.00012   0.00012   2.73501
   D14       -0.46695   0.00000   0.00000   0.00010   0.00010  -0.46685
   D15       -1.39438   0.00000   0.00000   0.00013   0.00013  -1.39426
   D16        1.68695   0.00000   0.00000   0.00011   0.00011   1.68707
   D17        0.64645  -0.00000   0.00000   0.00010   0.00010   0.64655
   D18       -2.55540  -0.00000   0.00000   0.00009   0.00009  -2.55531
   D19       -1.47002   0.00000   0.00000   0.00019   0.00019  -1.46983
   D20        1.61097   0.00000   0.00000   0.00016   0.00016   1.61113
   D21        0.64590   0.00000   0.00000   0.00017   0.00017   0.64606
   D22       -2.55630  -0.00000   0.00000   0.00014   0.00014  -2.55616
   D23        2.69122   0.00000   0.00000   0.00020   0.00020   2.69142
   D24       -0.51098   0.00000   0.00000   0.00018   0.00018  -0.51080
   D25        3.08057   0.00000   0.00000   0.00002   0.00002   3.08059
   D26       -0.05800   0.00000   0.00000   0.00002   0.00002  -0.05798
   D27       -0.00174   0.00000   0.00000   0.00004   0.00004  -0.00170
   D28       -3.14031   0.00000   0.00000   0.00005   0.00005  -3.14026
   D29       -3.08071  -0.00000   0.00000  -0.00002  -0.00002  -3.08072
   D30        0.04590   0.00000   0.00000   0.00001   0.00001   0.04590
   D31        0.00169  -0.00000   0.00000  -0.00004  -0.00004   0.00165
   D32        3.12829  -0.00000   0.00000  -0.00002  -0.00002   3.12827
   D33       -0.00007  -0.00000   0.00000  -0.00002  -0.00002  -0.00009
   D34       -3.14101  -0.00000   0.00000  -0.00001  -0.00001  -3.14102
   D35        3.13850  -0.00000   0.00000  -0.00002  -0.00002   3.13847
   D36       -0.00244  -0.00000   0.00000  -0.00002  -0.00002  -0.00246
   D37        0.00197  -0.00000   0.00000  -0.00001  -0.00001   0.00196
   D38       -3.13943   0.00000   0.00000   0.00001   0.00001  -3.13942
   D39       -3.14028  -0.00000   0.00000  -0.00001  -0.00001  -3.14030
   D40        0.00150   0.00000   0.00000   0.00000   0.00000   0.00150
   D41       -0.00202   0.00000   0.00000   0.00001   0.00001  -0.00201
   D42       -3.13838   0.00000   0.00000   0.00001   0.00001  -3.13836
   D43        3.13938  -0.00000   0.00000  -0.00001  -0.00001   3.13938
   D44        0.00303  -0.00000   0.00000  -0.00000  -0.00000   0.00302
   D45        0.00018   0.00000   0.00000   0.00001   0.00001   0.00019
   D46       -3.12638  -0.00000   0.00000  -0.00001  -0.00001  -3.12638
   D47        3.13655   0.00000   0.00000   0.00001   0.00001   3.13656
   D48        0.01000  -0.00000   0.00000  -0.00001  -0.00001   0.00999
   D49        3.07480   0.00000   0.00000   0.00006   0.00006   3.07485
   D50       -0.06691   0.00000   0.00000   0.00006   0.00006  -0.06684
   D51       -0.00880   0.00000   0.00000   0.00007   0.00007  -0.00873
   D52        3.13268   0.00000   0.00000   0.00008   0.00008   3.13276
   D53       -3.07792  -0.00000   0.00000  -0.00012  -0.00012  -3.07804
   D54        0.06444   0.00000   0.00000   0.00006   0.00006   0.06450
   D55        0.00538  -0.00000   0.00000  -0.00013  -0.00013   0.00524
   D56       -3.13545   0.00000   0.00000   0.00004   0.00004  -3.13541
   D57        0.00435   0.00000   0.00000   0.00006   0.00006   0.00441
   D58        3.13965   0.00000   0.00000   0.00001   0.00001   3.13966
   D59       -3.13713   0.00000   0.00000   0.00005   0.00005  -3.13708
   D60       -0.00183   0.00000   0.00000   0.00000   0.00000  -0.00183
   D61        0.00430  -0.00000   0.00000  -0.00014  -0.00014   0.00416
   D62       -3.14076   0.00000   0.00000   0.00006   0.00006  -3.14069
   D63       -3.13105  -0.00000   0.00000  -0.00010  -0.00010  -3.13114
   D64        0.00708   0.00000   0.00000   0.00011   0.00011   0.00719
   D65       -0.00790   0.00000   0.00000   0.00009   0.00009  -0.00782
   D66        3.13704  -0.00000   0.00000  -0.00011  -0.00011   3.13692
   D67        0.00292   0.00000   0.00000   0.00006   0.00006   0.00297
   D68       -3.13942  -0.00000   0.00000  -0.00012  -0.00012  -3.13954
         Item               Value     Threshold  Converged?
 Maximum Force            0.000009     0.000450     YES
 RMS     Force            0.000002     0.000300     YES
 Maximum Displacement     0.000623     0.001800     YES
 RMS     Displacement     0.000163     0.001200     YES
 Predicted change in Energy=-3.852414D-09
 Optimization completed.
    -- Stationary point found.
                           ----------------------------
                           !   Optimized Parameters   !
                           ! (Angstroms and Degrees)  !
 --------------------------                            --------------------------
 ! Name  Definition              Value          Derivative Info.                !
 --------------------------------------------------------------------------------
 ! R1    R(1,2)                  1.4037         -DE/DX =    0.0                 !
 ! R2    R(1,16)                 0.9607         -DE/DX =    0.0                 !
 ! R3    R(2,3)                  1.5482         -DE/DX =    0.0                 !
 ! R4    R(2,10)                 1.5106         -DE/DX =    0.0                 !
 ! R5    R(2,17)                 1.1087         -DE/DX =    0.0                 !
 ! R6    R(3,4)                  1.5065         -DE/DX =    0.0                 !
 ! R7    R(3,18)                 1.104          -DE/DX =    0.0                 !
 ! R8    R(3,19)                 1.1012         -DE/DX =    0.0                 !
 ! R9    R(4,5)                  1.3988         -DE/DX =    0.0                 !
 ! R10   R(4,9)                  1.3996         -DE/DX =    0.0                 !
 ! R11   R(5,6)                  1.3934         -DE/DX =    0.0                 !
 ! R12   R(5,20)                 1.0929         -DE/DX =    0.0                 !
 ! R13   R(6,7)                  1.394          -DE/DX =    0.0                 !
 ! R14   R(6,21)                 1.0923         -DE/DX =    0.0                 !
 ! R15   R(7,8)                  1.3939         -DE/DX =    0.0                 !
 ! R16   R(7,22)                 1.0921         -DE/DX =    0.0                 !
 ! R17   R(8,9)                  1.3931         -DE/DX =    0.0                 !
 ! R18   R(8,23)                 1.0921         -DE/DX =    0.0                 !
 ! R19   R(9,24)                 1.0933         -DE/DX =    0.0                 !
 ! R20   R(10,11)                1.3943         -DE/DX =    0.0                 !
 ! R21   R(10,15)                1.3994         -DE/DX =    0.0                 !
 ! R22   R(11,12)                1.3915         -DE/DX =    0.0                 !
 ! R23   R(11,25)                1.0944         -DE/DX =    0.0                 !
 ! R24   R(12,13)                1.3944         -DE/DX =    0.0                 !
 ! R25   R(12,26)                1.0915         -DE/DX =    0.0                 !
 ! R26   R(13,14)                1.3304         -DE/DX =    0.0                 !
 ! R27   R(13,27)                1.0958         -DE/DX =    0.0                 !
 ! R28   R(14,15)                1.3311         -DE/DX =    0.0                 !
 ! R29   R(15,28)                1.0933         -DE/DX =    0.0                 !
 ! A1    A(2,1,16)             108.6621         -DE/DX =    0.0                 !
 ! A2    A(1,2,3)              111.821          -DE/DX =    0.0                 !
 ! A3    A(1,2,10)             108.5542         -DE/DX =    0.0                 !
 ! A4    A(1,2,17)             110.471          -DE/DX =    0.0                 !
 ! A5    A(3,2,10)             111.1879         -DE/DX =    0.0                 !
 ! A6    A(3,2,17)             106.9756         -DE/DX =    0.0                 !
 ! A7    A(10,2,17)            107.7558         -DE/DX =    0.0                 !
 ! A8    A(2,3,4)              113.4243         -DE/DX =    0.0                 !
 ! A9    A(2,3,18)             107.9841         -DE/DX =    0.0                 !
 ! A10   A(2,3,19)             108.2063         -DE/DX =    0.0                 !
 ! A11   A(4,3,18)             110.2532         -DE/DX =    0.0                 !
 ! A12   A(4,3,19)             110.3325         -DE/DX =    0.0                 !
 ! A13   A(18,3,19)            106.3603         -DE/DX =    0.0                 !
 ! A14   A(3,4,5)              120.8086         -DE/DX =    0.0                 !
 ! A15   A(3,4,9)              120.6654         -DE/DX =    0.0                 !
 ! A16   A(5,4,9)              118.4375         -DE/DX =    0.0                 !
 ! A17   A(4,5,6)              120.8922         -DE/DX =    0.0                 !
 ! A18   A(4,5,20)             119.5928         -DE/DX =    0.0                 !
 ! A19   A(6,5,20)             119.5148         -DE/DX =    0.0                 !
 ! A20   A(5,6,7)              120.0915         -DE/DX =    0.0                 !
 ! A21   A(5,6,21)             119.8163         -DE/DX =    0.0                 !
 ! A22   A(7,6,21)             120.0922         -DE/DX =    0.0                 !
 ! A23   A(6,7,8)              119.5974         -DE/DX =    0.0                 !
 ! A24   A(6,7,22)             120.1953         -DE/DX =    0.0                 !
 ! A25   A(8,7,22)             120.2073         -DE/DX =    0.0                 !
 ! A26   A(7,8,9)              120.0892         -DE/DX =    0.0                 !
 ! A27   A(7,8,23)             120.1326         -DE/DX =    0.0                 !
 ! A28   A(9,8,23)             119.7775         -DE/DX =    0.0                 !
 ! A29   A(4,9,8)              120.892          -DE/DX =    0.0                 !
 ! A30   A(4,9,24)             119.3924         -DE/DX =    0.0                 !
 ! A31   A(8,9,24)             119.7101         -DE/DX =    0.0                 !
 ! A32   A(2,10,11)            120.9349         -DE/DX =    0.0                 !
 ! A33   A(2,10,15)            121.4213         -DE/DX =    0.0                 !
 ! A34   A(11,10,15)           117.5579         -DE/DX =    0.0                 !
 ! A35   A(10,11,12)           119.2377         -DE/DX =    0.0                 !
 ! A36   A(10,11,25)           120.3221         -DE/DX =    0.0                 !
 ! A37   A(12,11,25)           120.4402         -DE/DX =    0.0                 !
 ! A38   A(11,12,13)           118.2541         -DE/DX =    0.0                 !
 ! A39   A(11,12,26)           121.2233         -DE/DX =    0.0                 !
 ! A40   A(13,12,26)           120.5217         -DE/DX =    0.0                 !
 ! A41   A(12,13,14)           123.2224         -DE/DX =    0.0                 !
 ! A42   A(12,13,27)           120.2154         -DE/DX =    0.0                 !
 ! A43   A(14,13,27)           116.562          -DE/DX =    0.0                 !
 ! A44   A(13,14,15)           118.1065         -DE/DX =    0.0                 !
 ! A45   A(10,15,14)           123.6188         -DE/DX =    0.0                 !
 ! A46   A(10,15,28)           119.2457         -DE/DX =    0.0                 !
 ! A47   A(14,15,28)           117.1355         -DE/DX =    0.0                 !
 ! D1    D(16,1,2,3)            54.3867         -DE/DX =    0.0                 !
 ! D2    D(16,1,2,10)          177.4154         -DE/DX =    0.0                 !
 ! D3    D(16,1,2,17)          -64.6369         -DE/DX =    0.0                 !
 ! D4    D(1,2,3,4)             62.5529         -DE/DX =    0.0                 !
 ! D5    D(1,2,3,18)           -59.9455         -DE/DX =    0.0                 !
 ! D6    D(1,2,3,19)          -174.6867         -DE/DX =    0.0                 !
 ! D7    D(10,2,3,4)           -58.9686         -DE/DX =    0.0                 !
 ! D8    D(10,2,3,18)          178.533          -DE/DX =    0.0                 !
 ! D9    D(10,2,3,19)           63.7919         -DE/DX =    0.0                 !
 ! D10   D(17,2,3,4)          -176.3751         -DE/DX =    0.0                 !
 ! D11   D(17,2,3,18)           61.1265         -DE/DX =    0.0                 !
 ! D12   D(17,2,3,19)          -53.6146         -DE/DX =    0.0                 !
 ! D13   D(1,2,10,11)          156.698          -DE/DX =    0.0                 !
 ! D14   D(1,2,10,15)          -26.7543         -DE/DX =    0.0                 !
 ! D15   D(3,2,10,11)          -79.8923         -DE/DX =    0.0                 !
 ! D16   D(3,2,10,15)           96.6554         -DE/DX =    0.0                 !
 ! D17   D(17,2,10,11)          37.0388         -DE/DX =    0.0                 !
 ! D18   D(17,2,10,15)        -146.4135         -DE/DX =    0.0                 !
 ! D19   D(2,3,4,5)            -84.2258         -DE/DX =    0.0                 !
 ! D20   D(2,3,4,9)             92.3018         -DE/DX =    0.0                 !
 ! D21   D(18,3,4,5)            37.0071         -DE/DX =    0.0                 !
 ! D22   D(18,3,4,9)          -146.4653         -DE/DX =    0.0                 !
 ! D23   D(19,3,4,5)           154.1956         -DE/DX =    0.0                 !
 ! D24   D(19,3,4,9)           -29.2768         -DE/DX =    0.0                 !
 ! D25   D(3,4,5,6)            176.5035         -DE/DX =    0.0                 !
 ! D26   D(3,4,5,20)            -3.3232         -DE/DX =    0.0                 !
 ! D27   D(9,4,5,6)             -0.0999         -DE/DX =    0.0                 !
 ! D28   D(9,4,5,20)          -179.9266         -DE/DX =    0.0                 !
 ! D29   D(3,4,9,8)           -176.5115         -DE/DX =    0.0                 !
 ! D30   D(3,4,9,24)             2.6296         -DE/DX =    0.0                 !
 ! D31   D(5,4,9,8)              0.0969         -DE/DX =    0.0                 !
 ! D32   D(5,4,9,24)           179.2381         -DE/DX =    0.0                 !
 ! D33   D(4,5,6,7)             -0.0042         -DE/DX =    0.0                 !
 ! D34   D(4,5,6,21)          -179.9665         -DE/DX =    0.0                 !
 ! D35   D(20,5,6,7)           179.8227         -DE/DX =    0.0                 !
 ! D36   D(20,5,6,21)           -0.1397         -DE/DX =    0.0                 !
 ! D37   D(5,6,7,8)              0.1129         -DE/DX =    0.0                 !
 ! D38   D(5,6,7,22)          -179.8763         -DE/DX =    0.0                 !
 ! D39   D(21,6,7,8)          -179.9248         -DE/DX =    0.0                 !
 ! D40   D(21,6,7,22)            0.086          -DE/DX =    0.0                 !
 ! D41   D(6,7,8,9)             -0.1159         -DE/DX =    0.0                 !
 ! D42   D(6,7,8,23)          -179.8157         -DE/DX =    0.0                 !
 ! D43   D(22,7,8,9)           179.8733         -DE/DX =    0.0                 !
 ! D44   D(22,7,8,23)            0.1735         -DE/DX =    0.0                 !
 ! D45   D(7,8,9,4)              0.0102         -DE/DX =    0.0                 !
 ! D46   D(7,8,9,24)          -179.1283         -DE/DX =    0.0                 !
 ! D47   D(23,8,9,4)           179.7111         -DE/DX =    0.0                 !
 ! D48   D(23,8,9,24)            0.5727         -DE/DX =    0.0                 !
 ! D49   D(2,10,11,12)         176.1729         -DE/DX =    0.0                 !
 ! D50   D(2,10,11,25)          -3.8335         -DE/DX =    0.0                 !
 ! D51   D(15,10,11,12)         -0.5041         -DE/DX =    0.0                 !
 ! D52   D(15,10,11,25)        179.4895         -DE/DX =    0.0                 !
 ! D53   D(2,10,15,14)        -176.3518         -DE/DX =    0.0                 !
 ! D54   D(2,10,15,28)           3.692          -DE/DX =    0.0                 !
 ! D55   D(11,10,15,14)          0.3082         -DE/DX =    0.0                 !
 ! D56   D(11,10,15,28)       -179.6481         -DE/DX =    0.0                 !
 ! D57   D(10,11,12,13)          0.2493         -DE/DX =    0.0                 !
 ! D58   D(10,11,12,26)        179.8888         -DE/DX =    0.0                 !
 ! D59   D(25,11,12,13)       -179.7443         -DE/DX =    0.0                 !
 ! D60   D(25,11,12,26)         -0.1048         -DE/DX =    0.0                 !
 ! D61   D(11,12,13,14)          0.2464         -DE/DX =    0.0                 !
 ! D62   D(11,12,13,27)       -179.9522         -DE/DX =    0.0                 !
 ! D63   D(26,12,13,14)       -179.3957         -DE/DX =    0.0                 !
 ! D64   D(26,12,13,27)          0.4056         -DE/DX =    0.0                 !
 ! D65   D(12,13,14,15)         -0.4529         -DE/DX =    0.0                 !
 ! D66   D(27,13,14,15)        179.739          -DE/DX =    0.0                 !
 ! D67   D(13,14,15,10)          0.1672         -DE/DX =    0.0                 !
 ! D68   D(13,14,15,28)       -179.8757         -DE/DX =    0.0                 !
 --------------------------------------------------------------------------------
 GradGradGradGradGradGradGradGradGradGradGradGradGradGradGradGradGradGrad

                          Input orientation:                          
 ---------------------------------------------------------------------
 Center     Atomic      Atomic             Coordinates (Angstroms)
 Number     Number       Type             X           Y           Z
 ---------------------------------------------------------------------
      1          8           0        0.127800    2.280080   -1.153060
      2          6           0        0.606660    1.883000    0.105260
      3          6           0       -0.547740    1.604590    1.098700
      4          6           0       -1.445480    0.472690    0.671640
      5          6           0       -2.499830    0.692190   -0.221010
      6          6           0       -3.286200   -0.365440   -0.673310
      7          6           0       -3.028430   -1.664290   -0.237550
      8          6           0       -1.982160   -1.896540    0.653770
      9          6           0       -1.198830   -0.835710    1.102960
[...]
    11  C    0.002332  -0.030684   0.001625  -0.006187   0.002258  -0.000267
    12  C   -0.000720   0.002876   0.002288   0.000189  -0.000139   0.000050
    13  C    0.000287  -0.002083   0.000568   0.000346  -0.000278   0.000007
    14  N   -0.000169   0.008113   0.000344  -0.000079  -0.000208   0.000077
    15  C   -0.003123  -0.036027  -0.017019   0.006026   0.000681   0.000150
    16  H    0.293516  -0.037104   0.009787  -0.007173   0.001120   0.000328
    17  H   -0.037707   0.452945  -0.084946   0.005473   0.004549  -0.000077
    18  H   -0.009024  -0.052837   0.424941  -0.042409  -0.004817  -0.000384
    19  H    0.005372  -0.026532   0.410577  -0.053920   0.010135  -0.000090
    20  H    0.003956  -0.006244   0.010843  -0.089419   0.444090  -0.036528
    21  H   -0.000116   0.000043  -0.000434   0.015782  -0.059390   0.441961
    22  H   -0.000002   0.000003   0.000007  -0.002774   0.010587  -0.054920
    23  H   -0.000001   0.000030  -0.000117   0.013042  -0.003496   0.010578
    24  H   -0.000006  -0.004338  -0.000392  -0.068313   0.011252  -0.003385
    25  H    0.000050   0.004972  -0.003060   0.000042   0.000044  -0.000001
    26  H    0.000002   0.000029   0.000019  -0.000021   0.000001  -0.000000
    27  H   -0.000001   0.000114   0.000008  -0.000022   0.000003  -0.000002
    28  H    0.009602  -0.004548  -0.001653  -0.001930   0.000627  -0.000080
               7          8          9         10         11         12
     1  O    0.000150   0.000360  -0.004785  -0.075143   0.002332  -0.000720
     2  C   -0.000828   0.002192  -0.006216   0.148344  -0.030684   0.002876
     3  C   -0.003615   0.012940  -0.072907  -0.022145   0.001625   0.002288
     4  C   -0.100359   0.031283   0.392929   0.025787  -0.006187   0.000189
     5  C    0.041571  -0.082412   0.012906  -0.015484   0.002258  -0.000139
     6  C    0.438855   0.021574  -0.082256  -0.000339  -0.000267   0.000050
     7  C    4.938212   0.428198   0.047401   0.000491   0.000185  -0.000053
     8  C    0.428198   4.941911   0.382185  -0.000594  -0.000182  -0.000220
     9  C    0.047401   0.382185   5.171276   0.004472   0.002568  -0.002710
    10  C    0.000491  -0.000594   0.004472   5.315732   0.295941  -0.019017
    11  C    0.000185  -0.000182   0.002568   0.295941   5.207738   0.442155
    12  C   -0.000053  -0.000220  -0.002710  -0.019017   0.442155   4.917336
    13  C   -0.000057   0.000923   0.001008  -0.047211   0.022180   0.488033
    14  N   -0.000196   0.000983   0.000059  -0.023495  -0.082015  -0.038546
    15  C   -0.000116  -0.001200  -0.010711   0.460367   0.009462  -0.022917
    16  H   -0.000050   0.000041  -0.001046   0.016964  -0.001801   0.000121
    17  H    0.000031  -0.000008  -0.000427  -0.088104   0.019553  -0.001569
    18  H    0.000290  -0.001135   0.002542   0.014330  -0.000942   0.000029
    19  H   -0.000011   0.001206  -0.007836  -0.006008  -0.002989   0.000456
    20  H    0.009735  -0.002798   0.008146  -0.000336   0.000033  -0.000003
    21  H   -0.056607   0.010410  -0.003086   0.000006  -0.000001   0.000000
    22  H    0.440363  -0.055265   0.011169   0.000012   0.000000   0.000000
    23  H   -0.055941   0.442495  -0.056829  -0.000018  -0.000051   0.000038
    24  H    0.009905  -0.044734   0.443097  -0.001273   0.000473   0.000514
    25  H    0.000001   0.000016  -0.000101  -0.067318   0.440955  -0.040608
    26  H    0.000000  -0.000021  -0.000009   0.016809  -0.071079   0.428172
    27  H    0.000004  -0.000045   0.000092   0.001046   0.002461  -0.069119
    28  H    0.000419  -0.000354  -0.000283  -0.061112   0.005296   0.000118
              13         14         15         16         17         18
     1  O    0.000287  -0.000169  -0.003123   0.293516  -0.037707  -0.009024
     2  C   -0.002083   0.008113  -0.036027  -0.037104   0.452945  -0.052837
     3  C    0.000568   0.000344  -0.017019   0.009787  -0.084946   0.424941
     4  C    0.000346  -0.000079   0.006026  -0.007173   0.005473  -0.042409
     5  C   -0.000278  -0.000208   0.000681   0.001120   0.004549  -0.004817
     6  C    0.000007   0.000077   0.000150   0.000328  -0.000077  -0.000384
     7  C   -0.000057  -0.000196  -0.000116  -0.000050   0.000031   0.000290
     8  C    0.000923   0.000983  -0.001200   0.000041  -0.000008  -0.001135
     9  C    0.001008   0.000059  -0.010711  -0.001046  -0.000427   0.002542
    10  C   -0.047211  -0.023495   0.460367   0.016964  -0.088104   0.014330
    11  C    0.022180  -0.082015   0.009462  -0.001801   0.019553  -0.000942
    12  C    0.488033  -0.038546  -0.022917   0.000121  -0.001569   0.000029
    13  C    4.758939   0.507753  -0.096453  -0.000026   0.000237  -0.000013
    14  N    0.507753   6.433138   0.492613   0.000027  -0.000594   0.000019
    15  C   -0.096453   0.492613   4.851090  -0.000556   0.005117  -0.000007
    16  H   -0.000026   0.000027  -0.000556   0.418738  -0.006428   0.001775
    17  H    0.000237  -0.000594   0.005117  -0.006428   0.647336  -0.006975
    18  H   -0.000013   0.000019  -0.000007   0.001775  -0.006975   0.550540
    19  H   -0.000088  -0.000073   0.001304   0.000680   0.003586  -0.014666
    20  H   -0.000000   0.000001  -0.000009   0.001022   0.000164  -0.000176
    21  H    0.000000   0.000001  -0.000016  -0.000004  -0.000003  -0.000010
    22  H   -0.000002  -0.000003  -0.000002  -0.000000   0.000000   0.000000
    23  H    0.000056   0.000060  -0.000169   0.000000  -0.000002   0.000009
    24  H    0.000504  -0.000220  -0.002488  -0.000011  -0.000018   0.000284
    25  H    0.004750  -0.002469   0.008189  -0.000058   0.004411  -0.000118
    26  H   -0.038086   0.008177  -0.003906  -0.000000  -0.000086   0.000000
    27  H    0.433351  -0.028406   0.000962   0.000000  -0.000004   0.000000
    28  H    0.003456  -0.026142   0.436353  -0.000908   0.000904  -0.000065
              19         20         21         22         23         24
     1  O    0.005372   0.003956  -0.000116  -0.000002  -0.000001  -0.000006
     2  C   -0.026532  -0.006244   0.000043   0.000003   0.000030  -0.004338
     3  C    0.410577   0.010843  -0.000434   0.000007  -0.000117  -0.000392
     4  C   -0.053920  -0.089419   0.015782  -0.002774   0.013042  -0.068313
     5  C    0.010135   0.444090  -0.059390   0.010587  -0.003496   0.011252
     6  C   -0.000090  -0.036528   0.441961  -0.054920   0.010578  -0.003385
     7  C   -0.000011   0.009735  -0.056607   0.440363  -0.055941   0.009905
     8  C    0.001206  -0.002798   0.010410  -0.055265   0.442495  -0.044734
     9  C   -0.007836   0.008146  -0.003086   0.011169  -0.056829   0.443097
    10  C   -0.006008  -0.000336   0.000006   0.000012  -0.000018  -0.001273
    11  C   -0.002989   0.000033  -0.000001   0.000000  -0.000051   0.000473
    12  C    0.000456  -0.000003   0.000000   0.000000   0.000038   0.000514
    13  C   -0.000088  -0.000000   0.000000  -0.000002   0.000056   0.000504
    14  N   -0.000073   0.000001   0.000001  -0.000003   0.000060  -0.000220
    15  C    0.001304  -0.000009  -0.000016  -0.000002  -0.000169  -0.002488
    16  H    0.000680   0.001022  -0.000004  -0.000000   0.000000  -0.000011
    17  H    0.003586   0.000164  -0.000003   0.000000  -0.000002  -0.000018
    18  H   -0.014666  -0.000176  -0.000010   0.000000   0.000009   0.000284
    19  H    0.545799   0.000615   0.000001  -0.000003  -0.000038   0.000639
    20  H    0.000615   0.568697  -0.007888  -0.000194   0.000043  -0.000125
    21  H    0.000001  -0.007888   0.549168  -0.006881  -0.000132   0.000040
    22  H   -0.000003  -0.000194  -0.006881   0.545920  -0.007025  -0.000142
    23  H   -0.000038   0.000043  -0.000132  -0.007025   0.546261  -0.006942
    24  H    0.000639  -0.000125   0.000040  -0.000142  -0.006942   0.540493
    25  H    0.001161  -0.000001  -0.000000   0.000000  -0.000001  -0.000008
    26  H   -0.000009  -0.000000  -0.000000   0.000000  -0.000000  -0.000004
    27  H   -0.000001   0.000000  -0.000000   0.000000  -0.000001   0.000013
    28  H   -0.000118  -0.000012  -0.000012  -0.000000  -0.000013   0.000003
              25         26         27         28
     1  O    0.000050   0.000002  -0.000001   0.009602
     2  C    0.004972   0.000029   0.000114  -0.004548
     3  C   -0.003060   0.000019   0.000008  -0.001653
     4  C    0.000042  -0.000021  -0.000022  -0.001930
     5  C    0.000044   0.000001   0.000003   0.000627
     6  C   -0.000001  -0.000000  -0.000002  -0.000080
     7  C    0.000001   0.000000   0.000004   0.000419
     8  C    0.000016  -0.000021  -0.000045  -0.000354
     9  C   -0.000101  -0.000009   0.000092  -0.000283
    10  C   -0.067318   0.016809   0.001046  -0.061112
    11  C    0.440955  -0.071079   0.002461   0.005296
    12  C   -0.040608   0.428172  -0.069119   0.000118
    13  C    0.004750  -0.038086   0.433351   0.003456
    14  N   -0.002469   0.008177  -0.028406  -0.026142
    15  C    0.008189  -0.003906   0.000962   0.436353
    16  H   -0.000058  -0.000000   0.000000  -0.000908
    17  H    0.004411  -0.000086  -0.000004   0.000904
    18  H   -0.000118   0.000000   0.000000  -0.000065
    19  H    0.001161  -0.000009  -0.000001  -0.000118
    20  H   -0.000001  -0.000000   0.000000  -0.000012
    21  H   -0.000000  -0.000000  -0.000000  -0.000012
    22  H    0.000000   0.000000   0.000000  -0.000000
    23  H   -0.000001  -0.000000  -0.000001  -0.000013
    24  H   -0.000008  -0.000004   0.000013   0.000003
    25  H    0.528593  -0.007381  -0.000259  -0.000099
    26  H   -0.007381   0.543036  -0.001594   0.000053
    27  H   -0.000259  -0.001594   0.535626  -0.000186
    28  H   -0.000099   0.000053  -0.000186   0.484207
 Mulliken charges:
               1
     1  O   -0.449531
     2  C    0.126839
     3  C   -0.356116
     4  C    0.312505
     5  C   -0.262828
     6  C   -0.107629
     7  C   -0.137977
     8  C   -0.087749
     9  C   -0.230647
    10  C    0.127296
    11  C   -0.259015
    12  C   -0.086753
    13  C   -0.038099
    14  N   -0.248749
    15  C   -0.077596
    16  H    0.311047
    17  H    0.082639
    18  H    0.138823
    19  H    0.130852
    20  H    0.096390
    21  H    0.117167
    22  H    0.119153
    23  H    0.118165
    24  H    0.125183
    25  H    0.128297
    26  H    0.125899
    27  H    0.125959
    28  H    0.156476
 Sum of Mulliken charges =  -0.00000
 Mulliken charges with hydrogens summed into heavy atoms:
               1
     1  O   -0.138484
     2  C    0.209478
     3  C   -0.086440
     4  C    0.312505
     5  C   -0.166438
     6  C    0.009538
     7  C   -0.018824
     8  C    0.030416
     9  C   -0.105465
    10  C    0.127296
    11  C   -0.130718
    12  C    0.039146
    13  C    0.087860
    14  N   -0.248749
    15  C    0.078879
 Electronic spatial extent (au):  <R**2>=           2984.3697
 Charge=              0.0000 electrons
 Dipole moment (field-independent basis, Debye):
    X=             -0.3715    Y=              2.1335    Z=              2.7169  Tot=              3.4744
 Quadrupole moment (field-independent basis, Debye-Ang):
   XX=            -84.1514   YY=            -78.4659   ZZ=            -91.4041
   XY=             -2.0046   XZ=             10.6552   YZ=             -1.2356
 Traceless Quadrupole moment (field-independent basis, Debye-Ang):
   XX=              0.5224   YY=              6.2079   ZZ=             -6.7303
   XY=             -2.0046   XZ=             10.6552   YZ=             -1.2356
 Octapole moment (field-independent basis, Debye-Ang**2):
  XXX=             12.8865  YYY=             29.1085  ZZZ=              4.0318  XYY=            -12.2571
  XXY=             -8.6223  XXZ=             -3.8715  XZZ=              0.0934  YZZ=              9.0852
  YYZ=              5.5917  XYZ=             -0.6265
 Hexadecapole moment (field-independent basis, Debye-Ang**3):
 XXXX=          -2453.8780 YYYY=           -960.2316 ZZZZ=           -516.6638 XXXY=            -40.2990
 XXXZ=            123.2411 YYYX=            -24.1575 YYYZ=            -33.8637 ZZZX=             35.8063
 ZZZY=            -15.7497 XXYY=           -542.7023 XXZZ=           -505.2489 YYZZ=           -281.4745
 XXYZ=             -3.0389 YYXZ=             25.1747 ZZXY=              4.3999
 N-N= 9.447259430738D+02 E-N=-3.362367677822D+03  KE= 6.298082423383D+02
 Breneman (CHELPG) radii used.
 Read replacement radii for each type of atom:
 Atom Element Radius
    1     8    1.70
    2     6    1.50
    3     6    1.50
    4     6    1.50
    5     6    1.50
    6     6    1.50
    7     6    1.50
    8     6    1.50
    9     6    1.50
   10     6    1.50
   11     6    1.50
   12     6    1.50
   13     6    1.50
   14     7    1.70
   15     6    1.50
   16     1    1.45
   17     1    1.45
   18     1    1.45
   19     1    1.45
   20     1    1.45
   21     1    1.45
   22     1    1.45
   23     1    1.45
   24     1    1.45
   25     1    1.45
   26     1    1.45
   27     1    1.45
   28     1    1.45
 Generate Potential Derived Charges using the Breneman model, NDens= 1.
 Grid spacing= 0.300 Box extension= 2.800
 NStep X,Y,Z=   46     40     33   Total possible points=       60720
 Number of Points to Fit=   16868

 **********************************************************************

            Electrostatic Properties Using The SCF Density.

 **********************************************************************

       Atomic Center    1 is at   0.127801  2.280080 -1.153060
       Atomic Center    2 is at   0.606661  1.883000  0.105260
       Atomic Center    3 is at  -0.547739  1.604589  1.098700
       Atomic Center    4 is at  -1.445478  0.472689  0.671640
       Atomic Center    5 is at  -2.499828  0.692189 -0.221010
       Atomic Center    6 is at  -3.286198 -0.365442 -0.673310
       Atomic Center    7 is at  -3.028427 -1.664292 -0.237550
       Atomic Center    8 is at  -1.982157 -1.896541  0.653770
       Atomic Center    9 is at  -1.198828 -0.835711  1.102960
       Atomic Center   10 is at   1.477892  0.662290 -0.075310
       Atomic Center   11 is at   2.452272  0.331621  0.865540
       Atomic Center   12 is at   3.180262 -0.843449  0.705810
       Atomic Center   13 is at   2.905243 -1.644979 -0.401600
       Atomic Center   14 is at   1.985812 -1.338430 -1.312960
       Atomic Center   15 is at   1.291412 -0.214620 -1.149800
       Atomic Center   16 is at  -0.458989  3.031669 -1.035520
       Atomic Center   17 is at   1.232401  2.681940  0.551800
       Atomic Center   18 is at  -1.132269  2.534379  1.211270
       Atomic Center   19 is at  -0.108439  1.392910  2.086070
       Atomic Center   20 is at  -2.708419  1.706289 -0.571000
       Atomic Center   21 is at  -4.104768 -0.174082 -1.370720
       Atomic Center   22 is at  -3.642417 -2.494762 -0.592530
       Atomic Center   23 is at  -1.770597 -2.910961  0.998480
       Atomic Center   24 is at  -0.370788 -1.026831  1.790870
       Atomic Center   25 is at   2.641631  0.989471  1.719450
       Atomic Center   26 is at   3.951722 -1.132839  1.421690
       Atomic Center   27 is at   3.458703 -2.577629 -0.558390
       Atomic Center   28 is at   0.538622  0.020750 -1.906870
   16868 points will be used for fitting atomic charges
 Fitting point charges to electrostatic potential
 Charges from ESP fit, RMS=   0.00374 RRMS=   0.22705:
 ESP charges:
               1
     1  O   -0.736337
     2  C    0.505890
     3  C    0.006747
     4  C    0.045393
     5  C   -0.130341
     6  C   -0.079608
     7  C   -0.119601
     8  C   -0.069554
     9  C   -0.127111
    10  C   -0.199449
    11  C    0.057223
    12  C   -0.349316
    13  C    0.397098
    14  N   -0.652815
    15  C    0.434069
    16  H    0.438019
    17  H   -0.084360
    18  H   -0.026640
    19  H   -0.009443
    20  H    0.087281
    21  H    0.090332
    22  H    0.098050
    23  H    0.089739
    24  H    0.077401
    25  H    0.080223
    26  H    0.128356
    27  H    0.017563
    28  H    0.031190
 Sum of ESP charges =  -0.00000
 ESP charges with hydrogens summed into heavy atoms:
               1
     1  O   -0.298318
     2  C    0.421530
     3  C   -0.029335
     4  C    0.045393
     5  C   -0.043061
     6  C    0.010723
     7  C   -0.021550
     8  C    0.020185
     9  C   -0.049710
    10  C   -0.199449
    11  C    0.137446
    12  C   -0.220961
    13  C    0.414662
    14  N   -0.652815
    15  C    0.465259
 Charge=  -0.00000 Dipole=    -0.4475     2.1574     2.7734 Tot=     3.5420
 -----------------------------------------------------------------

              Electrostatic Properties (Atomic Units)

 -----------------------------------------------------------------
    Center     Electric         -------- Electric Field --------
               Potential          X             Y             Z
 -----------------------------------------------------------------
    1 Atom    -22.348068
    2 Atom    -14.696499
    3 Atom    -14.753859
    4 Atom    -14.760060
    5 Atom    -14.770378
    6 Atom    -14.770365
    7 Atom    -14.771764
    8 Atom    -14.771304
    9 Atom    -14.771847
   10 Atom    -14.758408
   11 Atom    -14.752453
   12 Atom    -14.762817
   13 Atom    -14.741943
   14 Atom    -18.407034
   15 Atom    -14.746290
   16 Atom     -0.992902
   17 Atom     -1.112120
   18 Atom     -1.103615
   19 Atom     -1.104479
   20 Atom     -1.106346
   21 Atom     -1.108592
   22 Atom     -1.109730
   23 Atom     -1.110079
   24 Atom     -1.108911
   25 Atom     -1.089390
   26 Atom     -1.095611
   27 Atom     -1.111069
   28 Atom     -1.120349
 -----------------------------------------------------------------
 Unable to Open any file for archive entry.
 1\1\GINC-NOTCH027\SP\RwB97XD\def2TZVP\C13H13N1O1\U6053008\12-Jul-2024\
 0\\#N Guess=Read Geom=Check Integral(Ultrafine) Density Pop=(ChelpG,Re
 adRadii) NMR wB97XD def2TZVP\\12365813_15\\0,1\O,0,0.1278,2.28008,-1.1
 5306\C,0,0.60666,1.883,0.10526\C,0,-0.54774,1.60459,1.0987\C,0,-1.4454
 8,0.47269,0.67164\C,0,-2.49983,0.69219,-0.22101\C,0,-3.2862,-0.36544,-
 0.67331\C,0,-3.02843,-1.66429,-0.23755\C,0,-1.98216,-1.89654,0.65377\C
 ,0,-1.19883,-0.83571,1.10296\C,0,1.47789,0.66229,-0.07531\C,0,2.45227,
 0.33162,0.86554\C,0,3.18026,-0.84345,0.70581\C,0,2.90524,-1.64498,-0.4
 016\N,0,1.98581,-1.33843,-1.31296\C,0,1.29141,-0.21462,-1.1498\H,0,-0.
 45899,3.03167,-1.03552\H,0,1.2324,2.68194,0.5518\H,0,-1.13227,2.53438,
 1.21127\H,0,-0.10844,1.39291,2.08607\H,0,-2.70842,1.70629,-0.571\H,0,-
 4.10477,-0.17408,-1.37072\H,0,-3.64242,-2.49476,-0.59253\H,0,-1.7706,-
 2.91096,0.99848\H,0,-0.37079,-1.02683,1.79087\H,0,2.64163,0.98947,1.71
 945\H,0,3.95172,-1.13284,1.42169\H,0,3.4587,-2.57763,-0.55839\H,0,0.53
 862,0.02075,-1.90687\\Version=ES64L-G16RevC.01\State=1-A\HF=-633.19402
 37\RMSD=2.374e-09\Dipole=-0.1461735,0.8393739,1.0689263\Quadrupole=0.3
 884058,4.6154256,-5.0038314,-1.4903759,7.9218558,-0.918617\PG=C01 [X(C
 13H13N1O1)]\\@
 The archive entry for this job was punched.


 10 WHATSOEVER THY HAND FINDETH TO DO, DO IT WITH THY  
 MIGHT. FOR THERE IS NO WORK, NOR DEVICE, NOR KNOWLEDGE, NOR  
 WISDOM, IN THE GRAVE, WHITHER THOU GOEST.                    
 11 I RETURNED AND SAW UNDER THE SUN, THAT THE RACE IS NOT TO 
 THE SWIFT, NOR THE BATTLE TO THE STRONG, NEITHER YET BREAD TO
 THE WISE, NOR YET RICHES TO MEN OF UNDERSTANDING, NOR YET    
 FAVOR TO MEN OF SKILL. BUT TIME AND CHANCE HAPPEN TO THEM ALL.
 12 FOR MAN ALSO KNOWETH NOT HIS TIME. AS THE FISHES   
 THAT ARE TAKEN IN AN EVIL NET, AND AS THE BIRDS THAT ARE     
 CAUGHT IN THE SNARE. SO ARE THE SONS OF MEN SNARED IN AN EVIL
 TIME, WHEN IT FALLETH SUDDENLY UPON THEM.
                                         ECCLESIASTES 9
 Job cpu time:       0 days  1 hours 25 minutes 49.1 seconds.
 Elapsed time:       0 days  0 hours  5 minutes 40.3 seconds.
 File lengths (MBytes):  RWF=    183 Int=      0 D2E=      0 Chk=     27 Scr=      2
 Normal termination of Gaussian 16 at Fri Jul 12 13:37:52 2024.
