 Entering Gaussian System, Link 0=g16
 Input=12365813_5.com
 Output=12365813_5.log
 Initial command:
 /uufs/chpc.utah.edu/sys/installdir/gaussian16/C01/AVX/g16/l1.exe "/scratch/general/vast/u6053008/1287178-notchpeak.peaks/Gau-722097.inp" -scrdir="/scratch/general/vast/u6053008/1287178-notchpeak.peaks/"
 Entering Link 1 = /uufs/chpc.utah.edu/sys/installdir/gaussian16/C01/AVX/g16/l1.exe PID=    722099.
  
 Copyright (c) 1988-2019, Gaussian, Inc.  All Rights Reserved.
  
 This is part of the Gaussian(R) 16 program.  It is based on
 the Gaussian(R) 09 system (copyright 2009, Gaussian, Inc.),
 the Gaussian(R) 03 system (copyright 2003, Gaussian, Inc.),
 the Gaussian(R) 98 system (copyright 1998, Gaussian, Inc.),
 the Gaussian(R) 94 system (copyright 1995, Gaussian, Inc.),
 the Gaussian 92(TM) system (copyright 1992, Gaussian, Inc.),
 the Gaussian 90(TM) system (copyright 1990, Gaussian, Inc.),
 the Gaussian 88(TM) system (copyright 1988, Gaussian, Inc.),
 the Gaussian 86(TM) system (copyright 1986, Carnegie Mellon
 University), and the Gaussian 82(TM) system (copyright 1983,
 Carnegie Mellon University). Gaussian is a federally registered
 trademark of Gaussian, Inc.
  
 This software contains proprietary and confidential information,
 including trade secrets, belonging to Gaussian, Inc.
  
 This software is provided under written license and may be
 used, copied, transmitted, or stored only in accord with that
 written license.
  
 The following legend is applicable only to US Government
 contracts under FAR:
  
                    RESTRICTED RIGHTS LEGEND
  
 Use, reproduction and disclosure by the US Government is
 subject to restrictions as set forth in subparagraphs (a)
 and (c) of the Commercial Computer Software - Restricted
 Rights clause in FAR 52.227-19.
  
 Gaussian, Inc.
 340 Quinnipiac St., Bldg. 40, Wallingford CT 06492
  
  
 ---------------------------------------------------------------
 Warning -- This program may not be used in any manner that
 competes with the business of Gaussian, Inc. or will provide
 assistance to any competitor of Gaussian, Inc.  The licensee
 of this program is prohibited from giving any competitor of
 Gaussian, Inc. access to this program.  By using this program,
 the user acknowledges that Gaussian, Inc. is engaged in the
 business of creating and licensing software in the field of
 computational chemistry and represents and warrants to the
 licensee that it is not a competitor of Gaussian, Inc. and that
 it will not use this program in any manner prohibited above.
 ---------------------------------------------------------------
  

 Cite this work as:
 Gaussian 16, Revision C.01,
 M. J. Frisch, G. W. Trucks, H. B. Schlegel, G. E. Scuseria, 
 M. A. Robb, J. R. Cheeseman, G. Scalmani, V. Barone, 
 G. A. Petersson, H. Nakatsuji, X. Li, M. Caricato, A. V. Marenich, 
 J. Bloino, B. G. Janesko, R. Gomperts, B. Mennucci, H. P. Hratchian, 
 J. V. Ortiz, A. F. Izmaylov, J. L. Sonnenberg, D. Williams-Young, 
 F. Ding, F. Lipparini, F. Egidi, J. Goings, B. Peng, A. Petrone, 
 T. Henderson, D. Ranasinghe, V. G. Zakrzewski, J. Gao, N. Rega, 
 G. Zheng, W. Liang, M. Hada, M. Ehara, K. Toyota, R. Fukuda, 
 J. Hasegawa, M. Ishida, T. Nakajima, Y. Honda, O. Kitao, H. Nakai, 
 T. Vreven, K. Throssell, J. A. Montgomery, Jr., J. E. Peralta, 
 F. Ogliaro, M. J. Bearpark, J. J. Heyd, E. N. Brothers, K. N. Kudin, 
 V. N. Staroverov, T. A. Keith, R. Kobayashi, J. Normand, 
 K. Raghavachari, A. P. Rendell, J. C. Burant, S. S. Iyengar, 
 J. Tomasi, M. Cossi, J. M. Millam, M. Klene, C. Adamo, R. Cammi, 
 J. W. Ochterski, R. L. Martin, K. Morokuma, O. Farkas, 
 J. B. Foresman, and D. J. Fox, Gaussian, Inc., Wallingford CT, 2019.
 
 ******************************************
 Gaussian 16:  ES64L-G16RevC.01  3-Jul-2019
                12-Jul-2024 
 ******************************************
 %NProcShared=16
 Will use up to   16 processors via shared memory.
 %Mem=32GB
 %chk=12365813_5.chk
 ------------------------------------------------------
 #N OPT FREQ=NORAMAN Integral(Ultrafine) wB97XD def2SVP
 ------------------------------------------------------
 1/18=20,19=15,26=4,38=1/1,3;
 2/9=110,12=2,17=6,18=5,40=1/2;
 3/5=43,7=101,11=2,25=1,30=1,71=1,74=-58,75=-5/1,2,3;
 4//1;
 5/5=2,38=5/2;
 6/7=2,8=2,9=2,10=2,28=1/1;
 7//1,2,3,16;
 1/18=20,19=15,26=4/3(2);
 2/9=110/2;
 99//99;
 2/9=110/2;
 3/5=43,7=101,11=2,25=1,30=1,71=1,74=-58,75=-5/1,2,3;
 4/5=5,16=3,69=1/1;
 5/5=2,38=5/2;
 7//1,2,3,16;
 1/18=20,19=15,26=4/3(-5);
 2/9=110/2;
 6/7=2,8=2,9=2,10=2,19=2,28=1/1;
 99/9=1/99;
 ----------
 12365813_5
 ----------
 Symbolic Z-matrix:
 Charge =  0 Multiplicity = 1
 O                    -1.60348   2.76714  -0.22178 
 C                    -0.73965   1.67009  -0.38089 
 C                     0.42511   1.76031   0.62921 
 C                     1.49998   0.72369   0.43205 
 C                     1.52153  -0.4488    1.19366 
 C                     2.4741   -1.43778   0.95571 
 C                     3.42194  -1.26749  -0.05169 
 C                     3.41454  -0.1002   -0.815 
 C                     2.46089   0.88633  -0.57265 
 C                    -1.46628   0.33823  -0.29965 
 C                    -2.65483   0.19408   0.41372 
 C                    -3.25383  -1.06057   0.49297 
 C                    -2.64226  -2.13009  -0.15752 
 N                    -1.51793  -2.00707  -0.86013 
 C                    -0.95347  -0.80575  -0.92612 
 H                    -1.72733   2.9277    0.71839 
 H                    -0.31738   1.76403  -1.39489 
 H                     0.00247   1.67132   1.64544 
 H                     0.84848   2.77283   0.53592 
 H                     0.77094  -0.59576   1.97469 
 H                     2.47102  -2.34961   1.55657 
 H                     4.1667   -2.04314  -0.24204 
 H                     4.15662   0.04328  -1.60353 
 H                     2.46018   1.79923  -1.17533 
 H                    -3.12164   1.0616    0.88547 
 H                    -4.186    -1.20667   1.04185 
 H                    -3.08708  -3.13046  -0.11641 
 H                    -0.03038  -0.73423  -1.5138 
 

 GradGradGradGradGradGradGradGradGradGradGradGradGradGradGradGradGradGrad
 Berny optimization.
 Initialization pass.
                           ----------------------------
                           !    Initial Parameters    !
                           ! (Angstroms and Degrees)  !
 --------------------------                            --------------------------
 ! Name  Definition              Value          Derivative Info.                !
 --------------------------------------------------------------------------------
 ! R1    R(1,2)                  1.4054         estimate D2E/DX2                !
 ! R2    R(1,16)                 0.9618         estimate D2E/DX2                !
 ! R3    R(2,3)                  1.5444         estimate D2E/DX2                !
 ! R4    R(2,10)                 1.5194         estimate D2E/DX2                !
 ! R5    R(2,17)                 1.1024         estimate D2E/DX2                !
 ! R6    R(3,4)                  1.5063         estimate D2E/DX2                !
 ! R7    R(3,18)                 1.1042         estimate D2E/DX2                !
 ! R8    R(3,19)                 1.1014         estimate D2E/DX2                !
 ! R9    R(4,5)                  1.3983         estimate D2E/DX2                !
 ! R10   R(4,9)                  1.3997         estimate D2E/DX2                !
 ! R11   R(5,6)                  1.3936         estimate D2E/DX2                !
 ! R12   R(5,20)                 1.0932         estimate D2E/DX2                !
 ! R13   R(6,7)                  1.3936         estimate D2E/DX2                !
 ! R14   R(6,21)                 1.092          estimate D2E/DX2                !
 ! R15   R(7,8)                  1.3947         estimate D2E/DX2                !
 ! R16   R(7,22)                 1.092          estimate D2E/DX2                !
 ! R17   R(8,9)                  1.3933         estimate D2E/DX2                !
 ! R18   R(8,23)                 1.0923         estimate D2E/DX2                !
 ! R19   R(9,24)                 1.0939         estimate D2E/DX2                !
 ! R20   R(10,11)                1.3937         estimate D2E/DX2                !
 ! R21   R(10,15)                1.4015         estimate D2E/DX2                !
 ! R22   R(11,12)                1.3926         estimate D2E/DX2                !
 ! R23   R(11,25)                1.0923         estimate D2E/DX2                !
 ! R24   R(12,13)                1.3932         estimate D2E/DX2                !
 ! R25   R(12,26)                1.0916         estimate D2E/DX2                !
 ! R26   R(13,14)                1.3315         estimate D2E/DX2                !
 ! R27   R(13,27)                1.0956         estimate D2E/DX2                !
 ! R28   R(14,15)                1.329          estimate D2E/DX2                !
 ! R29   R(15,28)                1.0966         estimate D2E/DX2                !
 ! A1    A(2,1,16)             108.6713         estimate D2E/DX2                !
 ! A2    A(1,2,3)              110.1163         estimate D2E/DX2                !
 ! A3    A(1,2,10)             112.5983         estimate D2E/DX2                !
 ! A4    A(1,2,17)             105.8464         estimate D2E/DX2                !
 ! A5    A(3,2,10)             112.1436         estimate D2E/DX2                !
 ! A6    A(3,2,17)             107.9223         estimate D2E/DX2                !
 ! A7    A(10,2,17)            107.8825         estimate D2E/DX2                !
 ! A8    A(2,3,4)              114.3545         estimate D2E/DX2                !
 ! A9    A(2,3,18)             107.9725         estimate D2E/DX2                !
 ! A10   A(2,3,19)             106.7505         estimate D2E/DX2                !
 ! A11   A(4,3,18)             109.7634         estimate D2E/DX2                !
 ! A12   A(4,3,19)             110.3207         estimate D2E/DX2                !
 ! A13   A(18,3,19)            107.4073         estimate D2E/DX2                !
 ! A14   A(3,4,5)              121.1162         estimate D2E/DX2                !
 ! A15   A(3,4,9)              120.2569         estimate D2E/DX2                !
 ! A16   A(5,4,9)              118.5421         estimate D2E/DX2                !
 ! A17   A(4,5,6)              120.8368         estimate D2E/DX2                !
 ! A18   A(4,5,20)             119.4257         estimate D2E/DX2                !
 ! A19   A(6,5,20)             119.7307         estimate D2E/DX2                !
 ! A20   A(5,6,7)              120.1055         estimate D2E/DX2                !
 ! A21   A(5,6,21)             119.7815         estimate D2E/DX2                !
 ! A22   A(7,6,21)             120.1116         estimate D2E/DX2                !
 ! A23   A(6,7,8)              119.621          estimate D2E/DX2                !
 ! A24   A(6,7,22)             120.2016         estimate D2E/DX2                !
 ! A25   A(8,7,22)             120.1774         estimate D2E/DX2                !
 ! A26   A(7,8,9)              120.0669         estimate D2E/DX2                !
 ! A27   A(7,8,23)             120.0946         estimate D2E/DX2                !
 ! A28   A(9,8,23)             119.8385         estimate D2E/DX2                !
 ! A29   A(4,9,8)              120.8265         estimate D2E/DX2                !
 ! A30   A(4,9,24)             119.4712         estimate D2E/DX2                !
 ! A31   A(8,9,24)             119.7023         estimate D2E/DX2                !
 ! A32   A(2,10,11)            121.7286         estimate D2E/DX2                !
 ! A33   A(2,10,15)            121.1072         estimate D2E/DX2                !
 ! A34   A(11,10,15)           117.1571         estimate D2E/DX2                !
 ! A35   A(10,11,12)           119.2848         estimate D2E/DX2                !
 ! A36   A(10,11,25)           120.2251         estimate D2E/DX2                !
 ! A37   A(12,11,25)           120.4754         estimate D2E/DX2                !
 ! A38   A(11,12,13)           118.441          estimate D2E/DX2                !
 ! A39   A(11,12,26)           121.0996         estimate D2E/DX2                !
 ! A40   A(13,12,26)           120.4565         estimate D2E/DX2                !
 ! A41   A(12,13,14)           123.1007         estimate D2E/DX2                !
 ! A42   A(12,13,27)           120.3452         estimate D2E/DX2                !
 ! A43   A(14,13,27)           116.5515         estimate D2E/DX2                !
 ! A44   A(13,14,15)           117.9285         estimate D2E/DX2                !
 ! A45   A(10,15,14)           124.0737         estimate D2E/DX2                !
 ! A46   A(10,15,28)           119.625          estimate D2E/DX2                !
 ! A47   A(14,15,28)           116.3013         estimate D2E/DX2                !
 ! D1    D(16,1,2,3)           -41.9036         estimate D2E/DX2                !
 ! D2    D(16,1,2,10)           84.0586         estimate D2E/DX2                !
 ! D3    D(16,1,2,17)         -158.3032         estimate D2E/DX2                !
 ! D4    D(1,2,3,4)           -172.8859         estimate D2E/DX2                !
 ! D5    D(1,2,3,18)            64.6313         estimate D2E/DX2                !
 ! D6    D(1,2,3,19)           -50.5876         estimate D2E/DX2                !
 ! D7    D(10,2,3,4)            60.8951         estimate D2E/DX2                !
 ! D8    D(10,2,3,18)          -61.5876         estimate D2E/DX2                !
 ! D9    D(10,2,3,19)         -176.8066         estimate D2E/DX2                !
 ! D10   D(17,2,3,4)           -57.7929         estimate D2E/DX2                !
 ! D11   D(17,2,3,18)          179.7244         estimate D2E/DX2                !
 ! D12   D(17,2,3,19)           64.5054         estimate D2E/DX2                !
 ! D13   D(1,2,10,11)          -26.3766         estimate D2E/DX2                !
 ! D14   D(1,2,10,15)          154.6224         estimate D2E/DX2                !
 ! D15   D(3,2,10,11)           98.4835         estimate D2E/DX2                !
 ! D16   D(3,2,10,15)          -80.5175         estimate D2E/DX2                !
 ! D17   D(17,2,10,11)        -142.805          estimate D2E/DX2                !
 ! D18   D(17,2,10,15)          38.194          estimate D2E/DX2                !
 ! D19   D(2,3,4,5)            -97.7941         estimate D2E/DX2                !
 ! D20   D(2,3,4,9)             78.8097         estimate D2E/DX2                !
 ! D21   D(18,3,4,5)            23.7088         estimate D2E/DX2                !
 ! D22   D(18,3,4,9)          -159.6874         estimate D2E/DX2                !
 ! D23   D(19,3,4,5)           141.8757         estimate D2E/DX2                !
 ! D24   D(19,3,4,9)           -41.5205         estimate D2E/DX2                !
 ! D25   D(3,4,5,6)            176.3829         estimate D2E/DX2                !
 ! D26   D(3,4,5,20)            -2.6651         estimate D2E/DX2                !
 ! D27   D(9,4,5,6)             -0.2778         estimate D2E/DX2                !
 ! D28   D(9,4,5,20)          -179.3258         estimate D2E/DX2                !
 ! D29   D(3,4,9,8)           -176.3571         estimate D2E/DX2                !
 ! D30   D(3,4,9,24)             3.5192         estimate D2E/DX2                !
 ! D31   D(5,4,9,8)              0.3332         estimate D2E/DX2                !
 ! D32   D(5,4,9,24)          -179.7905         estimate D2E/DX2                !
 ! D33   D(4,5,6,7)             -0.0252         estimate D2E/DX2                !
 ! D34   D(4,5,6,21)          -179.5992         estimate D2E/DX2                !
 ! D35   D(20,5,6,7)           179.02           estimate D2E/DX2                !
 ! D36   D(20,5,6,21)           -0.554          estimate D2E/DX2                !
 ! D37   D(5,6,7,8)              0.2776         estimate D2E/DX2                !
 ! D38   D(5,6,7,22)          -179.7645         estimate D2E/DX2                !
 ! D39   D(21,6,7,8)           179.8502         estimate D2E/DX2                !
 ! D40   D(21,6,7,22)           -0.1919         estimate D2E/DX2                !
 ! D41   D(6,7,8,9)             -0.2226         estimate D2E/DX2                !
 ! D42   D(6,7,8,23)           179.7264         estimate D2E/DX2                !
 ! D43   D(22,7,8,9)           179.8194         estimate D2E/DX2                !
 ! D44   D(22,7,8,23)           -0.2315         estimate D2E/DX2                !
 ! D45   D(7,8,9,4)             -0.0858         estimate D2E/DX2                !
 ! D46   D(7,8,9,24)          -179.9618         estimate D2E/DX2                !
 ! D47   D(23,8,9,4)           179.965          estimate D2E/DX2                !
 ! D48   D(23,8,9,24)            0.089          estimate D2E/DX2                !
 ! D49   D(2,10,11,12)        -177.7925         estimate D2E/DX2                !
 ! D50   D(2,10,11,25)           3.5961         estimate D2E/DX2                !
 ! D51   D(15,10,11,12)          1.2462         estimate D2E/DX2                !
 ! D52   D(15,10,11,25)       -177.3652         estimate D2E/DX2                !
 ! D53   D(2,10,15,14)         177.9068         estimate D2E/DX2                !
 ! D54   D(2,10,15,28)          -2.0932         estimate D2E/DX2                !
 ! D55   D(11,10,15,14)         -1.1383         estimate D2E/DX2                !
 ! D56   D(11,10,15,28)        178.8617         estimate D2E/DX2                !
 ! D57   D(10,11,12,13)         -0.475          estimate D2E/DX2                !
 ! D58   D(10,11,12,26)       -179.8588         estimate D2E/DX2                !
 ! D59   D(25,11,12,13)        178.1328         estimate D2E/DX2                !
 ! D60   D(25,11,12,26)         -1.251          estimate D2E/DX2                !
 ! D61   D(11,12,13,14)         -0.5512         estimate D2E/DX2                !
 ! D62   D(11,12,13,27)       -179.9448         estimate D2E/DX2                !
 ! D63   D(26,12,13,14)        178.8367         estimate D2E/DX2                !
 ! D64   D(26,12,13,27)         -0.5569         estimate D2E/DX2                !
 ! D65   D(12,13,14,15)          0.7102         estimate D2E/DX2                !
 ! D66   D(27,13,14,15)       -179.8748         estimate D2E/DX2                !
 ! D67   D(13,14,15,10)          0.1629         estimate D2E/DX2                !
 ! D68   D(13,14,15,28)       -179.8372         estimate D2E/DX2                !
 --------------------------------------------------------------------------------
 Trust Radius=3.00D-01 FncErr=1.00D-07 GrdErr=1.00D-06 EigMax=2.50D+02 EigMin=1.00D-04
 Number of steps in this run=    154 maximum allowed number of steps=    168.
 GradGradGradGradGradGradGradGradGradGradGradGradGradGradGradGradGradGrad

                          Input orientation:                          
 ---------------------------------------------------------------------
 Center     Atomic      Atomic             Coordinates (Angstroms)
 Number     Number       Type             X           Y           Z
 ---------------------------------------------------------------------
      1          8           0       -1.603480    2.767140   -0.221780
      2          6           0       -0.739650    1.670090   -0.380890
      3          6           0        0.425110    1.760310    0.629210
      4          6           0        1.499980    0.723690    0.432050
      5          6           0        1.521530   -0.448800    1.193660
      6          6           0        2.474100   -1.437780    0.955710
      7          6           0        3.421940   -1.267490   -0.051690
      8          6           0        3.414540   -0.100200   -0.815000
      9          6           0        2.460890    0.886330   -0.572650
     10          6           0       -1.466280    0.338230   -0.299650
     11          6           0       -2.654830    0.194080    0.413720
     12          6           0       -3.253830   -1.060570    0.492970
     13          6           0       -2.642260   -2.130090   -0.157520
     14          7           0       -1.517930   -2.007070   -0.860130
     15          6           0       -0.953470   -0.805750   -0.926120
     16          1           0       -1.727330    2.927700    0.718390
     17          1           0       -0.317380    1.764030   -1.394890
     18          1           0        0.002470    1.671320    1.645440
     19          1           0        0.848480    2.772830    0.535920
     20          1           0        0.770940   -0.595760    1.974690
     21          1           0        2.471020   -2.349610    1.556570
     22          1           0        4.166700   -2.043140   -0.242040
     23          1           0        4.156620    0.043280   -1.603530
     24          1           0        2.460180    1.799230   -1.175330
     25          1           0       -3.121640    1.061600    0.885470
     26          1           0       -4.186000   -1.206670    1.041850
     27          1           0       -3.087080   -3.130460   -0.116410
     28          1           0       -0.030380   -0.734230   -1.513800
 ---------------------------------------------------------------------
                    Distance matrix (angstroms):
                    1          2          3          4          5
     1  O    0.000000
     2  C    1.405360   0.000000
     3  C    2.419311   1.544379   0.000000
     4  C    3.772883   2.563686   1.506253   0.000000
     5  C    4.702279   3.475894   2.530002   1.398301   0.000000
     6  C    5.974487   4.666213   3.812183   2.427979   1.393589
     7  C    6.446861   5.104565   4.314184   2.809401   2.415100
     8  C    5.809826   4.536482   3.805776   2.428882   2.782036
     9  C    4.492178   3.300683   2.520458   1.399722   2.405165
    10  C    2.434028   1.519356   2.542135   3.079393   3.431676
    11  C    2.851287   2.545177   3.462014   4.188469   4.296927
    12  C    4.229171   3.813297   4.637944   5.077992   4.865110
    13  C    5.006601   4.255724   5.016265   5.064564   4.689304
    14  N    4.817457   3.789050   4.492960   4.270194   3.985546
    15  C    3.699209   2.544166   3.302151   3.194249   3.278186
    16  H    0.961789   1.940493   2.450255   3.918569   4.709748
    17  H    2.009097   1.102421   2.155988   2.778995   3.870245
    18  H    2.695627   2.157952   1.104204   2.147756   2.646990
    19  H    2.566369   2.139797   1.101427   2.152723   3.356265
    20  H    4.665988   3.600655   2.735138   2.156893   1.093156
    21  H    6.778290   5.497285   4.683715   3.413596   2.155531
    22  H    7.512269   6.154643   5.405997   3.901428   3.405889
    23  H    6.519770   5.302341   4.675199   3.415301   3.874289
    24  H    4.284792   3.299504   2.720182   2.159269   3.398061
    25  H    2.537652   2.765466   3.623990   4.656087   4.892373
    26  H    4.904828   4.709274   5.498689   6.035604   5.759628
    27  H    6.082258   5.350295   6.067212   6.016344   5.490617
    28  H    4.050130   2.750873   3.320044   2.872954   3.133725
                    6          7          8          9         10
     6  C    0.000000
     7  C    1.393648   0.000000
     8  C    2.410179   1.394727   0.000000
     9  C    2.781644   2.415359   1.393350   0.000000
    10  C    4.500748   5.151166   4.927495   3.974620   0.000000
    11  C    5.409496   6.267370   6.199484   5.255733   1.393674
    12  C    5.758958   6.701147   6.862963   6.130578   2.404209
    13  C    5.281639   6.126157   6.421648   5.942496   2.737834
    14  N    4.422405   5.059928   5.288426   4.928024   2.411895
    15  C    3.960932   4.485760   4.426021   3.827000   1.401474
    16  H    6.063477   6.686376   6.161030   4.834787   2.794621
    17  H    4.854819   4.997681   4.211752   3.027411   2.133642
    18  H    4.031276   4.817637   4.564457   3.402934   2.778080
    19  H    4.533001   4.826196   4.082150   2.718028   3.461729
    20  H    2.155939   3.403709   3.875122   3.397273   3.324171
    21  H    1.092006   2.159105   3.402120   3.873627   5.115894
    22  H    2.160083   1.092032   2.160797   3.406007   6.115939
    23  H    3.402076   2.160111   1.092268   2.156142   5.779628
    24  H    3.875533   3.404750   2.156032   1.093897   4.280003
    25  H    6.128959   7.008664   6.852957   5.772476   2.160553
    26  H    6.664665   7.686370   7.901922   7.153209   3.403412
    27  H    5.911119   6.770686   7.207050   6.864600   3.833064
    28  H    3.586904   3.786904   3.571805   3.117436   2.164749
                   11         12         13         14         15
    11  C    0.000000
    12  C    1.392562   0.000000
    13  C    2.393374   1.393208   0.000000
    14  N    2.785731   2.395849   1.331508   0.000000
    15  C    2.385258   2.714849   2.279613   1.328962   0.000000
    16  H    2.902716   4.276367   5.213977   5.185319   4.152339
    17  H    3.346563   4.490559   4.701098   3.993555   2.688517
    18  H    3.280338   4.403964   4.969505   4.703196   3.696298
    19  H    4.351789   5.614779   6.058444   5.513284   4.265070
    20  H    3.846606   4.313968   4.307020   3.907291   3.381181
    21  H    5.835307   5.963789   5.397400   4.676483   4.502709
    22  H    7.208914   7.521300   6.810040   5.718248   5.311802
    23  H    7.105483   7.780011   7.282805   6.079235   5.224247
    24  H    5.591504   6.603907   6.519999   5.514765   4.301283
    25  H    1.092269   2.162206   3.391831   3.877595   3.386712
    26  H    2.168209   1.091584   2.162019   3.372946   3.805640
    27  H    3.394178   2.164161   1.095580   2.068177   3.257637
    28  H    3.385976   3.811070   3.257275   2.064028   1.096621
                   16         17         18         19         20
    16  H    0.000000
    17  H    2.794287   0.000000
    18  H    2.330262   3.058514   0.000000
    19  H    2.586905   2.470817   1.777665   0.000000
    20  H    4.498268   4.255246   2.416320   3.663805   0.000000
    21  H    6.795490   5.779993   4.719059   5.469347   2.478121
    22  H    7.769895   5.994212   5.890722   5.899947   4.305808
    23  H    6.952126   4.798040   5.519355   4.792857   4.967380
    24  H    4.732321   2.786447   3.743453   2.544376   4.302573
    25  H    2.335454   3.682027   3.272518   4.337320   4.368686
    26  H    4.821068   5.452429   5.117658   6.437265   5.080812
    27  H    6.264752   5.767303   5.975494   7.124816   5.067714
    28  H    4.612162   2.517501   3.970963   4.156106   3.582018
                   21         22         23         24         25
    21  H    0.000000
    22  H    2.490834   0.000000
    23  H    4.307366   2.491366   0.000000
    24  H    4.967521   4.306628   2.478835   0.000000
    25  H    6.585178   8.001912   7.759199   5.995641   0.000000
    26  H    6.774006   8.492094   8.840799   7.623846   2.510451
    27  H    5.856711   7.335896   8.047070   7.496349   4.310258
    28  H    4.277105   4.576691   4.259524   3.568735   4.305507
                   26         27         28
    26  H    0.000000
    27  H    2.500032   0.000000
    28  H    4.901400   4.127715   0.000000
 Stoichiometry    C13H13NO
 Framework group  C1[X(C13H13NO)]
 Deg. of freedom    78
 Full point group                 C1      NOp   1
 Largest Abelian subgroup         C1      NOp   1
 Largest concise Abelian subgroup C1      NOp   1
                         Standard orientation:                         
 ---------------------------------------------------------------------
 Center     Atomic      Atomic             Coordinates (Angstroms)
 Number     Number       Type             X           Y           Z
 ---------------------------------------------------------------------
      1          8           0       -1.603480    2.767139   -0.221780
      2          6           0       -0.739650    1.670089   -0.380890
      3          6           0        0.425110    1.760310    0.629210
      4          6           0        1.499981    0.723690    0.432050
      5          6           0        1.521531   -0.448800    1.193660
      6          6           0        2.474102   -1.437779    0.955710
      7          6           0        3.421942   -1.267488   -0.051690
      8          6           0        3.414541   -0.100198   -0.815000
      9          6           0        2.460891    0.886331   -0.572650
     10          6           0       -1.466279    0.338229   -0.299650
     11          6           0       -2.654829    0.194078    0.413720
     12          6           0       -3.253828   -1.060572    0.492970
     13          6           0       -2.642258   -2.130092   -0.157520
     14          7           0       -1.517928   -2.007071   -0.860130
     15          6           0       -0.953468   -0.805751   -0.926120
     16          1           0       -1.727331    2.927699    0.718390
     17          1           0       -0.317380    1.764029   -1.394890
     18          1           0        0.002470    1.671320    1.645440
     19          1           0        0.848480    2.772830    0.535920
     20          1           0        0.770942   -0.595760    1.974690
     21          1           0        2.471023   -2.349609    1.556570
     22          1           0        4.166702   -2.043138   -0.242040
     23          1           0        4.156621    0.043282   -1.603530
     24          1           0        2.460180    1.799231   -1.175330
     25          1           0       -3.121639    1.061598    0.885470
     26          1           0       -4.185998   -1.206673    1.041850
     27          1           0       -3.087077   -3.130462   -0.116410
     28          1           0       -0.030378   -0.734230   -1.513800
 ---------------------------------------------------------------------
 Rotational constants (GHZ):           0.9453383           0.4675838           0.3552598
 Standard basis: def2SVP (5D, 7F)
 There are   290 symmetry adapted cartesian basis functions of A   symmetry.
 There are   275 symmetry adapted basis functions of A   symmetry.
   275 basis functions,   466 primitive gaussians,   290 cartesian basis functions
    53 alpha electrons       53 beta electrons
       nuclear repulsion energy       932.3464361237 Hartrees.
 NAtoms=   28 NActive=   28 NUniq=   28 SFac= 1.00D+00 NAtFMM=   60 NAOKFM=F Big=F
 Integral buffers will be    131072 words long.
 Raffenetti 2 integral format.
 Two-electron integral symmetry is turned on.
 Nuclear repulsion after empirical dispersion term =      932.3262368645 Hartrees.
 One-electron integrals computed using PRISM.
   1 Symmetry operations used in ECPInt.
 ECPInt:  NShTT=    8385 NPrTT=   30369 LenC2=    8061 LenP2D=   21573.
 LDataN:  DoStor=T MaxTD1= 4 Len=   56
 NBasis=   275 RedAO= T EigKep=  2.75D-04  NBF=   275
 NBsUse=   275 1.00D-06 EigRej= -1.00D+00 NBFU=   275
 ExpMin= 1.22D-01 ExpMax= 2.27D+03 ExpMxC= 3.41D+02 IAcc=3 IRadAn=         5 AccDes= 0.00D+00
 Harris functional with IExCor= 4639 and IRadAn=       5 diagonalized for initial guess.
 HarFok:  IExCor= 4639 AccDes= 0.00D+00 IRadAn=         5 IDoV= 1 UseB2=F ITyADJ=14
 ICtDFT=  3500011 ScaDFX=  1.000000  1.000000  1.000000  1.000000
 FoFCou: FMM=F IPFlag=           0 FMFlag=      100000 FMFlg1=           0
         NFxFlg=           0 DoJE=T BraDBF=F KetDBF=T FulRan=T
         wScrn=  0.000000 ICntrl=       500 IOpCl=  0 I1Cent=   200000004 NGrid=           0
         NMat0=    1 NMatS0=      1 NMatT0=    0 NMatD0=    1 NMtDS0=    0 NMtDT0=    0
 Petite list used in FoFCou.
 Requested convergence on RMS density matrix=1.00D-08 within 128 cycles.
 Requested convergence on MAX density matrix=1.00D-06.
 Requested convergence on             energy=1.00D-06.
 No special actions if energy rises.
 Integral accuracy reduced to 1.0D-05 until final iterations.
 Initial convergence to 1.0D-05 achieved.  Increase integral accuracy.
 SCF Done:  E(RwB97XD) =  -632.517620901     A.U. after   15 cycles
            NFock= 15  Conv=0.35D-08     -V/T= 2.0108

 **********************************************************************

            Population analysis using the SCF Density.

 **********************************************************************

 Orbital symmetries:
       Occupied  (A) (A) (A) (A) (A) (A) (A) (A) (A) (A) (A) (A)
                 (A) (A) (A) (A) (A) (A) (A) (A) (A) (A) (A) (A)
                 (A) (A) (A) (A) (A) (A) (A) (A) (A) (A) (A) (A)
                 (A) (A) (A) (A) (A) (A) (A) (A) (A) (A) (A) (A)
                 (A) (A) (A) (A) (A)
       Virtual   (A) (A) (A) (A) (A) (A) (A) (A) (A) (A) (A) (A)
                 (A) (A) (A) (A) (A) (A) (A) (A) (A) (A) (A) (A)
                 (A) (A) (A) (A) (A) (A) (A) (A) (A) (A) (A) (A)
                 (A) (A) (A) (A) (A) (A) (A) (A) (A) (A) (A) (A)
                 (A) (A) (A) (A) (A) (A) (A) (A) (A) (A) (A) (A)
                 (A) (A) (A) (A) (A) (A) (A) (A) (A) (A) (A) (A)
                 (A) (A) (A) (A) (A) (A) (A) (A) (A) (A) (A) (A)
                 (A) (A) (A) (A) (A) (A) (A) (A) (A) (A) (A) (A)
                 (A) (A) (A) (A) (A) (A) (A) (A) (A) (A) (A) (A)
                 (A) (A) (A) (A) (A) (A) (A) (A) (A) (A) (A) (A)
                 (A) (A) (A) (A) (A) (A) (A) (A) (A) (A) (A) (A)
                 (A) (A) (A) (A) (A) (A) (A) (A) (A) (A) (A) (A)
                 (A) (A) (A) (A) (A) (A) (A) (A) (A) (A) (A) (A)
                 (A) (A) (A) (A) (A) (A) (A) (A) (A) (A) (A) (A)
                 (A) (A) (A) (A) (A) (A) (A) (A) (A) (A) (A) (A)
                 (A) (A) (A) (A) (A) (A) (A) (A) (A) (A) (A) (A)
                 (A) (A) (A) (A) (A) (A) (A) (A) (A) (A) (A) (A)
                 (A) (A) (A) (A) (A) (A) (A) (A) (A) (A) (A) (A)
                 (A) (A) (A) (A) (A) (A)
 The electronic state is 1-A.
 Alpha  occ. eigenvalues --  -19.26502 -14.43598 -10.36285 -10.33153 -10.33149
 Alpha  occ. eigenvalues --  -10.31973 -10.31445 -10.31394 -10.31155 -10.31015
 Alpha  occ. eigenvalues --  -10.30721 -10.30642 -10.30586 -10.30515 -10.30501
 Alpha  occ. eigenvalues --   -1.12912  -1.03679  -0.96028  -0.90937  -0.88483
 Alpha  occ. eigenvalues --   -0.85720  -0.84171  -0.80897  -0.74992  -0.72024
 Alpha  occ. eigenvalues --   -0.70275  -0.69509  -0.67624  -0.62371  -0.61011
 Alpha  occ. eigenvalues --   -0.59114  -0.58201  -0.56070  -0.54967  -0.53969
 Alpha  occ. eigenvalues --   -0.52602  -0.51704  -0.50947  -0.50291  -0.48691
 Alpha  occ. eigenvalues --   -0.48067  -0.47130  -0.46571  -0.44475  -0.43865
 Alpha  occ. eigenvalues --   -0.42600  -0.41645  -0.37901  -0.36566  -0.33946
 Alpha  occ. eigenvalues --   -0.33175  -0.32963  -0.32546
 Alpha virt. eigenvalues --    0.04167   0.05038   0.05657   0.05892   0.12581
 Alpha virt. eigenvalues --    0.13745   0.15569   0.15843   0.17189   0.18585
 Alpha virt. eigenvalues --    0.20151   0.20351   0.20605   0.21567   0.22277
 Alpha virt. eigenvalues --    0.23041   0.23570   0.23834   0.25442   0.27317
 Alpha virt. eigenvalues --    0.30471   0.31920   0.32463   0.33670   0.36420
 Alpha virt. eigenvalues --    0.36835   0.37495   0.38541   0.39083   0.39802
 Alpha virt. eigenvalues --    0.41221   0.44004   0.45347   0.46226   0.46862
 Alpha virt. eigenvalues --    0.48651   0.50172   0.51348   0.51884   0.52239
 Alpha virt. eigenvalues --    0.54062   0.54537   0.55892   0.56270   0.57056
 Alpha virt. eigenvalues --    0.57770   0.58937   0.59240   0.60032   0.61513
 Alpha virt. eigenvalues --    0.62139   0.62534   0.64964   0.66224   0.66509
 Alpha virt. eigenvalues --    0.68602   0.69443   0.70471   0.70881   0.71624
 Alpha virt. eigenvalues --    0.72053   0.73413   0.73429   0.74857   0.75321
 Alpha virt. eigenvalues --    0.75546   0.75725   0.76284   0.77641   0.78344
 Alpha virt. eigenvalues --    0.78964   0.79591   0.81355   0.81400   0.82392
 Alpha virt. eigenvalues --    0.82697   0.83011   0.83523   0.83851   0.85035
 Alpha virt. eigenvalues --    0.86734   0.87591   0.88981   0.91785   0.92071
 Alpha virt. eigenvalues --    0.95017   0.98414   1.00397   1.02280   1.04573
 Alpha virt. eigenvalues --    1.05333   1.08750   1.10079   1.13435   1.14252
 Alpha virt. eigenvalues --    1.14659   1.19013   1.19717   1.21837   1.25414
 Alpha virt. eigenvalues --    1.26891   1.28910   1.30405   1.32731   1.32997
 Alpha virt. eigenvalues --    1.33843   1.34196   1.35421   1.37096   1.37701
 Alpha virt. eigenvalues --    1.38644   1.41112   1.42440   1.43511   1.44450
 Alpha virt. eigenvalues --    1.46615   1.49244   1.54102   1.57444   1.58965
 Alpha virt. eigenvalues --    1.62807   1.65606   1.69994   1.72229   1.75520
 Alpha virt. eigenvalues --    1.75871   1.77965   1.78211   1.78916   1.80353
 Alpha virt. eigenvalues --    1.81299   1.82557   1.82951   1.83597   1.84261
 Alpha virt. eigenvalues --    1.84938   1.85925   1.86514   1.86885   1.88336
 Alpha virt. eigenvalues --    1.88999   1.89679   1.91512   1.91764   1.93019
 Alpha virt. eigenvalues --    1.93784   1.95315   1.96343   1.99664   2.01992
 Alpha virt. eigenvalues --    2.02938   2.03484   2.04034   2.04632   2.06112
 Alpha virt. eigenvalues --    2.07061   2.07569   2.09458   2.10103   2.11121
 Alpha virt. eigenvalues --    2.16165   2.18192   2.19550   2.20955   2.22702
 Alpha virt. eigenvalues --    2.23767   2.25003   2.25149   2.27765   2.28619
 Alpha virt. eigenvalues --    2.31678   2.34253   2.36150   2.37803   2.38211
 Alpha virt. eigenvalues --    2.38874   2.39463   2.42460   2.43047   2.44362
 Alpha virt. eigenvalues --    2.47364   2.48918   2.50139   2.51298   2.55380
 Alpha virt. eigenvalues --    2.58381   2.60643   2.62940   2.66253   2.69022
 Alpha virt. eigenvalues --    2.70138   2.71269   2.72391   2.72818   2.75434
 Alpha virt. eigenvalues --    2.80383   2.80468   2.81268   2.81502   2.90309
 Alpha virt. eigenvalues --    2.91264   2.93387   2.95160   2.96813   2.97639
 Alpha virt. eigenvalues --    3.00932   3.04169   3.05777   3.08253   3.10458
 Alpha virt. eigenvalues --    3.13211   3.16615   3.20376   3.21798   3.23074
 Alpha virt. eigenvalues --    3.23559   3.34075   3.42266   3.50228   3.71998
 Alpha virt. eigenvalues --    3.72210   3.85913
          Condensed to atoms (all electrons):
               1          2          3          4          5          6
     1  O    7.749776   0.340401  -0.050079   0.007121   0.000025   0.000000
     2  C    0.340401   4.731360   0.446138  -0.063860  -0.011400   0.000239
     3  C   -0.050079   0.446138   4.835370   0.303501  -0.072061   0.009761
     4  C    0.007121  -0.063860   0.303501   5.332079   0.327531   0.068540
     5  C    0.000025  -0.011400  -0.072061   0.327531   5.033510   0.343188
     6  C    0.000000   0.000239   0.009761   0.068540   0.343188   4.984165
     7  C    0.000000   0.000045  -0.000340  -0.138128   0.062750   0.324596
     8  C   -0.000000   0.000393   0.009393   0.069570  -0.115382   0.060252
     9  C    0.000029  -0.005819  -0.087478   0.309591   0.034211  -0.114228
    10  C   -0.073103   0.156243  -0.096046   0.014595   0.001804   0.000189
    11  C    0.007385  -0.059016  -0.004745  -0.000810   0.000258   0.000064
    12  C    0.001570   0.012284  -0.000104  -0.000148  -0.000019  -0.000019
    13  C   -0.000041   0.000170   0.000112   0.000021   0.000112   0.000037
    14  N   -0.000019   0.004671  -0.000071  -0.000271  -0.000557  -0.000035
    15  C    0.001945  -0.036037  -0.013728   0.001715   0.001563   0.000324
    16  H    0.335819  -0.038428  -0.009349   0.000987   0.000028   0.000001
    17  H   -0.027986   0.389879  -0.020845  -0.010534  -0.000111   0.000074
    18  H   -0.002127  -0.004890   0.342839  -0.012681  -0.009247   0.000892
    19  H    0.007072  -0.032479   0.358340   0.002562   0.006819  -0.000520
    20  H   -0.000010  -0.001507  -0.013846  -0.069091   0.446427  -0.058286
    21  H   -0.000000  -0.000007  -0.000217   0.014497  -0.063105   0.446107
    22  H    0.000000   0.000001   0.000018  -0.001425   0.012567  -0.062281
    23  H   -0.000000  -0.000008  -0.000261   0.014127  -0.001609   0.012475
    24  H   -0.000056  -0.001609  -0.010731  -0.070455   0.012829  -0.001642
    25  H    0.015166  -0.010673   0.000446  -0.000332   0.000015   0.000002
    26  H   -0.000016  -0.000160  -0.000005   0.000002  -0.000003  -0.000000
    27  H   -0.000000   0.000059   0.000001  -0.000001   0.000005  -0.000002
    28  H   -0.000001  -0.002166  -0.003640   0.001270  -0.001041  -0.000977
               7          8          9         10         11         12
     1  O    0.000000  -0.000000   0.000029  -0.073103   0.007385   0.001570
     2  C    0.000045   0.000393  -0.005819   0.156243  -0.059016   0.012284
     3  C   -0.000340   0.009393  -0.087478  -0.096046  -0.004745  -0.000104
     4  C   -0.138128   0.069570   0.309591   0.014595  -0.000810  -0.000148
     5  C    0.062750  -0.115382   0.034211   0.001804   0.000258  -0.000019
     6  C    0.324596   0.060252  -0.114228   0.000189   0.000064  -0.000019
     7  C    5.045480   0.322509   0.063191  -0.000054   0.000000   0.000000
     8  C    0.322509   4.989688   0.341459   0.000119  -0.000001   0.000000
     9  C    0.063191   0.341459   5.090266  -0.003288  -0.000080   0.000001
    10  C   -0.000054   0.000119  -0.003288   5.559542   0.416756  -0.003925
    11  C    0.000000  -0.000001  -0.000080   0.416756   4.907414   0.415836
    12  C    0.000000   0.000000   0.000001  -0.003925   0.415836   4.961893
    13  C    0.000000  -0.000001  -0.000004  -0.067946  -0.007263   0.443549
    14  N   -0.000044   0.000011   0.000049  -0.037448  -0.049132  -0.038856
    15  C   -0.000259  -0.000292  -0.000873   0.437642  -0.032646  -0.055434
    16  H    0.000000  -0.000001   0.000091  -0.006325   0.003914   0.000104
    17  H    0.000008  -0.000588   0.008533  -0.058920   0.006781  -0.000115
    18  H    0.000047  -0.000559   0.010787  -0.017048   0.004053  -0.000331
    19  H    0.000026   0.000699  -0.012088   0.016429  -0.000458  -0.000004
    20  H    0.012883  -0.001643   0.013009   0.001177   0.000180   0.000162
    21  H   -0.066569   0.012673  -0.001772  -0.000004   0.000000  -0.000001
    22  H    0.444294  -0.063288   0.012483   0.000000  -0.000000   0.000000
    23  H   -0.065563   0.445785  -0.064269   0.000003  -0.000000  -0.000000
    24  H    0.012605  -0.057675   0.445302   0.000070  -0.000000   0.000000
    25  H   -0.000000   0.000000  -0.000003  -0.073853   0.429743  -0.043250
    26  H    0.000000  -0.000000   0.000000   0.012499  -0.055423   0.420874
    27  H    0.000000  -0.000000   0.000000   0.001130   0.006563  -0.067513
    28  H    0.000720   0.001113   0.001509  -0.071647   0.005634   0.000881
              13         14         15         16         17         18
     1  O   -0.000041  -0.000019   0.001945   0.335819  -0.027986  -0.002127
     2  C    0.000170   0.004671  -0.036037  -0.038428   0.389879  -0.004890
     3  C    0.000112  -0.000071  -0.013728  -0.009349  -0.020845   0.342839
     4  C    0.000021  -0.000271   0.001715   0.000987  -0.010534  -0.012681
     5  C    0.000112  -0.000557   0.001563   0.000028  -0.000111  -0.009247
     6  C    0.000037  -0.000035   0.000324   0.000001   0.000074   0.000892
     7  C    0.000000  -0.000044  -0.000259   0.000000   0.000008   0.000047
     8  C   -0.000001   0.000011  -0.000292  -0.000001  -0.000588  -0.000559
     9  C   -0.000004   0.000049  -0.000873   0.000091   0.008533   0.010787
    10  C   -0.067946  -0.037448   0.437642  -0.006325  -0.058920  -0.017048
    11  C   -0.007263  -0.049132  -0.032646   0.003914   0.006781   0.004053
    12  C    0.443549  -0.038856  -0.055434   0.000104  -0.000115  -0.000331
    13  C    4.755817   0.524062  -0.066939  -0.000002  -0.000019  -0.000024
    14  N    0.524062   6.256528   0.546486   0.000005   0.000154  -0.000019
    15  C   -0.066939   0.546486   4.727485  -0.000023  -0.001018  -0.000624
    16  H   -0.000002   0.000005  -0.000023   0.517713   0.008255   0.008409
    17  H   -0.000019   0.000154  -0.001018   0.008255   0.672714   0.009184
    18  H   -0.000024  -0.000019  -0.000624   0.008409   0.009184   0.690740
    19  H    0.000001   0.000005   0.000095  -0.000811  -0.012696  -0.033637
    20  H    0.000120  -0.000045   0.000049   0.000007   0.000007   0.005282
    21  H    0.000003   0.000011   0.000046   0.000000   0.000001  -0.000011
    22  H   -0.000000  -0.000000  -0.000006   0.000000  -0.000001  -0.000001
    23  H    0.000000   0.000000  -0.000012   0.000000   0.000004   0.000007
    24  H   -0.000000   0.000001   0.000096   0.000008   0.002177   0.000192
    25  H    0.009017  -0.000458   0.009428   0.001958   0.000634   0.000723
    26  H   -0.045235   0.005584   0.000056   0.000009   0.000007   0.000002
    27  H    0.423058  -0.038812   0.004416  -0.000000  -0.000000  -0.000000
    28  H    0.004686  -0.033787   0.427853  -0.000004   0.003948   0.000049
              19         20         21         22         23         24
     1  O    0.007072  -0.000010  -0.000000   0.000000  -0.000000  -0.000056
     2  C   -0.032479  -0.001507  -0.000007   0.000001  -0.000008  -0.001609
     3  C    0.358340  -0.013846  -0.000217   0.000018  -0.000261  -0.010731
     4  C    0.002562  -0.069091   0.014497  -0.001425   0.014127  -0.070455
     5  C    0.006819   0.446427  -0.063105   0.012567  -0.001609   0.012829
     6  C   -0.000520  -0.058286   0.446107  -0.062281   0.012475  -0.001642
     7  C    0.000026   0.012883  -0.066569   0.444294  -0.065563   0.012605
     8  C    0.000699  -0.001643   0.012673  -0.063288   0.445785  -0.057675
     9  C   -0.012088   0.013009  -0.001772   0.012483  -0.064269   0.445302
    10  C    0.016429   0.001177  -0.000004   0.000000   0.000003   0.000070
    11  C   -0.000458   0.000180   0.000000  -0.000000  -0.000000  -0.000000
    12  C   -0.000004   0.000162  -0.000001   0.000000  -0.000000   0.000000
    13  C    0.000001   0.000120   0.000003  -0.000000   0.000000  -0.000000
    14  N    0.000005  -0.000045   0.000011  -0.000000   0.000000   0.000001
    15  C    0.000095   0.000049   0.000046  -0.000006  -0.000012   0.000096
    16  H   -0.000811   0.000007   0.000000   0.000000   0.000000   0.000008
    17  H   -0.012696   0.000007   0.000001  -0.000001   0.000004   0.002177
    18  H   -0.033637   0.005282  -0.000011  -0.000001   0.000007   0.000192
    19  H    0.650701   0.000237   0.000007  -0.000001  -0.000001   0.003641
    20  H    0.000237   0.666194  -0.011679  -0.000216   0.000024  -0.000210
    21  H    0.000007  -0.011679   0.657653  -0.011060  -0.000218   0.000024
    22  H   -0.000001  -0.000216  -0.011060   0.655750  -0.011001  -0.000217
    23  H   -0.000001   0.000024  -0.000218  -0.011001   0.659333  -0.011493
    24  H    0.003641  -0.000210   0.000024  -0.000217  -0.011493   0.665617
    25  H   -0.000219  -0.000012   0.000000  -0.000000   0.000000   0.000000
    26  H   -0.000000   0.000003  -0.000000   0.000000  -0.000000   0.000000
    27  H    0.000000  -0.000001  -0.000000   0.000000  -0.000000  -0.000000
    28  H   -0.000036   0.000028  -0.000030   0.000002   0.000030  -0.000039
              25         26         27         28
     1  O    0.015166  -0.000016  -0.000000  -0.000001
     2  C   -0.010673  -0.000160   0.000059  -0.002166
     3  C    0.000446  -0.000005   0.000001  -0.003640
     4  C   -0.000332   0.000002  -0.000001   0.001270
     5  C    0.000015  -0.000003   0.000005  -0.001041
     6  C    0.000002  -0.000000  -0.000002  -0.000977
     7  C   -0.000000   0.000000   0.000000   0.000720
     8  C    0.000000  -0.000000  -0.000000   0.001113
     9  C   -0.000003   0.000000   0.000000   0.001509
    10  C   -0.073853   0.012499   0.001130  -0.071647
    11  C    0.429743  -0.055423   0.006563   0.005634
    12  C   -0.043250   0.420874  -0.067513   0.000881
    13  C    0.009017  -0.045235   0.423058   0.004686
    14  N   -0.000458   0.005584  -0.038812  -0.033787
    15  C    0.009428   0.000056   0.004416   0.427853
    16  H    0.001958   0.000009  -0.000000  -0.000004
    17  H    0.000634   0.000007  -0.000000   0.003948
    18  H    0.000723   0.000002  -0.000000   0.000049
    19  H   -0.000219  -0.000000   0.000000  -0.000036
    20  H   -0.000012   0.000003  -0.000001   0.000028
    21  H    0.000000  -0.000000  -0.000000  -0.000030
    22  H   -0.000000   0.000000   0.000000   0.000002
    23  H    0.000000  -0.000000  -0.000000   0.000030
    24  H    0.000000   0.000000  -0.000000  -0.000039
    25  H    0.664222  -0.010843  -0.000272  -0.000210
    26  H   -0.010843   0.651198  -0.005999   0.000060
    27  H   -0.000272  -0.005999   0.642499  -0.000270
    28  H   -0.000210   0.000060  -0.000270   0.635034
 Mulliken charges:
               1
     1  O   -0.312869
     2  C    0.186174
     3  C    0.077629
     4  C   -0.099974
     5  C   -0.009107
     6  C   -0.012916
     7  C   -0.018198
     8  C   -0.014234
     9  C   -0.040607
    10  C   -0.108592
    11  C    0.004992
    12  C   -0.047434
    13  C    0.026710
    14  N   -0.138013
    15  C    0.048692
    16  H    0.177634
    17  H    0.030472
    18  H    0.007992
    19  H    0.046315
    20  H    0.010760
    21  H    0.023650
    22  H    0.024382
    23  H    0.022646
    24  H    0.011563
    25  H    0.008772
    26  H    0.027389
    27  H    0.035140
    28  H    0.031030
 Sum of Mulliken charges =  -0.00000
 Mulliken charges with hydrogens summed into heavy atoms:
               1
     1  O   -0.135235
     2  C    0.216646
     3  C    0.131936
     4  C   -0.099974
     5  C    0.001653
     6  C    0.010734
     7  C    0.006183
     8  C    0.008412
     9  C   -0.029044
    10  C   -0.108592
    11  C    0.013765
    12  C   -0.020045
    13  C    0.061850
    14  N   -0.138013
    15  C    0.079723
 Electronic spatial extent (au):  <R**2>=           3181.1429
 Charge=             -0.0000 electrons
 Dipole moment (field-independent basis, Debye):
    X=              0.1737    Y=              1.0667    Z=              2.1579  Tot=              2.4135
 Quadrupole moment (field-independent basis, Debye-Ang):
   XX=            -81.9526   YY=            -89.3797   ZZ=            -86.6177
   XY=             -0.1832   XZ=             -9.5434   YZ=             -0.3357
 Traceless Quadrupole moment (field-independent basis, Debye-Ang):
   XX=              4.0307   YY=             -3.3964   ZZ=             -0.6344
   XY=             -0.1832   XZ=             -9.5434   YZ=             -0.3357
 Octapole moment (field-independent basis, Debye-Ang**2):
  XXX=            -22.1830  YYY=              8.7704  ZZZ=             -0.2881  XYY=              5.6006
  XXY=            -18.4902  XXZ=              1.7687  XZZ=             -1.3634  YZZ=             11.3533
  YYZ=             23.3135  XYZ=            -10.2061
 Hexadecapole moment (field-independent basis, Debye-Ang**3):
 XXXX=          -2620.2677 YYYY=          -1226.8138 ZZZZ=           -372.1240 XXXY=            -22.6217
 XXXZ=           -124.7821 YYYX=             -0.3347 YYYZ=             13.8070 ZZZX=            -14.8403
 ZZZY=             -9.4942 XXYY=           -606.1109 XXZZ=           -515.8097 YYZZ=           -260.5017
 XXYZ=              0.5740 YYXZ=            -35.9157 ZZXY=            -19.5066
 N-N= 9.323262368645D+02 E-N=-3.331925768016D+03  KE= 6.257854212448D+02
   1 Symmetry operations used in ECPInt.
 ECPInt:  NShTT=    8385 NPrTT=   30369 LenC2=    8061 LenP2D=   21573.
 LDataN:  DoStor=T MaxTD1= 5 Len=  102
 Calling FoFJK, ICntrl=      2127 FMM=F ISym2X=0 I1Cent= 0 IOpClX= 0 NMat=1 NMatS=1 NMatT=0.
 ***** Axes restored to original set *****
 -------------------------------------------------------------------
 Center     Atomic                   Forces (Hartrees/Bohr)
 Number     Number              X              Y              Z
 -------------------------------------------------------------------
      1        8           0.000006158   -0.000005922   -0.000006021
      2        6          -0.000001542    0.000014195    0.000003805
      3        6           0.000002296   -0.000008365   -0.000011033
      4        6          -0.000003878   -0.000000677    0.000001386
      5        6           0.000001207    0.000001516    0.000003671
      6        6           0.000003129    0.000006889   -0.000006856
      7        6          -0.000004364   -0.000004090    0.000011632
      8        6          -0.000011180    0.000009901    0.000005584
      9        6           0.000011430   -0.000018450    0.000002435
     10        6          -0.000002902    0.000001433    0.000004333
     11        6           0.000008288   -0.000003004   -0.000007818
     12        6          -0.000005335    0.000001554    0.000000412
     13        6           0.000010008    0.000010721   -0.000004910
     14        7          -0.000009890   -0.000009865    0.000004464
     15        6           0.000006723    0.000001917   -0.000003409
     16        1           0.000001493    0.000002052   -0.000007444
     17        1           0.000001817   -0.000002979   -0.000003630
     18        1          -0.000002717    0.000002862    0.000000389
     19        1           0.000000851    0.000001731   -0.000000322
     20        1          -0.000003630    0.000002508    0.000002146
     21        1          -0.000003777   -0.000003233    0.000008997
     22        1           0.000000264   -0.000003977    0.000006375
     23        1           0.000002368   -0.000005793    0.000004181
     24        1           0.000002249    0.000003016   -0.000003132
     25        1          -0.000004257    0.000006893   -0.000003162
     26        1           0.000000416    0.000004254   -0.000004642
     27        1          -0.000002350   -0.000001250    0.000001048
     28        1          -0.000002877   -0.000003838    0.000001522
 -------------------------------------------------------------------
 Cartesian Forces:  Max     0.000018450 RMS     0.000005776

 GradGradGradGradGradGradGradGradGradGradGradGradGradGradGradGradGradGrad
 Berny optimization.
 FormGI is forming the generalized inverse of G from B-inverse, IUseBI=4.
 Internal  Forces:  Max     0.000014006 RMS     0.000002393
 Search for a local minimum.
 Step number   1 out of a maximum of  154
 All quantities printed in internal units (Hartrees-Bohrs-Radians)
 Mixed Optimization -- En-DIIS/RFO-DIIS
 Second derivative matrix not updated -- first step.
 ITU=  0
     Eigenvalues ---    0.00230   0.00510   0.00683   0.01451   0.01532
     Eigenvalues ---    0.01621   0.02110   0.02134   0.02137   0.02143
     Eigenvalues ---    0.02158   0.02165   0.02168   0.02170   0.02173
     Eigenvalues ---    0.02180   0.02183   0.02204   0.02250   0.02319
     Eigenvalues ---    0.02511   0.03924   0.04578   0.05335   0.05447
     Eigenvalues ---    0.08017   0.09508   0.12986   0.15995   0.15998
     Eigenvalues ---    0.15999   0.16000   0.16000   0.16000   0.16000
     Eigenvalues ---    0.16000   0.16000   0.16000   0.18065   0.20529
     Eigenvalues ---    0.21999   0.22000   0.22000   0.22014   0.23200
     Eigenvalues ---    0.23440   0.23458   0.24955   0.24996   0.28134
     Eigenvalues ---    0.30429   0.31730   0.33221   0.33416   0.33525
     Eigenvalues ---    0.34059   0.34176   0.34366   0.34450   0.34552
     Eigenvalues ---    0.34552   0.34579   0.34582   0.34630   0.42084
     Eigenvalues ---    0.42125   0.42195   0.44519   0.44744   0.45958
     Eigenvalues ---    0.46039   0.46223   0.46633   0.46721   0.46775
     Eigenvalues ---    0.55090   0.57036   0.58566
 RFO step:  Lambda= 0.00000000D+00 EMin= 2.30000000D-03
 Linear search not attempted -- first point.
 Iteration  1 RMS(Cart)=  0.00010261 RMS(Int)=  0.00000000
 Iteration  2 RMS(Cart)=  0.00000000 RMS(Int)=  0.00000000
 Variable       Old X    -DE/DX   Delta X   Delta X   Delta X     New X
                                 (Linear)    (Quad)   (Total)
    R1        2.65575  -0.00001   0.00000  -0.00002  -0.00002   2.65573
    R2        1.81752  -0.00000   0.00000  -0.00000  -0.00000   1.81751
    R3        2.91845  -0.00000   0.00000  -0.00002  -0.00002   2.91844
    R4        2.87117   0.00000   0.00000   0.00001   0.00001   2.87117
    R5        2.08327   0.00000   0.00000   0.00000   0.00000   2.08328
    R6        2.84641  -0.00000   0.00000  -0.00001  -0.00001   2.84639
    R7        2.08664   0.00000   0.00000   0.00001   0.00001   2.08665
    R8        2.08140   0.00000   0.00000   0.00000   0.00000   2.08140
    R9        2.64241  -0.00000   0.00000  -0.00001  -0.00001   2.64240
   R10        2.64509   0.00000   0.00000   0.00000   0.00000   2.64509
   R11        2.63350  -0.00000   0.00000  -0.00000  -0.00000   2.63350
   R12        2.06577   0.00000   0.00000   0.00000   0.00000   2.06577
   R13        2.63361  -0.00001   0.00000  -0.00002  -0.00002   2.63360
   R14        2.06359   0.00001   0.00000   0.00001   0.00001   2.06361
   R15        2.63565   0.00000   0.00000   0.00000   0.00000   2.63565
   R16        2.06364   0.00000   0.00000   0.00001   0.00001   2.06365
   R17        2.63305  -0.00001   0.00000  -0.00003  -0.00003   2.63302
   R18        2.06409   0.00000   0.00000   0.00000   0.00000   2.06409
   R19        2.06717   0.00001   0.00000   0.00002   0.00002   2.06719
   R20        2.63366  -0.00001   0.00000  -0.00001  -0.00001   2.63365
   R21        2.64840   0.00001   0.00000   0.00001   0.00001   2.64841
   R22        2.63156  -0.00000   0.00000  -0.00000  -0.00000   2.63156
   R23        2.06409   0.00001   0.00000   0.00002   0.00002   2.06410
   R24        2.63278  -0.00000   0.00000  -0.00000  -0.00000   2.63278
   R25        2.06279  -0.00000   0.00000  -0.00001  -0.00001   2.06279
   R26        2.51618  -0.00001   0.00000  -0.00002  -0.00002   2.51617
   R27        2.07035   0.00000   0.00000   0.00001   0.00001   2.07035
   R28        2.51137   0.00000   0.00000   0.00001   0.00001   2.51138
   R29        2.07231  -0.00000   0.00000  -0.00001  -0.00001   2.07230
    A1        1.89667   0.00000   0.00000   0.00000   0.00000   1.89667
    A2        1.92189   0.00000   0.00000   0.00002   0.00002   1.92191
    A3        1.96521   0.00000   0.00000   0.00001   0.00001   1.96522
    A4        1.84737  -0.00000   0.00000  -0.00000  -0.00000   1.84737
    A5        1.95727  -0.00000   0.00000  -0.00002  -0.00002   1.95726
    A6        1.88360   0.00000   0.00000   0.00001   0.00001   1.88361
    A7        1.88290  -0.00000   0.00000  -0.00001  -0.00001   1.88289
    A8        1.99586   0.00000   0.00000   0.00001   0.00001   1.99588
    A9        1.88448  -0.00000   0.00000  -0.00001  -0.00001   1.88447
   A10        1.86315  -0.00000   0.00000   0.00000   0.00000   1.86315
   A11        1.91573   0.00000   0.00000   0.00001   0.00001   1.91574
   A12        1.92546  -0.00000   0.00000   0.00000   0.00000   1.92546
   A13        1.87461  -0.00000   0.00000  -0.00002  -0.00002   1.87459
   A14        2.11388   0.00000   0.00000   0.00000   0.00000   2.11388
   A15        2.09888  -0.00000   0.00000  -0.00000  -0.00000   2.09888
   A16        2.06895  -0.00000   0.00000  -0.00000  -0.00000   2.06895
   A17        2.10900  -0.00000   0.00000  -0.00001  -0.00001   2.10899
   A18        2.08437   0.00000   0.00000  -0.00000  -0.00000   2.08437
   A19        2.08969   0.00000   0.00000   0.00001   0.00001   2.08970
   A20        2.09624   0.00000   0.00000   0.00001   0.00001   2.09624
   A21        2.09058  -0.00000   0.00000  -0.00001  -0.00001   2.09057
   A22        2.09634   0.00000   0.00000   0.00000   0.00000   2.09635
   A23        2.08778  -0.00000   0.00000  -0.00001  -0.00001   2.08777
   A24        2.09791   0.00000   0.00000   0.00000   0.00000   2.09792
   A25        2.09749   0.00000   0.00000   0.00000   0.00000   2.09749
   A26        2.09556   0.00000   0.00000   0.00000   0.00000   2.09557
   A27        2.09605  -0.00000   0.00000  -0.00001  -0.00001   2.09603
   A28        2.09158   0.00000   0.00000   0.00001   0.00001   2.09158
   A29        2.10882   0.00000   0.00000   0.00000   0.00000   2.10882
   A30        2.08517  -0.00000   0.00000  -0.00000  -0.00000   2.08516
   A31        2.08920  -0.00000   0.00000   0.00000   0.00000   2.08920
   A32        2.12456  -0.00000   0.00000  -0.00000  -0.00000   2.12456
   A33        2.11372   0.00000   0.00000   0.00001   0.00001   2.11373
   A34        2.04478  -0.00000   0.00000  -0.00000  -0.00000   2.04477
   A35        2.08191   0.00000   0.00000   0.00000   0.00000   2.08192
   A36        2.09832   0.00000   0.00000   0.00001   0.00001   2.09833
   A37        2.10269  -0.00000   0.00000  -0.00001  -0.00001   2.10268
   A38        2.06718  -0.00000   0.00000  -0.00001  -0.00001   2.06718
   A39        2.11359   0.00000   0.00000   0.00000   0.00000   2.11359
   A40        2.10236   0.00000   0.00000   0.00000   0.00000   2.10237
   A41        2.14851   0.00000   0.00000   0.00002   0.00002   2.14853
   A42        2.10042  -0.00000   0.00000  -0.00001  -0.00001   2.10041
   A43        2.03421  -0.00000   0.00000  -0.00001  -0.00001   2.03420
   A44        2.05824  -0.00000   0.00000  -0.00001  -0.00001   2.05823
   A45        2.16549  -0.00000   0.00000   0.00000   0.00000   2.16549
   A46        2.08785   0.00000   0.00000   0.00001   0.00001   2.08786
   A47        2.02984  -0.00000   0.00000  -0.00001  -0.00001   2.02983
    D1       -0.73135   0.00000   0.00000   0.00002   0.00002  -0.73133
    D2        1.46710  -0.00000   0.00000   0.00002   0.00002   1.46712
    D3       -2.76291  -0.00000   0.00000   0.00001   0.00001  -2.76291
    D4       -3.01743   0.00000   0.00000   0.00011   0.00011  -3.01732
    D5        1.12803  -0.00000   0.00000   0.00010   0.00010   1.12813
    D6       -0.88292   0.00000   0.00000   0.00012   0.00012  -0.88280
    D7        1.06282  -0.00000   0.00000   0.00010   0.00010   1.06292
    D8       -1.07491  -0.00000   0.00000   0.00009   0.00009  -1.07482
    D9       -3.08586   0.00000   0.00000   0.00011   0.00011  -3.08574
   D10       -1.00868   0.00000   0.00000   0.00012   0.00012  -1.00856
   D11        3.13678   0.00000   0.00000   0.00011   0.00011   3.13689
   D12        1.12583   0.00000   0.00000   0.00013   0.00013   1.12597
   D13       -0.46036  -0.00000   0.00000  -0.00001  -0.00001  -0.46037
   D14        2.69867  -0.00000   0.00000  -0.00005  -0.00005   2.69862
   D15        1.71886   0.00000   0.00000   0.00001   0.00001   1.71887
   D16       -1.40530   0.00000   0.00000  -0.00004  -0.00004  -1.40533
   D17       -2.49242   0.00000   0.00000  -0.00000  -0.00000  -2.49242
   D18        0.66661  -0.00000   0.00000  -0.00005  -0.00005   0.66656
   D19       -1.70683  -0.00000   0.00000  -0.00010  -0.00010  -1.70693
   D20        1.37549  -0.00000   0.00000  -0.00007  -0.00007   1.37542
   D21        0.41380  -0.00000   0.00000  -0.00010  -0.00010   0.41370
   D22       -2.78707  -0.00000   0.00000  -0.00007  -0.00007  -2.78714
   D23        2.47620  -0.00000   0.00000  -0.00012  -0.00012   2.47608
   D24       -0.72467  -0.00000   0.00000  -0.00009  -0.00009  -0.72476
   D25        3.07846  -0.00000   0.00000   0.00000   0.00000   3.07846
   D26       -0.04652   0.00000   0.00000   0.00002   0.00002  -0.04649
   D27       -0.00485  -0.00000   0.00000  -0.00003  -0.00003  -0.00488
   D28       -3.12983  -0.00000   0.00000  -0.00001  -0.00001  -3.12984
   D29       -3.07801  -0.00000   0.00000  -0.00001  -0.00001  -3.07802
   D30        0.06142  -0.00000   0.00000  -0.00001  -0.00001   0.06141
   D31        0.00581   0.00000   0.00000   0.00002   0.00002   0.00584
   D32       -3.13794   0.00000   0.00000   0.00002   0.00002  -3.13791
   D33       -0.00044   0.00000   0.00000   0.00002   0.00002  -0.00042
   D34       -3.13460   0.00000   0.00000   0.00001   0.00001  -3.13459
   D35        3.12449   0.00000   0.00000   0.00000   0.00000   3.12449
   D36       -0.00967  -0.00000   0.00000  -0.00001  -0.00001  -0.00968
   D37        0.00485  -0.00000   0.00000  -0.00001  -0.00001   0.00484
   D38       -3.13748  -0.00000   0.00000  -0.00000  -0.00000  -3.13748
   D39        3.13898  -0.00000   0.00000   0.00000   0.00000   3.13898
   D40       -0.00335   0.00000   0.00000   0.00001   0.00001  -0.00334
   D41       -0.00389   0.00000   0.00000   0.00001   0.00001  -0.00388
   D42        3.13682   0.00000   0.00000   0.00000   0.00000   3.13682
   D43        3.13844  -0.00000   0.00000  -0.00000  -0.00000   3.13844
   D44       -0.00404  -0.00000   0.00000  -0.00001  -0.00001  -0.00405
   D45       -0.00150  -0.00000   0.00000  -0.00001  -0.00001  -0.00151
   D46       -3.14093  -0.00000   0.00000  -0.00001  -0.00001  -3.14094
   D47        3.14098  -0.00000   0.00000  -0.00001  -0.00001   3.14097
   D48        0.00155  -0.00000   0.00000  -0.00001  -0.00001   0.00155
   D49       -3.10306  -0.00000   0.00000  -0.00002  -0.00002  -3.10308
   D50        0.06276   0.00000   0.00000   0.00001   0.00001   0.06278
   D51        0.02175   0.00000   0.00000   0.00002   0.00002   0.02177
   D52       -3.09561   0.00000   0.00000   0.00006   0.00006  -3.09555
   D53        3.10506   0.00000   0.00000   0.00001   0.00001   3.10507
   D54       -0.03653  -0.00000   0.00000  -0.00001  -0.00001  -0.03655
   D55       -0.01987  -0.00000   0.00000  -0.00003  -0.00003  -0.01990
   D56        3.12173  -0.00000   0.00000  -0.00006  -0.00006   3.12167
   D57       -0.00829   0.00000   0.00000   0.00000   0.00000  -0.00829
   D58       -3.13913   0.00000   0.00000   0.00001   0.00001  -3.13912
   D59        3.10900  -0.00000   0.00000  -0.00003  -0.00003   3.10897
   D60       -0.02183  -0.00000   0.00000  -0.00002  -0.00002  -0.02186
   D61       -0.00962  -0.00000   0.00000  -0.00002  -0.00002  -0.00964
   D62       -3.14063  -0.00000   0.00000  -0.00001  -0.00001  -3.14064
   D63        3.12129  -0.00000   0.00000  -0.00003  -0.00003   3.12126
   D64       -0.00972  -0.00000   0.00000  -0.00002  -0.00002  -0.00974
   D65        0.01240   0.00000   0.00000   0.00002   0.00002   0.01241
   D66       -3.13941   0.00000   0.00000   0.00000   0.00000  -3.13940
   D67        0.00284   0.00000   0.00000   0.00001   0.00001   0.00285
   D68       -3.13875   0.00000   0.00000   0.00003   0.00003  -3.13872
         Item               Value     Threshold  Converged?
 Maximum Force            0.000014     0.000450     YES
 RMS     Force            0.000002     0.000300     YES
 Maximum Displacement     0.000389     0.001800     YES
 RMS     Displacement     0.000103     0.001200     YES
 Predicted change in Energy=-1.668654D-09
 Optimization completed.
    -- Stationary point found.
                           ----------------------------
                           !   Optimized Parameters   !
                           ! (Angstroms and Degrees)  !
 --------------------------                            --------------------------
 ! Name  Definition              Value          Derivative Info.                !
 --------------------------------------------------------------------------------
 ! R1    R(1,2)                  1.4054         -DE/DX =    0.0                 !
 ! R2    R(1,16)                 0.9618         -DE/DX =    0.0                 !
 ! R3    R(2,3)                  1.5444         -DE/DX =    0.0                 !
 ! R4    R(2,10)                 1.5194         -DE/DX =    0.0                 !
 ! R5    R(2,17)                 1.1024         -DE/DX =    0.0                 !
 ! R6    R(3,4)                  1.5063         -DE/DX =    0.0                 !
 ! R7    R(3,18)                 1.1042         -DE/DX =    0.0                 !
 ! R8    R(3,19)                 1.1014         -DE/DX =    0.0                 !
 ! R9    R(4,5)                  1.3983         -DE/DX =    0.0                 !
 ! R10   R(4,9)                  1.3997         -DE/DX =    0.0                 !
 ! R11   R(5,6)                  1.3936         -DE/DX =    0.0                 !
 ! R12   R(5,20)                 1.0932         -DE/DX =    0.0                 !
 ! R13   R(6,7)                  1.3936         -DE/DX =    0.0                 !
 ! R14   R(6,21)                 1.092          -DE/DX =    0.0                 !
 ! R15   R(7,8)                  1.3947         -DE/DX =    0.0                 !
 ! R16   R(7,22)                 1.092          -DE/DX =    0.0                 !
 ! R17   R(8,9)                  1.3933         -DE/DX =    0.0                 !
 ! R18   R(8,23)                 1.0923         -DE/DX =    0.0                 !
 ! R19   R(9,24)                 1.0939         -DE/DX =    0.0                 !
 ! R20   R(10,11)                1.3937         -DE/DX =    0.0                 !
 ! R21   R(10,15)                1.4015         -DE/DX =    0.0                 !
 ! R22   R(11,12)                1.3926         -DE/DX =    0.0                 !
 ! R23   R(11,25)                1.0923         -DE/DX =    0.0                 !
 ! R24   R(12,13)                1.3932         -DE/DX =    0.0                 !
 ! R25   R(12,26)                1.0916         -DE/DX =    0.0                 !
 ! R26   R(13,14)                1.3315         -DE/DX =    0.0                 !
 ! R27   R(13,27)                1.0956         -DE/DX =    0.0                 !
 ! R28   R(14,15)                1.329          -DE/DX =    0.0                 !
 ! R29   R(15,28)                1.0966         -DE/DX =    0.0                 !
 ! A1    A(2,1,16)             108.6713         -DE/DX =    0.0                 !
 ! A2    A(1,2,3)              110.1163         -DE/DX =    0.0                 !
 ! A3    A(1,2,10)             112.5983         -DE/DX =    0.0                 !
 ! A4    A(1,2,17)             105.8464         -DE/DX =    0.0                 !
 ! A5    A(3,2,10)             112.1436         -DE/DX =    0.0                 !
 ! A6    A(3,2,17)             107.9223         -DE/DX =    0.0                 !
 ! A7    A(10,2,17)            107.8825         -DE/DX =    0.0                 !
 ! A8    A(2,3,4)              114.3545         -DE/DX =    0.0                 !
 ! A9    A(2,3,18)             107.9725         -DE/DX =    0.0                 !
 ! A10   A(2,3,19)             106.7505         -DE/DX =    0.0                 !
 ! A11   A(4,3,18)             109.7634         -DE/DX =    0.0                 !
 ! A12   A(4,3,19)             110.3207         -DE/DX =    0.0                 !
 ! A13   A(18,3,19)            107.4073         -DE/DX =    0.0                 !
 ! A14   A(3,4,5)              121.1162         -DE/DX =    0.0                 !
 ! A15   A(3,4,9)              120.2569         -DE/DX =    0.0                 !
 ! A16   A(5,4,9)              118.5421         -DE/DX =    0.0                 !
 ! A17   A(4,5,6)              120.8368         -DE/DX =    0.0                 !
 ! A18   A(4,5,20)             119.4257         -DE/DX =    0.0                 !
 ! A19   A(6,5,20)             119.7307         -DE/DX =    0.0                 !
 ! A20   A(5,6,7)              120.1055         -DE/DX =    0.0                 !
 ! A21   A(5,6,21)             119.7815         -DE/DX =    0.0                 !
 ! A22   A(7,6,21)             120.1116         -DE/DX =    0.0                 !
 ! A23   A(6,7,8)              119.621          -DE/DX =    0.0                 !
 ! A24   A(6,7,22)             120.2016         -DE/DX =    0.0                 !
 ! A25   A(8,7,22)             120.1774         -DE/DX =    0.0                 !
 ! A26   A(7,8,9)              120.0669         -DE/DX =    0.0                 !
 ! A27   A(7,8,23)             120.0946         -DE/DX =    0.0                 !
 ! A28   A(9,8,23)             119.8385         -DE/DX =    0.0                 !
 ! A29   A(4,9,8)              120.8265         -DE/DX =    0.0                 !
 ! A30   A(4,9,24)             119.4712         -DE/DX =    0.0                 !
 ! A31   A(8,9,24)             119.7023         -DE/DX =    0.0                 !
 ! A32   A(2,10,11)            121.7286         -DE/DX =    0.0                 !
 ! A33   A(2,10,15)            121.1072         -DE/DX =    0.0                 !
 ! A34   A(11,10,15)           117.1571         -DE/DX =    0.0                 !
 ! A35   A(10,11,12)           119.2848         -DE/DX =    0.0                 !
 ! A36   A(10,11,25)           120.2251         -DE/DX =    0.0                 !
 ! A37   A(12,11,25)           120.4754         -DE/DX =    0.0                 !
 ! A38   A(11,12,13)           118.441          -DE/DX =    0.0                 !
 ! A39   A(11,12,26)           121.0996         -DE/DX =    0.0                 !
 ! A40   A(13,12,26)           120.4565         -DE/DX =    0.0                 !
 ! A41   A(12,13,14)           123.1007         -DE/DX =    0.0                 !
 ! A42   A(12,13,27)           120.3452         -DE/DX =    0.0                 !
 ! A43   A(14,13,27)           116.5515         -DE/DX =    0.0                 !
 ! A44   A(13,14,15)           117.9285         -DE/DX =    0.0                 !
 ! A45   A(10,15,14)           124.0737         -DE/DX =    0.0                 !
 ! A46   A(10,15,28)           119.625          -DE/DX =    0.0                 !
 ! A47   A(14,15,28)           116.3013         -DE/DX =    0.0                 !
 ! D1    D(16,1,2,3)           -41.9036         -DE/DX =    0.0                 !
 ! D2    D(16,1,2,10)           84.0586         -DE/DX =    0.0                 !
 ! D3    D(16,1,2,17)         -158.3032         -DE/DX =    0.0                 !
 ! D4    D(1,2,3,4)           -172.8859         -DE/DX =    0.0                 !
 ! D5    D(1,2,3,18)            64.6313         -DE/DX =    0.0                 !
 ! D6    D(1,2,3,19)           -50.5876         -DE/DX =    0.0                 !
 ! D7    D(10,2,3,4)            60.8951         -DE/DX =    0.0                 !
 ! D8    D(10,2,3,18)          -61.5876         -DE/DX =    0.0                 !
 ! D9    D(10,2,3,19)         -176.8066         -DE/DX =    0.0                 !
 ! D10   D(17,2,3,4)           -57.7929         -DE/DX =    0.0                 !
 ! D11   D(17,2,3,18)          179.7244         -DE/DX =    0.0                 !
 ! D12   D(17,2,3,19)           64.5054         -DE/DX =    0.0                 !
 ! D13   D(1,2,10,11)          -26.3766         -DE/DX =    0.0                 !
 ! D14   D(1,2,10,15)          154.6224         -DE/DX =    0.0                 !
 ! D15   D(3,2,10,11)           98.4835         -DE/DX =    0.0                 !
 ! D16   D(3,2,10,15)          -80.5175         -DE/DX =    0.0                 !
 ! D17   D(17,2,10,11)        -142.805          -DE/DX =    0.0                 !
 ! D18   D(17,2,10,15)          38.194          -DE/DX =    0.0                 !
 ! D19   D(2,3,4,5)            -97.7941         -DE/DX =    0.0                 !
 ! D20   D(2,3,4,9)             78.8097         -DE/DX =    0.0                 !
 ! D21   D(18,3,4,5)            23.7088         -DE/DX =    0.0                 !
 ! D22   D(18,3,4,9)          -159.6874         -DE/DX =    0.0                 !
 ! D23   D(19,3,4,5)           141.8757         -DE/DX =    0.0                 !
 ! D24   D(19,3,4,9)           -41.5205         -DE/DX =    0.0                 !
 ! D25   D(3,4,5,6)            176.3829         -DE/DX =    0.0                 !
 ! D26   D(3,4,5,20)            -2.6651         -DE/DX =    0.0                 !
 ! D27   D(9,4,5,6)             -0.2778         -DE/DX =    0.0                 !
 ! D28   D(9,4,5,20)          -179.3258         -DE/DX =    0.0                 !
 ! D29   D(3,4,9,8)           -176.3571         -DE/DX =    0.0                 !
 ! D30   D(3,4,9,24)             3.5192         -DE/DX =    0.0                 !
 ! D31   D(5,4,9,8)              0.3332         -DE/DX =    0.0                 !
 ! D32   D(5,4,9,24)          -179.7905         -DE/DX =    0.0                 !
 ! D33   D(4,5,6,7)             -0.0252         -DE/DX =    0.0                 !
 ! D34   D(4,5,6,21)          -179.5992         -DE/DX =    0.0                 !
 ! D35   D(20,5,6,7)           179.02           -DE/DX =    0.0                 !
 ! D36   D(20,5,6,21)           -0.554          -DE/DX =    0.0                 !
 ! D37   D(5,6,7,8)              0.2776         -DE/DX =    0.0                 !
 ! D38   D(5,6,7,22)          -179.7645         -DE/DX =    0.0                 !
 ! D39   D(21,6,7,8)           179.8502         -DE/DX =    0.0                 !
 ! D40   D(21,6,7,22)           -0.1919         -DE/DX =    0.0                 !
 ! D41   D(6,7,8,9)             -0.2226         -DE/DX =    0.0                 !
 ! D42   D(6,7,8,23)           179.7264         -DE/DX =    0.0                 !
 ! D43   D(22,7,8,9)           179.8194         -DE/DX =    0.0                 !
 ! D44   D(22,7,8,23)           -0.2315         -DE/DX =    0.0                 !
 ! D45   D(7,8,9,4)             -0.0858         -DE/DX =    0.0                 !
 ! D46   D(7,8,9,24)          -179.9618         -DE/DX =    0.0                 !
 ! D47   D(23,8,9,4)           179.965          -DE/DX =    0.0                 !
 ! D48   D(23,8,9,24)            0.089          -DE/DX =    0.0                 !
 ! D49   D(2,10,11,12)        -177.7925         -DE/DX =    0.0                 !
 ! D50   D(2,10,11,25)           3.5961         -DE/DX =    0.0                 !
 ! D51   D(15,10,11,12)          1.2462         -DE/DX =    0.0                 !
 ! D52   D(15,10,11,25)       -177.3652         -DE/DX =    0.0                 !
 ! D53   D(2,10,15,14)         177.9068         -DE/DX =    0.0                 !
 ! D54   D(2,10,15,28)          -2.0932         -DE/DX =    0.0                 !
 ! D55   D(11,10,15,14)         -1.1383         -DE/DX =    0.0                 !
 ! D56   D(11,10,15,28)        178.8617         -DE/DX =    0.0                 !
 ! D57   D(10,11,12,13)         -0.475          -DE/DX =    0.0                 !
 ! D58   D(10,11,12,26)       -179.8588         -DE/DX =    0.0                 !
 ! D59   D(25,11,12,13)        178.1328         -DE/DX =    0.0                 !
 ! D60   D(25,11,12,26)         -1.251          -DE/DX =    0.0                 !
 ! D61   D(11,12,13,14)         -0.5512         -DE/DX =    0.0                 !
 ! D62   D(11,12,13,27)       -179.9448         -DE/DX =    0.0                 !
 ! D63   D(26,12,13,14)        178.8367         -DE/DX =    0.0                 !
 ! D64   D(26,12,13,27)         -0.5569         -DE/DX =    0.0                 !
 ! D65   D(12,13,14,15)          0.7102         -DE/DX =    0.0                 !
 ! D66   D(27,13,14,15)       -179.8748         -DE/DX =    0.0                 !
 ! D67   D(13,14,15,10)          0.1629         -DE/DX =    0.0                 !
 ! D68   D(13,14,15,28)       -179.8372         -DE/DX =    0.0                 !
 --------------------------------------------------------------------------------
 GradGradGradGradGradGradGradGradGradGradGradGradGradGradGradGradGradGrad

                          Input orientation:                          
 ---------------------------------------------------------------------
 Center     Atomic      Atomic             Coordinates (Angstroms)
 Number     Number       Type             X           Y           Z
 ---------------------------------------------------------------------
      1          8           0       -1.603480    2.767140   -0.221780
      2          6           0       -0.739650    1.670090   -0.380890
      3          6           0        0.425110    1.760310    0.629210
      4          6           0        1.499980    0.723690    0.432050
      5          6           0        1.521530   -0.448800    1.193660
      6          6           0        2.474100   -1.437780    0.955710
      7          6           0        3.421940   -1.267490   -0.051690
      8          6           0        3.414540   -0.100200   -0.815000
      9          6           0        2.460890    0.886330   -0.572650
[...]
     6  C   -0.000008   0.002010   0.010353   0.052232   0.374972   4.949601
     7  C    0.000006  -0.000342  -0.003753  -0.101906   0.050525   0.418814
     8  C   -0.000070   0.003006   0.015218   0.030697  -0.088008   0.028359
     9  C   -0.000232   0.003015  -0.103498   0.390352   0.042537  -0.084669
    10  C   -0.123970  -0.027404  -0.035796   0.095810  -0.005974   0.000701
    11  C    0.063483   0.023970   0.003228  -0.032221   0.004191   0.000415
    12  C    0.004860   0.011835  -0.000984  -0.000381   0.000399  -0.000196
    13  C    0.000179  -0.002203   0.000498   0.000356   0.000013   0.000648
    14  N   -0.000305   0.006283  -0.000383   0.001481  -0.001900   0.001443
    15  C   -0.006106  -0.056116  -0.002809   0.005927  -0.010820  -0.003734
    16  H    0.289825  -0.005992  -0.018593   0.002255   0.000415  -0.000006
    17  H   -0.035925   0.461828  -0.049885  -0.020951   0.005036  -0.000329
    18  H   -0.000477   0.003059   0.380046  -0.047546   0.010004   0.001082
    19  H    0.005923  -0.079902   0.422627  -0.017903   0.002962  -0.001246
    20  H    0.000003  -0.004605  -0.002093  -0.073333   0.452765  -0.050798
    21  H   -0.000000  -0.000015  -0.000253   0.012826  -0.055980   0.442571
    22  H    0.000000   0.000003   0.000020  -0.002894   0.010491  -0.053305
    23  H   -0.000000  -0.000005  -0.000220   0.012682  -0.003418   0.010498
    24  H    0.000341  -0.003071  -0.005091  -0.067125   0.012970  -0.004145
    25  H    0.017089   0.016896  -0.002665  -0.002312   0.000157   0.000032
    26  H   -0.000140  -0.000048   0.000008   0.000029  -0.000009  -0.000008
    27  H   -0.000004  -0.000009   0.000013  -0.000003   0.000049  -0.000030
    28  H    0.000097   0.006717  -0.001226  -0.010797   0.003330  -0.001728
               7          8          9         10         11         12
     1  O    0.000006  -0.000070  -0.000232  -0.123970   0.063483   0.004860
     2  C   -0.000342   0.003006   0.003015  -0.027404   0.023970   0.011835
     3  C   -0.003753   0.015218  -0.103498  -0.035796   0.003228  -0.000984
     4  C   -0.101906   0.030697   0.390352   0.095810  -0.032221  -0.000381
     5  C    0.050525  -0.088008   0.042537  -0.005974   0.004191   0.000399
     6  C    0.418814   0.028359  -0.084669   0.000701   0.000415  -0.000196
     7  C    4.943856   0.426951   0.037360  -0.000065  -0.000046   0.000019
     8  C    0.426951   4.940701   0.409644  -0.000069   0.000154  -0.000010
     9  C    0.037360   0.409644   5.127880  -0.009261  -0.001758   0.000166
    10  C   -0.000065  -0.000069  -0.009261   5.712986   0.191337  -0.073663
    11  C   -0.000046   0.000154  -0.001758   0.191337   5.193045   0.491437
    12  C    0.000019  -0.000010   0.000166  -0.073663   0.491437   4.899367
    13  C   -0.000085   0.000023  -0.000224  -0.051885   0.009846   0.500117
    14  N   -0.000418   0.000148  -0.000111  -0.026613  -0.080679  -0.044986
    15  C    0.001458  -0.001246   0.008315   0.459411  -0.021163  -0.013647
    16  H    0.000003  -0.000009   0.000153  -0.022549   0.004095   0.000520
    17  H    0.000241  -0.000772   0.002852  -0.099146   0.014993   0.000514
    18  H    0.000226  -0.000657   0.004289  -0.024458   0.004352   0.000029
    19  H    0.000378  -0.000065  -0.000488   0.020512  -0.001483   0.000003
    20  H    0.011213  -0.004172   0.013616   0.001317  -0.000403   0.000458
    21  H   -0.055392   0.010486  -0.003302  -0.000006  -0.000022  -0.000001
    22  H    0.440779  -0.054588   0.010399   0.000004  -0.000001   0.000000
    23  H   -0.054350   0.444348  -0.058706  -0.000001   0.000000  -0.000000
    24  H    0.010653  -0.051963   0.450884  -0.000200  -0.000154   0.000003
    25  H   -0.000002   0.000006  -0.000058  -0.105073   0.443839  -0.021934
    26  H    0.000000  -0.000000   0.000003   0.017149  -0.063144   0.420055
    27  H    0.000002  -0.000001   0.000003   0.001177   0.001951  -0.066360
    28  H    0.001456  -0.001057   0.000291  -0.087234   0.006732  -0.001011
              13         14         15         16         17         18
     1  O    0.000179  -0.000305  -0.006106   0.289825  -0.035925  -0.000477
     2  C   -0.002203   0.006283  -0.056116  -0.005992   0.461828   0.003059
     3  C    0.000498  -0.000383  -0.002809  -0.018593  -0.049885   0.380046
     4  C    0.000356   0.001481   0.005927   0.002255  -0.020951  -0.047546
     5  C    0.000013  -0.001900  -0.010820   0.000415   0.005036   0.010004
     6  C    0.000648   0.001443  -0.003734  -0.000006  -0.000329   0.001082
     7  C   -0.000085  -0.000418   0.001458   0.000003   0.000241   0.000226
     8  C    0.000023   0.000148  -0.001246  -0.000009  -0.000772  -0.000657
     9  C   -0.000224  -0.000111   0.008315   0.000153   0.002852   0.004289
    10  C   -0.051885  -0.026613   0.459411  -0.022549  -0.099146  -0.024458
    11  C    0.009846  -0.080679  -0.021163   0.004095   0.014993   0.004352
    12  C    0.500117  -0.044986  -0.013647   0.000520   0.000514   0.000029
    13  C    4.763392   0.509882  -0.103917  -0.000065  -0.000226  -0.000069
    14  N    0.509882   6.433496   0.507414   0.000025  -0.000269  -0.000118
    15  C   -0.103917   0.507414   4.904009  -0.000787  -0.010183   0.000193
    16  H   -0.000065   0.000025  -0.000787   0.420565   0.009869   0.007593
    17  H   -0.000226  -0.000269  -0.010183   0.009869   0.603186   0.007118
    18  H   -0.000069  -0.000118   0.000193   0.007593   0.007118   0.570131
    19  H   -0.000006   0.000027  -0.000014  -0.001205  -0.006978  -0.026093
    20  H    0.000038  -0.000104  -0.000626   0.000030  -0.000053   0.000928
    21  H    0.000034   0.000066  -0.000160  -0.000000  -0.000003  -0.000061
    22  H   -0.000001  -0.000005   0.000010   0.000000   0.000000  -0.000001
    23  H    0.000000   0.000001  -0.000039  -0.000000  -0.000015   0.000008
    24  H   -0.000002   0.000005   0.000360   0.000040   0.001349   0.000370
    25  H    0.005156  -0.002450   0.002443   0.000156   0.001013   0.000993
    26  H   -0.037261   0.007717  -0.002767   0.000014   0.000003  -0.000004
    27  H    0.430789  -0.029053   0.001633  -0.000000  -0.000007  -0.000003
    28  H    0.005839  -0.022784   0.447761  -0.000019   0.000732  -0.000084
              19         20         21         22         23         24
     1  O    0.005923   0.000003  -0.000000   0.000000  -0.000000   0.000341
     2  C   -0.079902  -0.004605  -0.000015   0.000003  -0.000005  -0.003071
     3  C    0.422627  -0.002093  -0.000253   0.000020  -0.000220  -0.005091
     4  C   -0.017903  -0.073333   0.012826  -0.002894   0.012682  -0.067125
     5  C    0.002962   0.452765  -0.055980   0.010491  -0.003418   0.012970
     6  C   -0.001246  -0.050798   0.442571  -0.053305   0.010498  -0.004145
     7  C    0.000378   0.011213  -0.055392   0.440779  -0.054350   0.010653
     8  C   -0.000065  -0.004172   0.010486  -0.054588   0.444348  -0.051963
     9  C   -0.000488   0.013616  -0.003302   0.010399  -0.058706   0.450884
    10  C    0.020512   0.001317  -0.000006   0.000004  -0.000001  -0.000200
    11  C   -0.001483  -0.000403  -0.000022  -0.000001   0.000000  -0.000154
    12  C    0.000003   0.000458  -0.000001   0.000000  -0.000000   0.000003
    13  C   -0.000006   0.000038   0.000034  -0.000001   0.000000  -0.000002
    14  N    0.000027  -0.000104   0.000066  -0.000005   0.000001   0.000005
    15  C   -0.000014  -0.000626  -0.000160   0.000010  -0.000039   0.000360
    16  H   -0.001205   0.000030  -0.000000   0.000000  -0.000000   0.000040
    17  H   -0.006978  -0.000053  -0.000003   0.000000  -0.000015   0.001349
    18  H   -0.026093   0.000928  -0.000061  -0.000001   0.000008   0.000370
    19  H    0.543518   0.000642   0.000007  -0.000001  -0.000030   0.001483
    20  H    0.000642   0.541256  -0.007125  -0.000118   0.000036  -0.000038
    21  H    0.000007  -0.007125   0.542116  -0.006882  -0.000122   0.000035
    22  H   -0.000001  -0.000118  -0.006882   0.540758  -0.006828  -0.000116
    23  H   -0.000030   0.000036  -0.000122  -0.006828   0.541346  -0.006928
    24  H    0.001483  -0.000038   0.000035  -0.000116  -0.006928   0.537435
    25  H   -0.000285  -0.000142  -0.000000  -0.000000   0.000000  -0.000007
    26  H    0.000001   0.000016  -0.000000   0.000000  -0.000000   0.000000
    27  H    0.000000   0.000008   0.000000   0.000000  -0.000000   0.000000
    28  H   -0.000048   0.000188  -0.000027  -0.000005  -0.000015  -0.000075
              25         26         27         28
     1  O    0.017089  -0.000140  -0.000004   0.000097
     2  C    0.016896  -0.000048  -0.000009   0.006717
     3  C   -0.002665   0.000008   0.000013  -0.001226
     4  C   -0.002312   0.000029  -0.000003  -0.010797
     5  C    0.000157  -0.000009   0.000049   0.003330
     6  C    0.000032  -0.000008  -0.000030  -0.001728
     7  C   -0.000002   0.000000   0.000002   0.001456
     8  C    0.000006  -0.000000  -0.000001  -0.001057
     9  C   -0.000058   0.000003   0.000003   0.000291
    10  C   -0.105073   0.017149   0.001177  -0.087234
    11  C    0.443839  -0.063144   0.001951   0.006732
    12  C   -0.021934   0.420055  -0.066360  -0.001011
    13  C    0.005156  -0.037261   0.430789   0.005839
    14  N   -0.002450   0.007717  -0.029053  -0.022784
    15  C    0.002443  -0.002767   0.001633   0.447761
    16  H    0.000156   0.000014  -0.000000  -0.000019
    17  H    0.001013   0.000003  -0.000007   0.000732
    18  H    0.000993  -0.000004  -0.000003  -0.000084
    19  H   -0.000285   0.000001   0.000000  -0.000048
    20  H   -0.000142   0.000016   0.000008   0.000188
    21  H   -0.000000  -0.000000   0.000000  -0.000027
    22  H   -0.000000   0.000000   0.000000  -0.000005
    23  H    0.000000  -0.000000  -0.000000  -0.000015
    24  H   -0.000007   0.000000   0.000000  -0.000075
    25  H    0.539548  -0.007686  -0.000326  -0.000060
    26  H   -0.007686   0.540515  -0.001265   0.000058
    27  H   -0.000326  -0.001265   0.534470  -0.000170
    28  H   -0.000060   0.000058  -0.000170   0.501355
 Mulliken charges:
               1
     1  O   -0.456996
     2  C    0.084185
     3  C   -0.249184
     4  C    0.153440
     5  C   -0.207883
     6  C   -0.093529
     7  C   -0.127580
     8  C   -0.107055
     9  C   -0.239449
    10  C    0.192964
    11  C   -0.255995
    12  C   -0.106607
    13  C   -0.030869
    14  N   -0.257809
    15  C   -0.104799
    16  H    0.313664
    17  H    0.116006
    18  H    0.109149
    19  H    0.137661
    20  H    0.121094
    21  H    0.121210
    22  H    0.122280
    23  H    0.121756
    24  H    0.122986
    25  H    0.115673
    26  H    0.126761
    27  H    0.127135
    28  H    0.151786
 Sum of Mulliken charges =   0.00000
 Mulliken charges with hydrogens summed into heavy atoms:
               1
     1  O   -0.143331
     2  C    0.200191
     3  C   -0.002374
     4  C    0.153440
     5  C   -0.086788
     6  C    0.027682
     7  C   -0.005300
     8  C    0.014701
     9  C   -0.116463
    10  C    0.192964
    11  C   -0.140321
    12  C    0.020154
    13  C    0.096266
    14  N   -0.257809
    15  C    0.046987
 Electronic spatial extent (au):  <R**2>=           3182.0269
 Charge=             -0.0000 electrons
 Dipole moment (field-independent basis, Debye):
    X=              0.1747    Y=              1.0308    Z=              2.1417  Tot=              2.3833
 Quadrupole moment (field-independent basis, Debye-Ang):
   XX=            -82.2300   YY=            -89.9200   ZZ=            -86.9890
   XY=             -0.0535   XZ=             -9.8834   YZ=             -0.5225
 Traceless Quadrupole moment (field-independent basis, Debye-Ang):
   XX=              4.1497   YY=             -3.5403   ZZ=             -0.6093
   XY=             -0.0535   XZ=             -9.8834   YZ=             -0.5225
 Octapole moment (field-independent basis, Debye-Ang**2):
  XXX=            -22.9956  YYY=              6.5521  ZZZ=             -0.0561  XYY=              6.0543
  XXY=            -20.0080  XXZ=              1.6478  XZZ=             -1.0437  YZZ=             11.9606
  YYZ=             23.7921  XYZ=            -10.3260
 Hexadecapole moment (field-independent basis, Debye-Ang**3):
 XXXX=          -2635.3414 YYYY=          -1248.3402 ZZZZ=           -379.9987 XXXY=            -21.4310
 XXXZ=           -134.9029 YYYX=              4.7926 YYYZ=             11.8489 ZZZX=            -16.4168
 ZZZY=            -11.0079 XXYY=           -607.3017 XXZZ=           -520.3583 YYZZ=           -264.6023
 XXYZ=              0.2540 YYXZ=            -36.4898 ZZXY=            -19.8290
 N-N= 9.323262368645D+02 E-N=-3.337241781043D+03  KE= 6.298049207544D+02
 Breneman (CHELPG) radii used.
 Read replacement radii for each type of atom:
 Atom Element Radius
    1     8    1.70
    2     6    1.50
    3     6    1.50
    4     6    1.50
    5     6    1.50
    6     6    1.50
    7     6    1.50
    8     6    1.50
    9     6    1.50
   10     6    1.50
   11     6    1.50
   12     6    1.50
   13     6    1.50
   14     7    1.70
   15     6    1.50
   16     1    1.45
   17     1    1.45
   18     1    1.45
   19     1    1.45
   20     1    1.45
   21     1    1.45
   22     1    1.45
   23     1    1.45
   24     1    1.45
   25     1    1.45
   26     1    1.45
   27     1    1.45
   28     1    1.45
 Generate Potential Derived Charges using the Breneman model, NDens= 1.
 Grid spacing= 0.300 Box extension= 2.800
 NStep X,Y,Z=   48     40     32   Total possible points=       61440
 Number of Points to Fit=   16835

 **********************************************************************

            Electrostatic Properties Using The SCF Density.

 **********************************************************************

       Atomic Center    1 is at  -1.603480  2.767139 -0.221780
       Atomic Center    2 is at  -0.739650  1.670089 -0.380890
       Atomic Center    3 is at   0.425110  1.760310  0.629210
       Atomic Center    4 is at   1.499981  0.723690  0.432050
       Atomic Center    5 is at   1.521531 -0.448800  1.193660
       Atomic Center    6 is at   2.474102 -1.437779  0.955710
       Atomic Center    7 is at   3.421942 -1.267488 -0.051690
       Atomic Center    8 is at   3.414541 -0.100198 -0.815000
       Atomic Center    9 is at   2.460891  0.886331 -0.572650
       Atomic Center   10 is at  -1.466279  0.338229 -0.299650
       Atomic Center   11 is at  -2.654829  0.194078  0.413720
       Atomic Center   12 is at  -3.253828 -1.060572  0.492970
       Atomic Center   13 is at  -2.642258 -2.130092 -0.157520
       Atomic Center   14 is at  -1.517928 -2.007071 -0.860130
       Atomic Center   15 is at  -0.953468 -0.805751 -0.926120
       Atomic Center   16 is at  -1.727331  2.927699  0.718390
       Atomic Center   17 is at  -0.317380  1.764029 -1.394890
       Atomic Center   18 is at   0.002470  1.671320  1.645440
       Atomic Center   19 is at   0.848480  2.772830  0.535920
       Atomic Center   20 is at   0.770942 -0.595760  1.974690
       Atomic Center   21 is at   2.471023 -2.349609  1.556570
       Atomic Center   22 is at   4.166702 -2.043138 -0.242040
       Atomic Center   23 is at   4.156621  0.043282 -1.603530
       Atomic Center   24 is at   2.460180  1.799231 -1.175330
       Atomic Center   25 is at  -3.121639  1.061598  0.885470
       Atomic Center   26 is at  -4.185998 -1.206673  1.041850
       Atomic Center   27 is at  -3.087077 -3.130462 -0.116410
       Atomic Center   28 is at  -0.030378 -0.734230 -1.513800
   16835 points will be used for fitting atomic charges
 Fitting point charges to electrostatic potential
 Charges from ESP fit, RMS=   0.00393 RRMS=   0.27380:
 ESP charges:
               1
     1  O   -0.703059
     2  C    0.613297
     3  C   -0.241140
     4  C    0.167582
     5  C   -0.146226
     6  C   -0.061529
     7  C   -0.125454
     8  C   -0.043005
     9  C   -0.196941
    10  C   -0.328830
    11  C    0.147410
    12  C   -0.375880
    13  C    0.397421
    14  N   -0.633922
    15  C    0.446803
    16  H    0.408610
    17  H   -0.027275
    18  H    0.024134
    19  H    0.047853
    20  H    0.082893
    21  H    0.091786
    22  H    0.096049
    23  H    0.081603
    24  H    0.109276
    25  H    0.047288
    26  H    0.136849
    27  H    0.015060
    28  H   -0.030653
 Sum of ESP charges =   0.00000
 ESP charges with hydrogens summed into heavy atoms:
               1
     1  O   -0.294449
     2  C    0.586022
     3  C   -0.169153
     4  C    0.167582
     5  C   -0.063334
     6  C    0.030258
     7  C   -0.029405
     8  C    0.038598
     9  C   -0.087665
    10  C   -0.328830
    11  C    0.194698
    12  C   -0.239030
    13  C    0.412480
    14  N   -0.633922
    15  C    0.416150
 Charge=   0.00000 Dipole=     0.3051     1.0603     2.1956 Tot=     2.4572
 -----------------------------------------------------------------

              Electrostatic Properties (Atomic Units)

 -----------------------------------------------------------------
    Center     Electric         -------- Electric Field --------
               Potential          X             Y             Z
 -----------------------------------------------------------------
    1 Atom    -22.347620
    2 Atom    -14.697836
    3 Atom    -14.752331
    4 Atom    -14.754125
    5 Atom    -14.766756
    6 Atom    -14.765801
    7 Atom    -14.766413
    8 Atom    -14.764442
    9 Atom    -14.765210
   10 Atom    -14.757564
   11 Atom    -14.752503
   12 Atom    -14.761582
   13 Atom    -14.739943
   14 Atom    -18.403410
   15 Atom    -14.740059
   16 Atom     -0.992869
   17 Atom     -1.110777
   18 Atom     -1.102562
   19 Atom     -1.106537
   20 Atom     -1.103909
   21 Atom     -1.105169
   22 Atom     -1.104843
   23 Atom     -1.103378
   24 Atom     -1.100868
   25 Atom     -1.091526
   26 Atom     -1.095040
   27 Atom     -1.108866
   28 Atom     -1.110460
 -----------------------------------------------------------------
 Unable to Open any file for archive entry.
 1\1\GINC-NOTCH404\SP\RwB97XD\def2TZVP\C13H13N1O1\U6053008\12-Jul-2024\
 0\\#N Guess=Read Geom=Check Integral(Ultrafine) Density Pop=(ChelpG,Re
 adRadii) NMR wB97XD def2TZVP\\12365813_5\\0,1\O,0,-1.60348,2.76714,-0.
 22178\C,0,-0.73965,1.67009,-0.38089\C,0,0.42511,1.76031,0.62921\C,0,1.
 49998,0.72369,0.43205\C,0,1.52153,-0.4488,1.19366\C,0,2.4741,-1.43778,
 0.95571\C,0,3.42194,-1.26749,-0.05169\C,0,3.41454,-0.1002,-0.815\C,0,2
 .46089,0.88633,-0.57265\C,0,-1.46628,0.33823,-0.29965\C,0,-2.65483,0.1
 9408,0.41372\C,0,-3.25383,-1.06057,0.49297\C,0,-2.64226,-2.13009,-0.15
 752\N,0,-1.51793,-2.00707,-0.86013\C,0,-0.95347,-0.80575,-0.92612\H,0,
 -1.72733,2.9277,0.71839\H,0,-0.31738,1.76403,-1.39489\H,0,0.00247,1.67
 132,1.64544\H,0,0.84848,2.77283,0.53592\H,0,0.77094,-0.59576,1.97469\H
 ,0,2.47102,-2.34961,1.55657\H,0,4.1667,-2.04314,-0.24204\H,0,4.15662,0
 .04328,-1.60353\H,0,2.46018,1.79923,-1.17533\H,0,-3.12164,1.0616,0.885
 47\H,0,-4.186,-1.20667,1.04185\H,0,-3.08708,-3.13046,-0.11641\H,0,-0.0
 3038,-0.73423,-1.5138\\Version=ES64L-G16RevC.01\State=1-A\HF=-633.1945
 878\RMSD=3.045e-09\Dipole=0.0687348,0.4055513,0.842625\Quadrupole=3.08
 51809,-2.6321513,-0.4530297,-0.0397681,-7.3480428,-0.3884569\PG=C01 [X
 (C13H13N1O1)]\\@
 The archive entry for this job was punched.


 TIME IS IN FACT THE HERO OF THE PLOT. THE TIME
 WITH WHICH WE HAVE TO DEAL IS OF THE ORDER OF TWO
 BILLION YEARS...GIVEN SO MUCH TIME, THE "IMPOSSIBLE"
 BECOMES POSSIBLE, THE POSSIBLE PROBABLE, THE PROBABLE
 VIRTUALLY CERTAIN.  ONE HAS ONLY TO WAIT, TIME
 ITSELF PERFORMS THE MIRACLES.
 "ORIGIN OF LIFE" LECTURES, GEORGE WALD, 1954
 Job cpu time:       0 days  1 hours 12 minutes 31.3 seconds.
 Elapsed time:       0 days  0 hours  4 minutes 43.5 seconds.
 File lengths (MBytes):  RWF=    183 Int=      0 D2E=      0 Chk=     27 Scr=      2
 Normal termination of Gaussian 16 at Fri Jul 12 13:31:51 2024.
