 Entering Gaussian System, Link 0=g16
 Input=12365813_1.com
 Output=12365813_1.log
 Initial command:
 /uufs/chpc.utah.edu/sys/installdir/gaussian16/C01/AVX/g16/l1.exe "/scratch/general/vast/u6053008/1287174-notchpeak.peaks/Gau-3381602.inp" -scrdir="/scratch/general/vast/u6053008/1287174-notchpeak.peaks/"
 Entering Link 1 = /uufs/chpc.utah.edu/sys/installdir/gaussian16/C01/AVX/g16/l1.exe PID=   3381603.
  
 Copyright (c) 1988-2019, Gaussian, Inc.  All Rights Reserved.
  
 This is part of the Gaussian(R) 16 program.  It is based on
 the Gaussian(R) 09 system (copyright 2009, Gaussian, Inc.),
 the Gaussian(R) 03 system (copyright 2003, Gaussian, Inc.),
 the Gaussian(R) 98 system (copyright 1998, Gaussian, Inc.),
 the Gaussian(R) 94 system (copyright 1995, Gaussian, Inc.),
 the Gaussian 92(TM) system (copyright 1992, Gaussian, Inc.),
 the Gaussian 90(TM) system (copyright 1990, Gaussian, Inc.),
 the Gaussian 88(TM) system (copyright 1988, Gaussian, Inc.),
 the Gaussian 86(TM) system (copyright 1986, Carnegie Mellon
 University), and the Gaussian 82(TM) system (copyright 1983,
 Carnegie Mellon University). Gaussian is a federally registered
 trademark of Gaussian, Inc.
  
 This software contains proprietary and confidential information,
 including trade secrets, belonging to Gaussian, Inc.
  
 This software is provided under written license and may be
 used, copied, transmitted, or stored only in accord with that
 written license.
  
 The following legend is applicable only to US Government
 contracts under FAR:
  
                    RESTRICTED RIGHTS LEGEND
  
 Use, reproduction and disclosure by the US Government is
 subject to restrictions as set forth in subparagraphs (a)
 and (c) of the Commercial Computer Software - Restricted
 Rights clause in FAR 52.227-19.
  
 Gaussian, Inc.
 340 Quinnipiac St., Bldg. 40, Wallingford CT 06492
  
  
 ---------------------------------------------------------------
 Warning -- This program may not be used in any manner that
 competes with the business of Gaussian, Inc. or will provide
 assistance to any competitor of Gaussian, Inc.  The licensee
 of this program is prohibited from giving any competitor of
 Gaussian, Inc. access to this program.  By using this program,
 the user acknowledges that Gaussian, Inc. is engaged in the
 business of creating and licensing software in the field of
 computational chemistry and represents and warrants to the
 licensee that it is not a competitor of Gaussian, Inc. and that
 it will not use this program in any manner prohibited above.
 ---------------------------------------------------------------
  

 Cite this work as:
 Gaussian 16, Revision C.01,
 M. J. Frisch, G. W. Trucks, H. B. Schlegel, G. E. Scuseria, 
 M. A. Robb, J. R. Cheeseman, G. Scalmani, V. Barone, 
 G. A. Petersson, H. Nakatsuji, X. Li, M. Caricato, A. V. Marenich, 
 J. Bloino, B. G. Janesko, R. Gomperts, B. Mennucci, H. P. Hratchian, 
 J. V. Ortiz, A. F. Izmaylov, J. L. Sonnenberg, D. Williams-Young, 
 F. Ding, F. Lipparini, F. Egidi, J. Goings, B. Peng, A. Petrone, 
 T. Henderson, D. Ranasinghe, V. G. Zakrzewski, J. Gao, N. Rega, 
 G. Zheng, W. Liang, M. Hada, M. Ehara, K. Toyota, R. Fukuda, 
 J. Hasegawa, M. Ishida, T. Nakajima, Y. Honda, O. Kitao, H. Nakai, 
 T. Vreven, K. Throssell, J. A. Montgomery, Jr., J. E. Peralta, 
 F. Ogliaro, M. J. Bearpark, J. J. Heyd, E. N. Brothers, K. N. Kudin, 
 V. N. Staroverov, T. A. Keith, R. Kobayashi, J. Normand, 
 K. Raghavachari, A. P. Rendell, J. C. Burant, S. S. Iyengar, 
 J. Tomasi, M. Cossi, J. M. Millam, M. Klene, C. Adamo, R. Cammi, 
 J. W. Ochterski, R. L. Martin, K. Morokuma, O. Farkas, 
 J. B. Foresman, and D. J. Fox, Gaussian, Inc., Wallingford CT, 2019.
 
 ******************************************
 Gaussian 16:  ES64L-G16RevC.01  3-Jul-2019
                12-Jul-2024 
 ******************************************
 %NProcShared=16
 Will use up to   16 processors via shared memory.
 %Mem=32GB
 %chk=12365813_1.chk
 ------------------------------------------------------
 #N OPT FREQ=NORAMAN Integral(Ultrafine) wB97XD def2SVP
 ------------------------------------------------------
 1/18=20,19=15,26=4,38=1/1,3;
 2/9=110,12=2,17=6,18=5,40=1/2;
 3/5=43,7=101,11=2,25=1,30=1,71=1,74=-58,75=-5/1,2,3;
 4//1;
 5/5=2,38=5/2;
 6/7=2,8=2,9=2,10=2,28=1/1;
 7//1,2,3,16;
 1/18=20,19=15,26=4/3(2);
 2/9=110/2;
 99//99;
 2/9=110/2;
 3/5=43,7=101,11=2,25=1,30=1,71=1,74=-58,75=-5/1,2,3;
 4/5=5,16=3,69=1/1;
 5/5=2,38=5/2;
 7//1,2,3,16;
 1/18=20,19=15,26=4/3(-5);
 2/9=110/2;
 6/7=2,8=2,9=2,10=2,19=2,28=1/1;
 99/9=1/99;
 ----------
 12365813_1
 ----------
 Symbolic Z-matrix:
 Charge =  0 Multiplicity = 1
 O                     0.07282   2.18158   1.18541 
 C                    -0.49731   1.82607  -0.04333 
 C                     0.59513   1.52357  -1.09792 
 C                     1.50757   0.4051   -0.66056 
 C                     2.67631   0.68383   0.06046 
 C                     3.48766  -0.34636   0.53835 
 C                     3.14201  -1.67419   0.29895 
 C                     1.9835   -1.96544  -0.42232 
 C                     1.17379  -0.93605  -0.89506 
 C                    -1.49028   0.67937   0.08164 
 C                    -1.62535  -0.05812   1.25538 
 C                    -2.51905  -1.1261    1.2871 
 C                    -3.25515  -1.41393   0.1405 
 N                    -3.15415  -0.70576  -0.98385 
 C                    -2.29804   0.30983  -1.00101 
 H                     0.75857   1.53551   1.39533 
 H                    -1.05155   2.71537  -0.38595 
 H                     1.1758    2.44569  -1.25019 
 H                     0.11634   1.27631  -2.05691 
 H                     2.96056   1.72492   0.23922 
 H                     4.39688  -0.10749   1.0945 
 H                     3.77637  -2.48249   0.66897 
 H                     1.70767  -3.00388  -0.61832 
 H                     0.26505  -1.17433  -1.45337 
 H                    -1.04123   0.21213   2.13665 
 H                    -2.64559  -1.72652   2.18987 
 H                    -3.9629   -2.24989   0.13037 
 H                    -2.24427   0.87678  -1.93961 
 

 GradGradGradGradGradGradGradGradGradGradGradGradGradGradGradGradGradGrad
 Berny optimization.
 Initialization pass.
                           ----------------------------
                           !    Initial Parameters    !
                           ! (Angstroms and Degrees)  !
 --------------------------                            --------------------------
 ! Name  Definition              Value          Derivative Info.                !
 --------------------------------------------------------------------------------
 ! R1    R(1,2)                  1.4004         estimate D2E/DX2                !
 ! R2    R(1,16)                 0.9653         estimate D2E/DX2                !
 ! R3    R(2,3)                  1.5483         estimate D2E/DX2                !
 ! R4    R(2,10)                 1.522          estimate D2E/DX2                !
 ! R5    R(2,17)                 1.1025         estimate D2E/DX2                !
 ! R6    R(3,4)                  1.5082         estimate D2E/DX2                !
 ! R7    R(3,18)                 1.1003         estimate D2E/DX2                !
 ! R8    R(3,19)                 1.1            estimate D2E/DX2                !
 ! R9    R(4,5)                  1.4013         estimate D2E/DX2                !
 ! R10   R(4,9)                  1.4018         estimate D2E/DX2                !
 ! R11   R(5,6)                  1.3957         estimate D2E/DX2                !
 ! R12   R(5,20)                 1.0939         estimate D2E/DX2                !
 ! R13   R(6,7)                  1.3928         estimate D2E/DX2                !
 ! R14   R(6,21)                 1.0923         estimate D2E/DX2                !
 ! R15   R(7,8)                  1.3954         estimate D2E/DX2                !
 ! R16   R(7,22)                 1.0921         estimate D2E/DX2                !
 ! R17   R(8,9)                  1.3924         estimate D2E/DX2                !
 ! R18   R(8,23)                 1.0922         estimate D2E/DX2                !
 ! R19   R(9,24)                 1.0928         estimate D2E/DX2                !
 ! R20   R(10,11)                1.3928         estimate D2E/DX2                !
 ! R21   R(10,15)                1.4004         estimate D2E/DX2                !
 ! R22   R(11,12)                1.3929         estimate D2E/DX2                !
 ! R23   R(11,25)                1.0913         estimate D2E/DX2                !
 ! R24   R(12,13)                1.3926         estimate D2E/DX2                !
 ! R25   R(12,26)                1.0916         estimate D2E/DX2                !
 ! R26   R(13,14)                1.3326         estimate D2E/DX2                !
 ! R27   R(13,27)                1.0954         estimate D2E/DX2                !
 ! R28   R(14,15)                1.3284         estimate D2E/DX2                !
 ! R29   R(15,28)                1.0979         estimate D2E/DX2                !
 ! A1    A(2,1,16)             108.0666         estimate D2E/DX2                !
 ! A2    A(1,2,3)              111.099          estimate D2E/DX2                !
 ! A3    A(1,2,10)             112.6322         estimate D2E/DX2                !
 ! A4    A(1,2,17)             105.817          estimate D2E/DX2                !
 ! A5    A(3,2,10)             111.6576         estimate D2E/DX2                !
 ! A6    A(3,2,17)             107.4962         estimate D2E/DX2                !
 ! A7    A(10,2,17)            107.7745         estimate D2E/DX2                !
 ! A8    A(2,3,4)              111.9769         estimate D2E/DX2                !
 ! A9    A(2,3,18)             107.6313         estimate D2E/DX2                !
 ! A10   A(2,3,19)             109.3067         estimate D2E/DX2                !
 ! A11   A(4,3,18)             110.0199         estimate D2E/DX2                !
 ! A12   A(4,3,19)             110.4524         estimate D2E/DX2                !
 ! A13   A(18,3,19)            107.3034         estimate D2E/DX2                !
 ! A14   A(3,4,5)              120.4166         estimate D2E/DX2                !
 ! A15   A(3,4,9)              121.1261         estimate D2E/DX2                !
 ! A16   A(5,4,9)              118.358          estimate D2E/DX2                !
 ! A17   A(4,5,6)              120.9457         estimate D2E/DX2                !
 ! A18   A(4,5,20)             119.3491         estimate D2E/DX2                !
 ! A19   A(6,5,20)             119.7011         estimate D2E/DX2                !
 ! A20   A(5,6,7)              120.0374         estimate D2E/DX2                !
 ! A21   A(5,6,21)             119.7901         estimate D2E/DX2                !
 ! A22   A(7,6,21)             120.1712         estimate D2E/DX2                !
 ! A23   A(6,7,8)              119.5945         estimate D2E/DX2                !
 ! A24   A(6,7,22)             120.2131         estimate D2E/DX2                !
 ! A25   A(8,7,22)             120.1917         estimate D2E/DX2                !
 ! A26   A(7,8,9)              120.2637         estimate D2E/DX2                !
 ! A27   A(7,8,23)             120.0582         estimate D2E/DX2                !
 ! A28   A(9,8,23)             119.6781         estimate D2E/DX2                !
 ! A29   A(4,9,8)              120.8            estimate D2E/DX2                !
 ! A30   A(4,9,24)             119.476          estimate D2E/DX2                !
 ! A31   A(8,9,24)             119.7238         estimate D2E/DX2                !
 ! A32   A(2,10,11)            122.1006         estimate D2E/DX2                !
 ! A33   A(2,10,15)            120.773          estimate D2E/DX2                !
 ! A34   A(11,10,15)           117.1196         estimate D2E/DX2                !
 ! A35   A(10,11,12)           119.1695         estimate D2E/DX2                !
 ! A36   A(10,11,25)           119.8363         estimate D2E/DX2                !
 ! A37   A(12,11,25)           120.9912         estimate D2E/DX2                !
 ! A38   A(11,12,13)           118.61           estimate D2E/DX2                !
 ! A39   A(11,12,26)           120.9936         estimate D2E/DX2                !
 ! A40   A(13,12,26)           120.3963         estimate D2E/DX2                !
 ! A41   A(12,13,14)           123.0091         estimate D2E/DX2                !
 ! A42   A(12,13,27)           120.4559         estimate D2E/DX2                !
 ! A43   A(14,13,27)           116.534          estimate D2E/DX2                !
 ! A44   A(13,14,15)           117.7763         estimate D2E/DX2                !
 ! A45   A(10,15,14)           124.297          estimate D2E/DX2                !
 ! A46   A(10,15,28)           119.7637         estimate D2E/DX2                !
 ! A47   A(14,15,28)           115.9393         estimate D2E/DX2                !
 ! D1    D(16,1,2,3)           -47.8206         estimate D2E/DX2                !
 ! D2    D(16,1,2,10)           78.2975         estimate D2E/DX2                !
 ! D3    D(16,1,2,17)         -164.195          estimate D2E/DX2                !
 ! D4    D(1,2,3,4)             58.8775         estimate D2E/DX2                !
 ! D5    D(1,2,3,18)           -62.1618         estimate D2E/DX2                !
 ! D6    D(1,2,3,19)          -178.3952         estimate D2E/DX2                !
 ! D7    D(10,2,3,4)           -67.7788         estimate D2E/DX2                !
 ! D8    D(10,2,3,18)          171.1819         estimate D2E/DX2                !
 ! D9    D(10,2,3,19)           54.9485         estimate D2E/DX2                !
 ! D10   D(17,2,3,4)           174.2152         estimate D2E/DX2                !
 ! D11   D(17,2,3,18)           53.1759         estimate D2E/DX2                !
 ! D12   D(17,2,3,19)          -63.0575         estimate D2E/DX2                !
 ! D13   D(1,2,10,11)           -9.9992         estimate D2E/DX2                !
 ! D14   D(1,2,10,15)          170.9783         estimate D2E/DX2                !
 ! D15   D(3,2,10,11)          115.8175         estimate D2E/DX2                !
 ! D16   D(3,2,10,15)          -63.205          estimate D2E/DX2                !
 ! D17   D(17,2,10,11)        -126.3434         estimate D2E/DX2                !
 ! D18   D(17,2,10,15)          54.6341         estimate D2E/DX2                !
 ! D19   D(2,3,4,5)            -90.6946         estimate D2E/DX2                !
 ! D20   D(2,3,4,9)             85.6229         estimate D2E/DX2                !
 ! D21   D(18,3,4,5)            28.9535         estimate D2E/DX2                !
 ! D22   D(18,3,4,9)          -154.729          estimate D2E/DX2                !
 ! D23   D(19,3,4,5)           147.231          estimate D2E/DX2                !
 ! D24   D(19,3,4,9)           -36.4515         estimate D2E/DX2                !
 ! D25   D(3,4,5,6)            176.2106         estimate D2E/DX2                !
 ! D26   D(3,4,5,20)            -4.5381         estimate D2E/DX2                !
 ! D27   D(9,4,5,6)             -0.2073         estimate D2E/DX2                !
 ! D28   D(9,4,5,20)           179.0439         estimate D2E/DX2                !
 ! D29   D(3,4,9,8)           -176.3541         estimate D2E/DX2                !
 ! D30   D(3,4,9,24)             3.4648         estimate D2E/DX2                !
 ! D31   D(5,4,9,8)              0.0373         estimate D2E/DX2                !
 ! D32   D(5,4,9,24)           179.8562         estimate D2E/DX2                !
 ! D33   D(4,5,6,7)              0.126          estimate D2E/DX2                !
 ! D34   D(4,5,6,21)           179.7333         estimate D2E/DX2                !
 ! D35   D(20,5,6,7)          -179.1226         estimate D2E/DX2                !
 ! D36   D(20,5,6,21)            0.4847         estimate D2E/DX2                !
 ! D37   D(5,6,7,8)              0.128          estimate D2E/DX2                !
 ! D38   D(5,6,7,22)           179.8157         estimate D2E/DX2                !
 ! D39   D(21,6,7,8)          -179.4778         estimate D2E/DX2                !
 ! D40   D(21,6,7,22)            0.2099         estimate D2E/DX2                !
 ! D41   D(6,7,8,9)             -0.2968         estimate D2E/DX2                !
 ! D42   D(6,7,8,23)           179.7231         estimate D2E/DX2                !
 ! D43   D(22,7,8,9)          -179.9846         estimate D2E/DX2                !
 ! D44   D(22,7,8,23)            0.0353         estimate D2E/DX2                !
 ! D45   D(7,8,9,4)              0.2145         estimate D2E/DX2                !
 ! D46   D(7,8,9,24)          -179.604          estimate D2E/DX2                !
 ! D47   D(23,8,9,4)          -179.8053         estimate D2E/DX2                !
 ! D48   D(23,8,9,24)            0.3762         estimate D2E/DX2                !
 ! D49   D(2,10,11,12)        -177.6939         estimate D2E/DX2                !
 ! D50   D(2,10,11,25)           2.9312         estimate D2E/DX2                !
 ! D51   D(15,10,11,12)          1.3625         estimate D2E/DX2                !
 ! D52   D(15,10,11,25)       -178.0124         estimate D2E/DX2                !
 ! D53   D(2,10,15,14)         177.6518         estimate D2E/DX2                !
 ! D54   D(2,10,15,28)          -2.3811         estimate D2E/DX2                !
 ! D55   D(11,10,15,14)         -1.4179         estimate D2E/DX2                !
 ! D56   D(11,10,15,28)        178.5492         estimate D2E/DX2                !
 ! D57   D(10,11,12,13)         -0.401          estimate D2E/DX2                !
 ! D58   D(10,11,12,26)        179.754          estimate D2E/DX2                !
 ! D59   D(25,11,12,13)        178.9665         estimate D2E/DX2                !
 ! D60   D(25,11,12,26)         -0.8785         estimate D2E/DX2                !
 ! D61   D(11,12,13,14)         -0.6904         estimate D2E/DX2                !
 ! D62   D(11,12,13,27)        179.702          estimate D2E/DX2                !
 ! D63   D(26,12,13,14)        179.1556         estimate D2E/DX2                !
 ! D64   D(26,12,13,27)         -0.4521         estimate D2E/DX2                !
 ! D65   D(12,13,14,15)          0.7049         estimate D2E/DX2                !
 ! D66   D(27,13,14,15)       -179.6731         estimate D2E/DX2                !
 ! D67   D(13,14,15,10)          0.3843         estimate D2E/DX2                !
 ! D68   D(13,14,15,28)       -179.5839         estimate D2E/DX2                !
 --------------------------------------------------------------------------------
 Trust Radius=3.00D-01 FncErr=1.00D-07 GrdErr=1.00D-06 EigMax=2.50D+02 EigMin=1.00D-04
 Number of steps in this run=    154 maximum allowed number of steps=    168.
 GradGradGradGradGradGradGradGradGradGradGradGradGradGradGradGradGradGrad

                          Input orientation:                          
 ---------------------------------------------------------------------
 Center     Atomic      Atomic             Coordinates (Angstroms)
 Number     Number       Type             X           Y           Z
 ---------------------------------------------------------------------
      1          8           0        0.072820    2.181580    1.185410
      2          6           0       -0.497310    1.826070   -0.043330
      3          6           0        0.595130    1.523570   -1.097920
      4          6           0        1.507570    0.405100   -0.660560
      5          6           0        2.676310    0.683830    0.060460
      6          6           0        3.487660   -0.346360    0.538350
      7          6           0        3.142010   -1.674190    0.298950
      8          6           0        1.983500   -1.965440   -0.422320
      9          6           0        1.173790   -0.936050   -0.895060
     10          6           0       -1.490280    0.679370    0.081640
     11          6           0       -1.625350   -0.058120    1.255380
     12          6           0       -2.519050   -1.126100    1.287100
     13          6           0       -3.255150   -1.413930    0.140500
     14          7           0       -3.154150   -0.705760   -0.983850
     15          6           0       -2.298040    0.309830   -1.001010
     16          1           0        0.758570    1.535510    1.395330
     17          1           0       -1.051550    2.715370   -0.385950
     18          1           0        1.175800    2.445690   -1.250190
     19          1           0        0.116340    1.276310   -2.056910
     20          1           0        2.960560    1.724920    0.239220
     21          1           0        4.396880   -0.107490    1.094500
     22          1           0        3.776370   -2.482490    0.668970
     23          1           0        1.707670   -3.003880   -0.618320
     24          1           0        0.265050   -1.174330   -1.453370
     25          1           0       -1.041230    0.212130    2.136650
     26          1           0       -2.645590   -1.726520    2.189870
     27          1           0       -3.962900   -2.249890    0.130370
     28          1           0       -2.244270    0.876780   -1.939610
 ---------------------------------------------------------------------
                    Distance matrix (angstroms):
                    1          2          3          4          5
     1  O    0.000000
     2  C    1.400442   0.000000
     3  C    2.432978   1.548254   0.000000
     4  C    2.936323   2.533707   1.508246   0.000000
     5  C    3.207324   3.374515   2.525533   1.401254   0.000000
     6  C    4.297709   4.575783   3.813233   2.433687   1.395693
     7  C    5.007265   5.060991   4.320129   2.813450   2.415370
     8  C    4.840792   4.546823   3.815390   2.429553   2.780592
     9  C    3.906419   3.338761   2.534902   1.401814   2.407197
    10  C    2.432740   1.522014   2.540270   3.100514   4.166646
    11  C    2.811571   2.551332   3.601430   3.701430   4.525771
    12  C    4.203436   3.817432   4.733623   4.727750   5.636689
    13  C    5.009482   4.258764   4.998724   5.160821   6.291997
    14  N    4.843114   3.788607   4.363488   4.803141   6.084062
    15  C    3.728922   2.541410   3.138947   3.821996   5.100074
    16  H    0.965260   1.931684   2.498630   2.462826   2.486959
    17  H    2.004573   1.102463   2.153797   3.458591   4.268885
    18  H    2.686720   2.154005   1.100304   2.149824   2.659602
    19  H    3.366608   2.175616   1.100018   2.155069   3.374572
    20  H    3.072923   3.470869   2.724655   2.159331   1.093902
    21  H    4.893424   5.383903   4.681919   3.419225   2.157727
    22  H    5.978005   6.110270   5.412089   3.905545   3.406758
    23  H    5.728453   5.340503   4.686744   3.415109   3.872752
    24  H    4.273435   3.401736   2.741161   2.160325   3.399796
    25  H    2.454526   2.766399   3.854866   3.789196   4.284060
    26  H    4.865382   4.714147   5.645787   5.469689   6.218263
    27  H    6.085891   5.352937   6.043454   6.131932   7.258837
    28  H    4.103311   2.747526   3.031332   3.991836   5.315037
                    6          7          8          9         10
     6  C    0.000000
     7  C    1.392810   0.000000
     8  C    2.409731   1.395422   0.000000
     9  C    2.785030   2.417519   1.392393   0.000000
    10  C    5.102998   5.200440   4.395013   3.265087   0.000000
    11  C    5.171082   5.123882   4.413201   3.637353   1.392767
    12  C    6.103211   5.772733   4.888718   4.293601   2.402337
    13  C    6.838383   6.404412   5.297583   4.573430   2.738638
    14  N    6.823482   6.498082   5.319545   4.334972   2.412948
    15  C    6.022835   5.934676   4.882962   3.690128   1.400417
    16  H    3.424001   4.145481   4.130491   3.395129   2.741548
    17  H    5.552742   6.109277   5.578784   4.306298   2.134577
    18  H    4.042167   4.820708   4.560243   3.400336   3.464338
    19  H    4.553486   4.838409   4.082538   2.713417   2.740613
    20  H    2.158127   3.404474   3.874408   3.399985   4.574711
    21  H    1.092265   2.159201   3.402517   3.877263   6.025254
    22  H    2.159506   1.092097   2.161628   3.407505   6.170893
    23  H    3.401274   2.160276   1.092179   2.153493   4.927795
    24  H    3.877847   3.405493   2.154528   1.092838   2.978866
    25  H    4.835010   4.943161   4.520966   3.926308   2.154768
    26  H    6.499932   6.088894   5.320629   4.972856   3.401129
    27  H    7.700696   7.130189   5.978800   5.400302   3.833639
    28  H    6.363284   6.366366   5.315489   4.007564   2.166316
                   11         12         13         14         15
    11  C    0.000000
    12  C    1.392942   0.000000
    13  C    2.395293   1.392617   0.000000
    14  N    2.787619   2.395256   1.332617   0.000000
    15  C    2.383106   2.710385   2.278257   1.328398   0.000000
    16  H    2.870944   4.223585   5.136511   5.098349   4.072788
    17  H    3.273447   4.439543   4.710002   4.059870   2.778247
    18  H    4.515904   5.731269   6.038543   5.362000   4.085530
    19  H    3.973091   4.888687   4.840759   3.971922   2.806820
    20  H    5.024180   6.265181   6.963991   6.692816   5.585116
    21  H    6.024581   6.993193   7.821155   7.854650   7.027608
    22  H    5.949792   6.469482   7.131856   7.343071   6.890888
    23  H    4.826725   5.002184   5.266245   5.390015   5.212757
    24  H    3.486669   3.906880   3.871645   3.482949   2.996129
    25  H    1.091269   2.167152   3.395604   3.878721   3.381424
    26  H    2.167422   1.091563   2.160832   3.372400   3.801214
    27  H    3.396122   2.164632   1.095373   2.068792   3.256370
    28  H    3.386010   3.807715   3.255163   2.060532   1.097859
                   16         17         18         19         20
    16  H    0.000000
    17  H    2.800279   0.000000
    18  H    2.828654   2.404314   0.000000
    19  H    3.521023   2.495389   1.772203   0.000000
    20  H    2.494239   4.179576   2.433767   3.682805   0.000000
    21  H    4.003404   6.312342   4.731982   5.492660   2.480372
    22  H    5.077306   7.172128   5.893479   5.912260   4.307265
    23  H    5.055852   6.354299   5.511802   4.787682   4.966554
    24  H    3.962561   4.242946   3.738354   2.528243   4.305379
    25  H    2.353757   3.553847   4.623278   4.478660   4.680075
    26  H    4.781259   5.376449   6.621508   5.889005   6.866323
    27  H    6.182367   5.778958   7.096524   5.818804   7.984063
    28  H    4.535725   2.686420   3.825396   2.397053   5.705865
                   21         22         23         24         25
    21  H    0.000000
    22  H    2.491332   0.000000
    23  H    4.307514   2.491683   0.000000
    24  H    4.970091   4.306388   2.475018   0.000000
    25  H    5.546285   5.711771   5.048666   4.064097   0.000000
    26  H    7.308726   6.642755   5.335584   4.695736   2.516976
    27  H    8.683625   7.761475   5.769264   4.641188   4.315421
    28  H    7.367461   7.371397   5.694134   3.277220   4.301739
                   26         27         28
    26  H    0.000000
    27  H    2.500152   0.000000
    28  H    4.898044   4.124872   0.000000
 Stoichiometry    C13H13NO
 Framework group  C1[X(C13H13NO)]
 Deg. of freedom    78
 Full point group                 C1      NOp   1
 Largest Abelian subgroup         C1      NOp   1
 Largest concise Abelian subgroup C1      NOp   1
                         Standard orientation:                         
 ---------------------------------------------------------------------
 Center     Atomic      Atomic             Coordinates (Angstroms)
 Number     Number       Type             X           Y           Z
 ---------------------------------------------------------------------
      1          8           0        0.072820    2.181581    1.185410
      2          6           0       -0.497310    1.826071   -0.043330
      3          6           0        0.595130    1.523571   -1.097920
      4          6           0        1.507570    0.405101   -0.660560
      5          6           0        2.676310    0.683831    0.060460
      6          6           0        3.487660   -0.346359    0.538350
      7          6           0        3.142010   -1.674189    0.298950
      8          6           0        1.983500   -1.965439   -0.422320
      9          6           0        1.173790   -0.936049   -0.895060
     10          6           0       -1.490280    0.679371    0.081640
     11          6           0       -1.625350   -0.058119    1.255380
     12          6           0       -2.519050   -1.126099    1.287100
     13          6           0       -3.255150   -1.413929    0.140500
     14          7           0       -3.154150   -0.705759   -0.983850
     15          6           0       -2.298040    0.309831   -1.001010
     16          1           0        0.758570    1.535511    1.395330
     17          1           0       -1.051550    2.715371   -0.385950
     18          1           0        1.175800    2.445691   -1.250190
     19          1           0        0.116340    1.276311   -2.056910
     20          1           0        2.960560    1.724921    0.239220
     21          1           0        4.396880   -0.107489    1.094500
     22          1           0        3.776371   -2.482489    0.668970
     23          1           0        1.707671   -3.003879   -0.618320
     24          1           0        0.265050   -1.174329   -1.453370
     25          1           0       -1.041230    0.212131    2.136650
     26          1           0       -2.645590   -1.726519    2.189870
     27          1           0       -3.962899   -2.249889    0.130370
     28          1           0       -2.244270    0.876781   -1.939610
 ---------------------------------------------------------------------
 Rotational constants (GHZ):           1.0288984           0.4436377           0.3789446
 Standard basis: def2SVP (5D, 7F)
 There are   290 symmetry adapted cartesian basis functions of A   symmetry.
 There are   275 symmetry adapted basis functions of A   symmetry.
   275 basis functions,   466 primitive gaussians,   290 cartesian basis functions
    53 alpha electrons       53 beta electrons
       nuclear repulsion energy       938.8743383636 Hartrees.
 NAtoms=   28 NActive=   28 NUniq=   28 SFac= 1.00D+00 NAtFMM=   60 NAOKFM=F Big=F
 Integral buffers will be    131072 words long.
 Raffenetti 2 integral format.
 Two-electron integral symmetry is turned on.
 Nuclear repulsion after empirical dispersion term =      938.8539160874 Hartrees.
 One-electron integrals computed using PRISM.
   1 Symmetry operations used in ECPInt.
 ECPInt:  NShTT=    8385 NPrTT=   30369 LenC2=    8101 LenP2D=   21741.
 LDataN:  DoStor=T MaxTD1= 4 Len=   56
 NBasis=   275 RedAO= T EigKep=  2.72D-04  NBF=   275
 NBsUse=   275 1.00D-06 EigRej= -1.00D+00 NBFU=   275
 ExpMin= 1.22D-01 ExpMax= 2.27D+03 ExpMxC= 3.41D+02 IAcc=3 IRadAn=         5 AccDes= 0.00D+00
 Harris functional with IExCor= 4639 and IRadAn=       5 diagonalized for initial guess.
 HarFok:  IExCor= 4639 AccDes= 0.00D+00 IRadAn=         5 IDoV= 1 UseB2=F ITyADJ=14
 ICtDFT=  3500011 ScaDFX=  1.000000  1.000000  1.000000  1.000000
 FoFCou: FMM=F IPFlag=           0 FMFlag=      100000 FMFlg1=           0
         NFxFlg=           0 DoJE=T BraDBF=F KetDBF=T FulRan=T
         wScrn=  0.000000 ICntrl=       500 IOpCl=  0 I1Cent=   200000004 NGrid=           0
         NMat0=    1 NMatS0=      1 NMatT0=    0 NMatD0=    1 NMtDS0=    0 NMtDT0=    0
 Petite list used in FoFCou.
 Requested convergence on RMS density matrix=1.00D-08 within 128 cycles.
 Requested convergence on MAX density matrix=1.00D-06.
 Requested convergence on             energy=1.00D-06.
 No special actions if energy rises.
 Integral accuracy reduced to 1.0D-05 until final iterations.
 Initial convergence to 1.0D-05 achieved.  Increase integral accuracy.
 SCF Done:  E(RwB97XD) =  -632.521721191     A.U. after   15 cycles
            NFock= 15  Conv=0.45D-08     -V/T= 2.0108

 **********************************************************************

            Population analysis using the SCF Density.

 **********************************************************************

 Orbital symmetries:
       Occupied  (A) (A) (A) (A) (A) (A) (A) (A) (A) (A) (A) (A)
                 (A) (A) (A) (A) (A) (A) (A) (A) (A) (A) (A) (A)
                 (A) (A) (A) (A) (A) (A) (A) (A) (A) (A) (A) (A)
                 (A) (A) (A) (A) (A) (A) (A) (A) (A) (A) (A) (A)
                 (A) (A) (A) (A) (A)
       Virtual   (A) (A) (A) (A) (A) (A) (A) (A) (A) (A) (A) (A)
                 (A) (A) (A) (A) (A) (A) (A) (A) (A) (A) (A) (A)
                 (A) (A) (A) (A) (A) (A) (A) (A) (A) (A) (A) (A)
                 (A) (A) (A) (A) (A) (A) (A) (A) (A) (A) (A) (A)
                 (A) (A) (A) (A) (A) (A) (A) (A) (A) (A) (A) (A)
                 (A) (A) (A) (A) (A) (A) (A) (A) (A) (A) (A) (A)
                 (A) (A) (A) (A) (A) (A) (A) (A) (A) (A) (A) (A)
                 (A) (A) (A) (A) (A) (A) (A) (A) (A) (A) (A) (A)
                 (A) (A) (A) (A) (A) (A) (A) (A) (A) (A) (A) (A)
                 (A) (A) (A) (A) (A) (A) (A) (A) (A) (A) (A) (A)
                 (A) (A) (A) (A) (A) (A) (A) (A) (A) (A) (A) (A)
                 (A) (A) (A) (A) (A) (A) (A) (A) (A) (A) (A) (A)
                 (A) (A) (A) (A) (A) (A) (A) (A) (A) (A) (A) (A)
                 (A) (A) (A) (A) (A) (A) (A) (A) (A) (A) (A) (A)
                 (A) (A) (A) (A) (A) (A) (A) (A) (A) (A) (A) (A)
                 (A) (A) (A) (A) (A) (A) (A) (A) (A) (A) (A) (A)
                 (A) (A) (A) (A) (A) (A) (A) (A) (A) (A) (A) (A)
                 (A) (A) (A) (A) (A) (A) (A) (A) (A) (A) (A) (A)
                 (A) (A) (A) (A) (A) (A)
 The electronic state is 1-A.
 Alpha  occ. eigenvalues --  -19.26166 -14.44004 -10.36317 -10.33560 -10.33320
 Alpha  occ. eigenvalues --  -10.31916 -10.31842 -10.31346 -10.31250 -10.31236
 Alpha  occ. eigenvalues --  -10.31196 -10.31126 -10.31100 -10.31026 -10.30932
 Alpha  occ. eigenvalues --   -1.12736  -1.04000  -0.96380  -0.90968  -0.88596
 Alpha  occ. eigenvalues --   -0.86150  -0.84634  -0.81317  -0.74942  -0.72149
 Alpha  occ. eigenvalues --   -0.70446  -0.69991  -0.67597  -0.62473  -0.61150
 Alpha  occ. eigenvalues --   -0.58896  -0.58475  -0.56444  -0.55273  -0.54479
 Alpha  occ. eigenvalues --   -0.53401  -0.52130  -0.51414  -0.49462  -0.48880
 Alpha  occ. eigenvalues --   -0.48650  -0.47317  -0.46481  -0.44970  -0.43822
 Alpha  occ. eigenvalues --   -0.42924  -0.41842  -0.37528  -0.36818  -0.34241
 Alpha  occ. eigenvalues --   -0.33587  -0.33385  -0.33150
 Alpha virt. eigenvalues --    0.04167   0.04322   0.04957   0.05618   0.13394
 Alpha virt. eigenvalues --    0.14803   0.15264   0.16346   0.17098   0.19010
 Alpha virt. eigenvalues --    0.19152   0.20623   0.20874   0.21346   0.22409
 Alpha virt. eigenvalues --    0.23402   0.23562   0.23909   0.25650   0.27080
 Alpha virt. eigenvalues --    0.28746   0.30102   0.32856   0.34662   0.35786
 Alpha virt. eigenvalues --    0.36701   0.37478   0.38058   0.39062   0.39760
 Alpha virt. eigenvalues --    0.42100   0.42532   0.44952   0.46174   0.47480
 Alpha virt. eigenvalues --    0.48498   0.50205   0.50820   0.51150   0.52600
 Alpha virt. eigenvalues --    0.53154   0.54220   0.55833   0.56560   0.57607
 Alpha virt. eigenvalues --    0.58142   0.58750   0.58862   0.60328   0.60685
 Alpha virt. eigenvalues --    0.62327   0.64583   0.65018   0.65356   0.67034
 Alpha virt. eigenvalues --    0.67879   0.68649   0.69209   0.71147   0.71501
 Alpha virt. eigenvalues --    0.72228   0.72611   0.73045   0.73803   0.74736
 Alpha virt. eigenvalues --    0.74887   0.75872   0.76821   0.77421   0.78042
 Alpha virt. eigenvalues --    0.78650   0.79276   0.80440   0.81644   0.82417
 Alpha virt. eigenvalues --    0.82764   0.83367   0.84551   0.85134   0.85964
 Alpha virt. eigenvalues --    0.87573   0.88207   0.90283   0.91499   0.92989
 Alpha virt. eigenvalues --    0.95360   0.97014   0.99039   0.99958   1.01935
 Alpha virt. eigenvalues --    1.03052   1.05630   1.09559   1.13185   1.14108
 Alpha virt. eigenvalues --    1.16584   1.17239   1.19169   1.23328   1.25376
 Alpha virt. eigenvalues --    1.27959   1.28417   1.30341   1.32280   1.33004
 Alpha virt. eigenvalues --    1.34115   1.35174   1.36205   1.37179   1.37526
 Alpha virt. eigenvalues --    1.38179   1.39529   1.42248   1.42994   1.45176
 Alpha virt. eigenvalues --    1.47779   1.50785   1.55892   1.58054   1.60031
 Alpha virt. eigenvalues --    1.61023   1.65692   1.71731   1.73874   1.74552
 Alpha virt. eigenvalues --    1.74962   1.77335   1.77903   1.78687   1.80206
 Alpha virt. eigenvalues --    1.81255   1.81481   1.82648   1.82946   1.83441
 Alpha virt. eigenvalues --    1.84696   1.85650   1.86174   1.87415   1.88089
 Alpha virt. eigenvalues --    1.88877   1.89739   1.91129   1.92347   1.94233
 Alpha virt. eigenvalues --    1.94563   1.95298   1.98263   1.99375   2.00662
 Alpha virt. eigenvalues --    2.02418   2.02644   2.03354   2.05163   2.05598
 Alpha virt. eigenvalues --    2.06398   2.07560   2.08936   2.10352   2.11817
 Alpha virt. eigenvalues --    2.17840   2.18295   2.18691   2.20042   2.20548
 Alpha virt. eigenvalues --    2.22158   2.24159   2.24782   2.27081   2.29321
 Alpha virt. eigenvalues --    2.30887   2.32525   2.35606   2.37398   2.37971
 Alpha virt. eigenvalues --    2.38356   2.38518   2.41604   2.42511   2.45397
 Alpha virt. eigenvalues --    2.46825   2.48689   2.50102   2.51106   2.55015
 Alpha virt. eigenvalues --    2.58267   2.60730   2.63353   2.65294   2.69822
 Alpha virt. eigenvalues --    2.70263   2.71130   2.71997   2.72434   2.77580
 Alpha virt. eigenvalues --    2.80207   2.80735   2.81174   2.81794   2.88841
 Alpha virt. eigenvalues --    2.90873   2.92072   2.95628   2.96103   2.98679
 Alpha virt. eigenvalues --    3.00061   3.04100   3.06138   3.07988   3.11714
 Alpha virt. eigenvalues --    3.13528   3.15777   3.20859   3.21682   3.23281
 Alpha virt. eigenvalues --    3.25095   3.33003   3.41831   3.50649   3.71413
 Alpha virt. eigenvalues --    3.71850   3.88449
          Condensed to atoms (all electrons):
               1          2          3          4          5          6
     1  O    7.746259   0.346540  -0.041131  -0.014917   0.005555  -0.000194
     2  C    0.346540   4.725796   0.425113  -0.053304  -0.009834   0.000064
     3  C   -0.041131   0.425113   4.777009   0.308027  -0.066556   0.009313
     4  C   -0.014917  -0.053304   0.308027   5.408651   0.301271   0.058087
     5  C    0.005555  -0.009834  -0.066556   0.301271   5.125928   0.330167
     6  C   -0.000194   0.000064   0.009313   0.058087   0.330167   4.997457
     7  C    0.000005   0.000027   0.000383  -0.137940   0.062504   0.324284
     8  C    0.000065   0.000641   0.007130   0.069692  -0.114560   0.060609
     9  C   -0.000952  -0.014978  -0.055848   0.319963   0.018324  -0.109907
    10  C   -0.071754   0.179315  -0.072939  -0.028076   0.001358   0.000156
    11  C    0.004508  -0.067396   0.000424   0.005522  -0.000414   0.000079
    12  C    0.001839   0.013927  -0.000374  -0.000046  -0.000032  -0.000000
    13  C   -0.000054  -0.000007   0.000110   0.000029   0.000004  -0.000000
    14  N   -0.000021   0.004663   0.000075  -0.000053   0.000003  -0.000000
    15  C    0.003258  -0.047694  -0.008668  -0.000288  -0.000127   0.000001
    16  H    0.341527  -0.035245  -0.021411   0.010105   0.018911  -0.000277
    17  H   -0.027209   0.380871  -0.036881   0.012732  -0.000078  -0.000004
    18  H   -0.000401  -0.021029   0.373912  -0.022484  -0.010473   0.000998
    19  H    0.003996  -0.009091   0.356841  -0.013841   0.009685  -0.000519
    20  H    0.001866  -0.001451  -0.007945  -0.071904   0.443972  -0.055568
    21  H   -0.000006  -0.000008  -0.000230   0.014772  -0.064926   0.447268
    22  H    0.000000   0.000002   0.000016  -0.001568   0.012707  -0.063698
    23  H    0.000000  -0.000009  -0.000230   0.014551  -0.001781   0.012675
    24  H    0.000053  -0.003615  -0.010472  -0.062697   0.012163  -0.001672
    25  H    0.020267  -0.018731   0.000883   0.000943  -0.000811   0.000090
    26  H   -0.000014  -0.000141  -0.000002  -0.000005   0.000000  -0.000000
    27  H   -0.000000   0.000062  -0.000000  -0.000000   0.000000  -0.000000
    28  H   -0.000000  -0.003535  -0.001335   0.000229  -0.000022  -0.000000
               7          8          9         10         11         12
     1  O    0.000005   0.000065  -0.000952  -0.071754   0.004508   0.001839
     2  C    0.000027   0.000641  -0.014978   0.179315  -0.067396   0.013927
     3  C    0.000383   0.007130  -0.055848  -0.072939   0.000424  -0.000374
     4  C   -0.137940   0.069692   0.319963  -0.028076   0.005522  -0.000046
     5  C    0.062504  -0.114560   0.018324   0.001358  -0.000414  -0.000032
     6  C    0.324284   0.060609  -0.109907   0.000156   0.000079  -0.000000
     7  C    5.055476   0.314557   0.063225  -0.000020  -0.000206   0.000001
     8  C    0.314557   4.995755   0.342740  -0.001139   0.000985  -0.000045
     9  C    0.063225   0.342740   5.035819   0.009252   0.000666   0.000066
    10  C   -0.000020  -0.001139   0.009252   5.527326   0.433851   0.001586
    11  C   -0.000206   0.000985   0.000666   0.433851   4.897136   0.396803
    12  C    0.000001  -0.000045   0.000066   0.001586   0.396803   4.975691
    13  C    0.000000  -0.000013  -0.000053  -0.070220  -0.001971   0.439033
    14  N    0.000000  -0.000017  -0.000455  -0.035582  -0.048049  -0.038817
    15  C   -0.000006   0.000152  -0.001316   0.403339  -0.034484  -0.057589
    16  H   -0.000118  -0.000107  -0.000645  -0.004394   0.003917  -0.000007
    17  H   -0.000002   0.000026  -0.000311  -0.034837   0.003490  -0.000134
    18  H    0.000002  -0.000495   0.008496   0.012526  -0.000373   0.000007
    19  H    0.000022   0.000685  -0.012206  -0.012215   0.000007  -0.000059
    20  H    0.012461  -0.001730   0.012404   0.000392  -0.000030  -0.000001
    21  H   -0.066447   0.012660  -0.001821   0.000000  -0.000000   0.000000
    22  H    0.445449  -0.062787   0.012518  -0.000001  -0.000001  -0.000000
    23  H   -0.067896   0.446536  -0.061854  -0.000012   0.000037   0.000013
    24  H    0.012722  -0.058643   0.444659   0.002292  -0.001726  -0.000076
    25  H   -0.000008   0.000163  -0.000127  -0.061855   0.429548  -0.046107
    26  H    0.000001  -0.000007   0.000008   0.012501  -0.055477   0.422318
    27  H   -0.000000  -0.000001   0.000002   0.001164   0.006286  -0.065794
    28  H   -0.000000  -0.000000   0.000195  -0.080947   0.005795   0.000830
              13         14         15         16         17         18
     1  O   -0.000054  -0.000021   0.003258   0.341527  -0.027209  -0.000401
     2  C   -0.000007   0.004663  -0.047694  -0.035245   0.380871  -0.021029
     3  C    0.000110   0.000075  -0.008668  -0.021411  -0.036881   0.373912
     4  C    0.000029  -0.000053  -0.000288   0.010105   0.012732  -0.022484
     5  C    0.000004   0.000003  -0.000127   0.018911  -0.000078  -0.010473
     6  C   -0.000000  -0.000000   0.000001  -0.000277  -0.000004   0.000998
     7  C    0.000000   0.000000  -0.000006  -0.000118  -0.000002   0.000002
     8  C   -0.000013  -0.000017   0.000152  -0.000107   0.000026  -0.000495
     9  C   -0.000053  -0.000455  -0.001316  -0.000645  -0.000311   0.008496
    10  C   -0.070220  -0.035582   0.403339  -0.004394  -0.034837   0.012526
    11  C   -0.001971  -0.048049  -0.034484   0.003917   0.003490  -0.000373
    12  C    0.439033  -0.038817  -0.057589  -0.000007  -0.000134   0.000007
    13  C    4.764167   0.521899  -0.068516  -0.000009  -0.000011  -0.000001
    14  N    0.521899   6.256246   0.547041   0.000001  -0.000006   0.000002
    15  C   -0.068516   0.547041   4.811065   0.000177  -0.002466   0.000147
    16  H   -0.000009   0.000001   0.000177   0.494168   0.008315  -0.001020
    17  H   -0.000011  -0.000006  -0.002466   0.008315   0.663903  -0.010481
    18  H   -0.000001   0.000002   0.000147  -0.001020  -0.010481   0.646703
    19  H    0.000011  -0.000014   0.005818   0.000521  -0.001891  -0.022824
    20  H    0.000000   0.000000  -0.000004   0.001339  -0.000155   0.005373
    21  H   -0.000000  -0.000000   0.000000   0.000011  -0.000000  -0.000005
    22  H   -0.000000   0.000000  -0.000000  -0.000005   0.000000  -0.000001
    23  H    0.000009  -0.000001   0.000003  -0.000002  -0.000000   0.000007
    24  H    0.000513   0.001042   0.002251  -0.000006  -0.000034   0.000053
    25  H    0.008655  -0.000448   0.010511   0.002008   0.000579  -0.000045
    26  H   -0.046135   0.005567   0.000067   0.000013   0.000008  -0.000000
    27  H    0.422875  -0.038920   0.004571  -0.000000  -0.000000   0.000000
    28  H    0.004877  -0.034182   0.432714   0.000012   0.002945  -0.000100
              19         20         21         22         23         24
     1  O    0.003996   0.001866  -0.000006   0.000000   0.000000   0.000053
     2  C   -0.009091  -0.001451  -0.000008   0.000002  -0.000009  -0.003615
     3  C    0.356841  -0.007945  -0.000230   0.000016  -0.000230  -0.010472
     4  C   -0.013841  -0.071904   0.014772  -0.001568   0.014551  -0.062697
     5  C    0.009685   0.443972  -0.064926   0.012707  -0.001781   0.012163
     6  C   -0.000519  -0.055568   0.447268  -0.063698   0.012675  -0.001672
     7  C    0.000022   0.012461  -0.066447   0.445449  -0.067896   0.012722
     8  C    0.000685  -0.001730   0.012660  -0.062787   0.446536  -0.058643
     9  C   -0.012206   0.012404  -0.001821   0.012518  -0.061854   0.444659
    10  C   -0.012215   0.000392   0.000000  -0.000001  -0.000012   0.002292
    11  C    0.000007  -0.000030  -0.000000  -0.000001   0.000037  -0.001726
    12  C   -0.000059  -0.000001   0.000000  -0.000000   0.000013  -0.000076
    13  C    0.000011   0.000000  -0.000000  -0.000000   0.000009   0.000513
    14  N   -0.000014   0.000000  -0.000000   0.000000  -0.000001   0.001042
    15  C    0.005818  -0.000004   0.000000  -0.000000   0.000003   0.002251
    16  H    0.000521   0.001339   0.000011  -0.000005  -0.000002  -0.000006
    17  H   -0.001891  -0.000155  -0.000000   0.000000  -0.000000  -0.000034
    18  H   -0.022824   0.005373  -0.000005  -0.000001   0.000007   0.000053
    19  H    0.652146   0.000170   0.000005  -0.000001  -0.000002   0.002968
    20  H    0.000170   0.650457  -0.011284  -0.000206   0.000023  -0.000204
    21  H    0.000005  -0.011284   0.657116  -0.011083  -0.000212   0.000020
    22  H   -0.000001  -0.000206  -0.011083   0.654581  -0.010939  -0.000200
    23  H   -0.000002   0.000023  -0.000212  -0.010939   0.656110  -0.011885
    24  H    0.002968  -0.000204   0.000020  -0.000200  -0.011885   0.651524
    25  H   -0.000174  -0.000044   0.000001  -0.000000   0.000003  -0.000021
    26  H    0.000002   0.000000   0.000000   0.000000  -0.000000  -0.000009
    27  H    0.000000   0.000000  -0.000000  -0.000000   0.000000  -0.000010
    28  H    0.002986   0.000000   0.000000  -0.000000   0.000000  -0.000251
              25         26         27         28
     1  O    0.020267  -0.000014  -0.000000  -0.000000
     2  C   -0.018731  -0.000141   0.000062  -0.003535
     3  C    0.000883  -0.000002  -0.000000  -0.001335
     4  C    0.000943  -0.000005  -0.000000   0.000229
     5  C   -0.000811   0.000000   0.000000  -0.000022
     6  C    0.000090  -0.000000  -0.000000  -0.000000
     7  C   -0.000008   0.000001  -0.000000  -0.000000
     8  C    0.000163  -0.000007  -0.000001  -0.000000
     9  C   -0.000127   0.000008   0.000002   0.000195
    10  C   -0.061855   0.012501   0.001164  -0.080947
    11  C    0.429548  -0.055477   0.006286   0.005795
    12  C   -0.046107   0.422318  -0.065794   0.000830
    13  C    0.008655  -0.046135   0.422875   0.004877
    14  N   -0.000448   0.005567  -0.038920  -0.034182
    15  C    0.010511   0.000067   0.004571   0.432714
    16  H    0.002008   0.000013  -0.000000   0.000012
    17  H    0.000579   0.000008  -0.000000   0.002945
    18  H   -0.000045  -0.000000   0.000000  -0.000100
    19  H   -0.000174   0.000002   0.000000   0.002986
    20  H   -0.000044   0.000000   0.000000   0.000000
    21  H    0.000001   0.000000  -0.000000   0.000000
    22  H   -0.000000   0.000000  -0.000000  -0.000000
    23  H    0.000003  -0.000000   0.000000   0.000000
    24  H   -0.000021  -0.000009  -0.000010  -0.000251
    25  H    0.644598  -0.010187  -0.000246  -0.000187
    26  H   -0.010187   0.648394  -0.006090   0.000062
    27  H   -0.000246  -0.006090   0.640330  -0.000279
    28  H   -0.000187   0.000062  -0.000279   0.643634
 Mulliken charges:
               1
     1  O   -0.319084
     2  C    0.209047
     3  C    0.064787
     4  C   -0.117453
     5  C   -0.072936
     6  C   -0.009407
     7  C   -0.018475
     8  C   -0.012850
     9  C   -0.007862
    10  C   -0.111064
    11  C    0.021075
    12  C   -0.043033
    13  C    0.024807
    14  N   -0.139974
    15  C    0.000045
    16  H    0.182220
    17  H    0.041633
    18  H    0.041506
    19  H    0.036971
    20  H    0.022068
    21  H    0.024167
    22  H    0.025216
    23  H    0.024858
    24  H    0.021260
    25  H    0.020741
    26  H    0.029128
    27  H    0.036050
    28  H    0.026559
 Sum of Mulliken charges =  -0.00000
 Mulliken charges with hydrogens summed into heavy atoms:
               1
     1  O   -0.136864
     2  C    0.250681
     3  C    0.143264
     4  C   -0.117453
     5  C   -0.050868
     6  C    0.014760
     7  C    0.006741
     8  C    0.012007
     9  C    0.013398
    10  C   -0.111064
    11  C    0.041816
    12  C   -0.013905
    13  C    0.060858
    14  N   -0.139974
    15  C    0.026603
 Electronic spatial extent (au):  <R**2>=           3105.0374
 Charge=             -0.0000 electrons
 Dipole moment (field-independent basis, Debye):
    X=              2.0265    Y=             -0.6950    Z=              0.7955  Tot=              2.2853
 Quadrupole moment (field-independent basis, Debye-Ang):
   XX=            -90.5030   YY=            -85.2300   ZZ=            -88.0776
   XY=              0.5734   XZ=             -0.8380   YZ=             -6.8092
 Traceless Quadrupole moment (field-independent basis, Debye-Ang):
   XX=             -2.5661   YY=              2.7069   ZZ=             -0.1407
   XY=              0.5734   XZ=             -0.8380   YZ=             -6.8092
 Octapole moment (field-independent basis, Debye-Ang**2):
  XXX=             39.0006  YYY=            -11.3912  ZZZ=             10.8768  XYY=              1.2654
  XXY=             -1.5672  XXZ=             36.5094  XZZ=             -0.1261  YZZ=              2.4522
  YYZ=             -8.4990  XYZ=             10.4914
 Hexadecapole moment (field-independent basis, Debye-Ang**3):
 XXXX=          -2779.0387 YYYY=           -977.1320 ZZZZ=           -488.3232 XXXY=             20.9265
 XXXZ=              6.9836 YYYX=             -1.8576 YYYZ=            -23.7536 ZZZX=             -2.3122
 ZZZY=             -9.5636 XXYY=           -561.4374 XXZZ=           -572.7572 YYZZ=           -260.7817
 XXYZ=            -36.9398 YYXZ=              0.3339 ZZXY=              4.6960
 N-N= 9.388539160874D+02 E-N=-3.344733583359D+03  KE= 6.257735978249D+02
   1 Symmetry operations used in ECPInt.
 ECPInt:  NShTT=    8385 NPrTT=   30369 LenC2=    8101 LenP2D=   21741.
 LDataN:  DoStor=T MaxTD1= 5 Len=  102
 Calling FoFJK, ICntrl=      2127 FMM=F ISym2X=0 I1Cent= 0 IOpClX= 0 NMat=1 NMatS=1 NMatT=0.
 ***** Axes restored to original set *****
 -------------------------------------------------------------------
 Center     Atomic                   Forces (Hartrees/Bohr)
 Number     Number              X              Y              Z
 -------------------------------------------------------------------
      1        8          -0.000003569    0.000001406   -0.000003894
      2        6           0.000012177    0.000013860    0.000012660
      3        6          -0.000006266    0.000005675    0.000001094
      4        6           0.000000839    0.000000259   -0.000004416
      5        6           0.000007227   -0.000000224    0.000009004
      6        6          -0.000002552    0.000004252    0.000001187
      7        6           0.000003287   -0.000009348    0.000000436
      8        6           0.000001474   -0.000002617   -0.000000785
      9        6          -0.000002866   -0.000002393   -0.000006620
     10        6          -0.000014037   -0.000012360   -0.000006033
     11        6          -0.000002763    0.000000113   -0.000006063
     12        6          -0.000000513   -0.000006300    0.000006761
     13        6          -0.000004712    0.000001967   -0.000001898
     14        7           0.000005896    0.000000365    0.000001513
     15        6          -0.000007750    0.000002601    0.000002595
     16        1           0.000008772   -0.000000407    0.000005544
     17        1           0.000001482   -0.000000391   -0.000001751
     18        1           0.000005162   -0.000003160   -0.000004153
     19        1          -0.000001993    0.000003067    0.000006129
     20        1          -0.000000493   -0.000001937   -0.000000871
     21        1          -0.000000427   -0.000002736    0.000000379
     22        1          -0.000001947    0.000002217   -0.000001249
     23        1          -0.000000247    0.000002565   -0.000000368
     24        1           0.000002578    0.000001444    0.000000420
     25        1           0.000000839    0.000002551    0.000000639
     26        1          -0.000002029    0.000000694   -0.000006802
     27        1          -0.000000574   -0.000002992   -0.000001323
     28        1           0.000003006    0.000001832   -0.000002132
 -------------------------------------------------------------------
 Cartesian Forces:  Max     0.000014037 RMS     0.000004816

 GradGradGradGradGradGradGradGradGradGradGradGradGradGradGradGradGradGrad
 Berny optimization.
 FormGI is forming the generalized inverse of G from B-inverse, IUseBI=4.
 Internal  Forces:  Max     0.000024367 RMS     0.000003461
 Search for a local minimum.
 Step number   1 out of a maximum of  154
 All quantities printed in internal units (Hartrees-Bohrs-Radians)
 Mixed Optimization -- En-DIIS/RFO-DIIS
 Second derivative matrix not updated -- first step.
 ITU=  0
     Eigenvalues ---    0.00230   0.00475   0.00657   0.01443   0.01503
     Eigenvalues ---    0.01686   0.02080   0.02109   0.02126   0.02146
     Eigenvalues ---    0.02148   0.02160   0.02167   0.02168   0.02176
     Eigenvalues ---    0.02183   0.02185   0.02207   0.02259   0.02320
     Eigenvalues ---    0.02509   0.04128   0.04544   0.05370   0.05458
     Eigenvalues ---    0.07965   0.09176   0.12751   0.15999   0.15999
     Eigenvalues ---    0.16000   0.16000   0.16000   0.16000   0.16000
     Eigenvalues ---    0.16000   0.16000   0.16000   0.18099   0.20628
     Eigenvalues ---    0.21956   0.21999   0.22000   0.22000   0.23199
     Eigenvalues ---    0.23440   0.23453   0.24947   0.24996   0.27800
     Eigenvalues ---    0.30173   0.31527   0.33411   0.33649   0.33680
     Eigenvalues ---    0.33920   0.34199   0.34366   0.34487   0.34552
     Eigenvalues ---    0.34562   0.34571   0.34633   0.34666   0.41892
     Eigenvalues ---    0.41970   0.42294   0.44570   0.45547   0.45619
     Eigenvalues ---    0.46022   0.46155   0.46533   0.46773   0.46840
     Eigenvalues ---    0.54357   0.56905   0.58585
 RFO step:  Lambda=-1.83451625D-08 EMin= 2.30000000D-03
 Linear search not attempted -- first point.
 Iteration  1 RMS(Cart)=  0.00034586 RMS(Int)=  0.00000003
 Iteration  2 RMS(Cart)=  0.00000005 RMS(Int)=  0.00000000
 Variable       Old X    -DE/DX   Delta X   Delta X   Delta X     New X
                                 (Linear)    (Quad)   (Total)
    R1        2.64645   0.00000   0.00000   0.00000   0.00000   2.64646
    R2        1.82408   0.00001   0.00000   0.00001   0.00001   1.82409
    R3        2.92578   0.00000   0.00000   0.00002   0.00002   2.92579
    R4        2.87619   0.00002   0.00000   0.00008   0.00008   2.87627
    R5        2.08335  -0.00000   0.00000  -0.00000  -0.00000   2.08335
    R6        2.85017   0.00001   0.00000   0.00002   0.00002   2.85020
    R7        2.07927   0.00000   0.00000   0.00000   0.00000   2.07927
    R8        2.07873  -0.00000   0.00000  -0.00001  -0.00001   2.07872
    R9        2.64799   0.00001   0.00000   0.00002   0.00002   2.64800
   R10        2.64904   0.00000   0.00000   0.00001   0.00001   2.64905
   R11        2.63748  -0.00000   0.00000  -0.00000  -0.00000   2.63748
   R12        2.06718  -0.00000   0.00000  -0.00001  -0.00001   2.06717
   R13        2.63203   0.00000   0.00000   0.00001   0.00001   2.63203
   R14        2.06408  -0.00000   0.00000  -0.00000  -0.00000   2.06408
   R15        2.63697   0.00000   0.00000   0.00000   0.00000   2.63697
   R16        2.06376  -0.00000   0.00000  -0.00001  -0.00001   2.06375
   R17        2.63124   0.00000   0.00000   0.00001   0.00001   2.63125
   R18        2.06392  -0.00000   0.00000  -0.00001  -0.00001   2.06391
   R19        2.06517  -0.00000   0.00000  -0.00001  -0.00001   2.06516
   R20        2.63195  -0.00000   0.00000  -0.00000  -0.00000   2.63195
   R21        2.64640   0.00000   0.00000   0.00000   0.00000   2.64640
   R22        2.63228   0.00001   0.00000   0.00001   0.00001   2.63229
   R23        2.06220   0.00000   0.00000   0.00001   0.00001   2.06221
   R24        2.63166  -0.00000   0.00000   0.00000   0.00000   2.63166
   R25        2.06276  -0.00001   0.00000  -0.00001  -0.00001   2.06274
   R26        2.51828   0.00000   0.00000   0.00000   0.00000   2.51828
   R27        2.06995   0.00000   0.00000   0.00001   0.00001   2.06996
   R28        2.51031   0.00000   0.00000   0.00000   0.00000   2.51031
   R29        2.07465   0.00000   0.00000   0.00001   0.00001   2.07466
    A1        1.88612   0.00001   0.00000   0.00007   0.00007   1.88618
    A2        1.93904  -0.00000   0.00000   0.00002   0.00002   1.93907
    A3        1.96580   0.00001   0.00000   0.00007   0.00007   1.96588
    A4        1.84686  -0.00000   0.00000  -0.00001  -0.00001   1.84685
    A5        1.94879  -0.00000   0.00000   0.00000   0.00000   1.94880
    A6        1.87616  -0.00000   0.00000  -0.00006  -0.00006   1.87610
    A7        1.88102  -0.00000   0.00000  -0.00004  -0.00004   1.88098
    A8        1.95436   0.00001   0.00000   0.00006   0.00006   1.95442
    A9        1.87852   0.00000   0.00000   0.00004   0.00004   1.87856
   A10        1.90776  -0.00001   0.00000  -0.00004  -0.00004   1.90772
   A11        1.92021  -0.00001   0.00000  -0.00004  -0.00004   1.92017
   A12        1.92776  -0.00000   0.00000   0.00000   0.00000   1.92776
   A13        1.87280   0.00000   0.00000  -0.00002  -0.00002   1.87278
   A14        2.10167  -0.00000   0.00000  -0.00000  -0.00000   2.10167
   A15        2.11405   0.00000   0.00000   0.00001   0.00001   2.11406
   A16        2.06574  -0.00000   0.00000  -0.00001  -0.00001   2.06573
   A17        2.11090   0.00000   0.00000   0.00000   0.00000   2.11090
   A18        2.08303  -0.00000   0.00000  -0.00001  -0.00001   2.08302
   A19        2.08918   0.00000   0.00000   0.00001   0.00001   2.08918
   A20        2.09505   0.00000   0.00000   0.00001   0.00001   2.09505
   A21        2.09073   0.00000   0.00000   0.00001   0.00001   2.09074
   A22        2.09738  -0.00000   0.00000  -0.00001  -0.00001   2.09737
   A23        2.08732  -0.00000   0.00000  -0.00001  -0.00001   2.08731
   A24        2.09811  -0.00000   0.00000  -0.00000  -0.00000   2.09811
   A25        2.09774   0.00000   0.00000   0.00001   0.00001   2.09775
   A26        2.09900   0.00000   0.00000   0.00001   0.00001   2.09900
   A27        2.09541  -0.00000   0.00000  -0.00000  -0.00000   2.09541
   A28        2.08878  -0.00000   0.00000  -0.00000  -0.00000   2.08877
   A29        2.10836  -0.00000   0.00000  -0.00000  -0.00000   2.10836
   A30        2.08525   0.00000   0.00000  -0.00000  -0.00000   2.08525
   A31        2.08957   0.00000   0.00000   0.00000   0.00000   2.08958
   A32        2.13106  -0.00000   0.00000  -0.00000  -0.00000   2.13105
   A33        2.10789   0.00000   0.00000   0.00002   0.00002   2.10790
   A34        2.04412  -0.00000   0.00000  -0.00001  -0.00001   2.04411
   A35        2.07990   0.00000   0.00000   0.00002   0.00002   2.07992
   A36        2.09154  -0.00000   0.00000  -0.00003  -0.00003   2.09151
   A37        2.11169   0.00000   0.00000   0.00001   0.00001   2.11170
   A38        2.07013  -0.00000   0.00000  -0.00001  -0.00001   2.07013
   A39        2.11174   0.00000   0.00000   0.00002   0.00002   2.11176
   A40        2.10131  -0.00000   0.00000  -0.00001  -0.00001   2.10130
   A41        2.14691  -0.00000   0.00000  -0.00001  -0.00001   2.14690
   A42        2.10235   0.00000   0.00000  -0.00000  -0.00000   2.10235
   A43        2.03390   0.00000   0.00000   0.00001   0.00001   2.03392
   A44        2.05558   0.00000   0.00000   0.00002   0.00002   2.05560
   A45        2.16939  -0.00000   0.00000  -0.00000  -0.00000   2.16939
   A46        2.09027  -0.00000   0.00000  -0.00001  -0.00001   2.09027
   A47        2.02352   0.00000   0.00000   0.00001   0.00001   2.02353
    D1       -0.83463   0.00000   0.00000   0.00009   0.00009  -0.83454
    D2        1.36655   0.00000   0.00000   0.00017   0.00017   1.36671
    D3       -2.86574   0.00000   0.00000   0.00015   0.00015  -2.86559
    D4        1.02761   0.00000   0.00000   0.00010   0.00010   1.02770
    D5       -1.08493   0.00000   0.00000   0.00008   0.00008  -1.08485
    D6       -3.11358   0.00000   0.00000   0.00011   0.00011  -3.11348
    D7       -1.18296  -0.00000   0.00000  -0.00002  -0.00002  -1.18298
    D8        2.98769  -0.00000   0.00000  -0.00003  -0.00003   2.98765
    D9        0.95903  -0.00000   0.00000  -0.00001  -0.00001   0.95902
   D10        3.04063  -0.00000   0.00000   0.00006   0.00006   3.04069
   D11        0.92809   0.00000   0.00000   0.00005   0.00005   0.92815
   D12       -1.10056   0.00000   0.00000   0.00008   0.00008  -1.10048
   D13       -0.17452   0.00000   0.00000   0.00018   0.00018  -0.17434
   D14        2.98413   0.00000   0.00000   0.00019   0.00019   2.98432
   D15        2.02140   0.00000   0.00000   0.00027   0.00027   2.02166
   D16       -1.10314   0.00000   0.00000   0.00028   0.00028  -1.10286
   D17       -2.20511  -0.00000   0.00000   0.00017   0.00017  -2.20494
   D18        0.95354  -0.00000   0.00000   0.00018   0.00018   0.95373
   D19       -1.58292   0.00000   0.00000   0.00036   0.00036  -1.58256
   D20        1.49440   0.00000   0.00000   0.00038   0.00038   1.49478
   D21        0.50533   0.00001   0.00000   0.00042   0.00042   0.50575
   D22       -2.70053   0.00001   0.00000   0.00044   0.00044  -2.70009
   D23        2.56967   0.00000   0.00000   0.00037   0.00037   2.57003
   D24       -0.63620   0.00000   0.00000   0.00039   0.00039  -0.63581
   D25        3.07546  -0.00000   0.00000  -0.00001  -0.00001   3.07544
   D26       -0.07921  -0.00000   0.00000  -0.00002  -0.00002  -0.07923
   D27       -0.00362  -0.00000   0.00000  -0.00003  -0.00003  -0.00365
   D28        3.12491  -0.00000   0.00000  -0.00005  -0.00005   3.12486
   D29       -3.07796  -0.00000   0.00000  -0.00000  -0.00000  -3.07796
   D30        0.06047   0.00000   0.00000  -0.00000  -0.00000   0.06047
   D31        0.00065   0.00000   0.00000   0.00002   0.00002   0.00067
   D32        3.13908   0.00000   0.00000   0.00002   0.00002   3.13910
   D33        0.00220   0.00000   0.00000   0.00003   0.00003   0.00223
   D34        3.13694   0.00000   0.00000   0.00001   0.00001   3.13694
   D35       -3.12628   0.00000   0.00000   0.00004   0.00004  -3.12624
   D36        0.00846   0.00000   0.00000   0.00002   0.00002   0.00848
   D37        0.00223  -0.00000   0.00000  -0.00001  -0.00001   0.00222
   D38        3.13838  -0.00000   0.00000  -0.00001  -0.00001   3.13837
   D39       -3.13248   0.00000   0.00000   0.00001   0.00001  -3.13247
   D40        0.00366   0.00000   0.00000   0.00002   0.00002   0.00368
   D41       -0.00518  -0.00000   0.00000  -0.00000  -0.00000  -0.00519
   D42        3.13676   0.00000   0.00000   0.00001   0.00001   3.13677
   D43       -3.14132  -0.00000   0.00000  -0.00001  -0.00001  -3.14133
   D44        0.00062   0.00000   0.00000   0.00001   0.00001   0.00062
   D45        0.00374   0.00000   0.00000   0.00000   0.00000   0.00375
   D46       -3.13468  -0.00000   0.00000  -0.00000  -0.00000  -3.13468
   D47       -3.13819  -0.00000   0.00000  -0.00001  -0.00001  -3.13821
   D48        0.00657  -0.00000   0.00000  -0.00002  -0.00002   0.00655
   D49       -3.10134   0.00000   0.00000   0.00006   0.00006  -3.10129
   D50        0.05116   0.00000   0.00000   0.00005   0.00005   0.05121
   D51        0.02378   0.00000   0.00000   0.00005   0.00005   0.02383
   D52       -3.10690   0.00000   0.00000   0.00005   0.00005  -3.10686
   D53        3.10061  -0.00000   0.00000  -0.00010  -0.00010   3.10051
   D54       -0.04156   0.00000   0.00000   0.00006   0.00006  -0.04150
   D55       -0.02475  -0.00000   0.00000  -0.00009  -0.00009  -0.02484
   D56        3.11627   0.00000   0.00000   0.00006   0.00006   3.11633
   D57       -0.00700  -0.00000   0.00000  -0.00001  -0.00001  -0.00700
   D58        3.13730  -0.00000   0.00000  -0.00002  -0.00002   3.13728
   D59        3.12356  -0.00000   0.00000  -0.00000  -0.00000   3.12355
   D60       -0.01533  -0.00000   0.00000  -0.00002  -0.00002  -0.01535
   D61       -0.01205  -0.00000   0.00000  -0.00000  -0.00000  -0.01205
   D62        3.13639  -0.00000   0.00000  -0.00007  -0.00007   3.13632
   D63        3.12685   0.00000   0.00000   0.00001   0.00001   3.12687
   D64       -0.00789  -0.00000   0.00000  -0.00006  -0.00006  -0.00795
   D65        0.01230  -0.00000   0.00000  -0.00004  -0.00004   0.01227
   D66       -3.13589   0.00000   0.00000   0.00003   0.00003  -3.13586
   D67        0.00671   0.00000   0.00000   0.00009   0.00009   0.00680
   D68       -3.13433  -0.00000   0.00000  -0.00007  -0.00007  -3.13440
         Item               Value     Threshold  Converged?
 Maximum Force            0.000024     0.000450     YES
 RMS     Force            0.000003     0.000300     YES
 Maximum Displacement     0.001486     0.001800     YES
 RMS     Displacement     0.000346     0.001200     YES
 Predicted change in Energy=-9.172595D-09
 Optimization completed.
    -- Stationary point found.
                           ----------------------------
                           !   Optimized Parameters   !
                           ! (Angstroms and Degrees)  !
 --------------------------                            --------------------------
 ! Name  Definition              Value          Derivative Info.                !
 --------------------------------------------------------------------------------
 ! R1    R(1,2)                  1.4004         -DE/DX =    0.0                 !
 ! R2    R(1,16)                 0.9653         -DE/DX =    0.0                 !
 ! R3    R(2,3)                  1.5483         -DE/DX =    0.0                 !
 ! R4    R(2,10)                 1.522          -DE/DX =    0.0                 !
 ! R5    R(2,17)                 1.1025         -DE/DX =    0.0                 !
 ! R6    R(3,4)                  1.5082         -DE/DX =    0.0                 !
 ! R7    R(3,18)                 1.1003         -DE/DX =    0.0                 !
 ! R8    R(3,19)                 1.1            -DE/DX =    0.0                 !
 ! R9    R(4,5)                  1.4013         -DE/DX =    0.0                 !
 ! R10   R(4,9)                  1.4018         -DE/DX =    0.0                 !
 ! R11   R(5,6)                  1.3957         -DE/DX =    0.0                 !
 ! R12   R(5,20)                 1.0939         -DE/DX =    0.0                 !
 ! R13   R(6,7)                  1.3928         -DE/DX =    0.0                 !
 ! R14   R(6,21)                 1.0923         -DE/DX =    0.0                 !
 ! R15   R(7,8)                  1.3954         -DE/DX =    0.0                 !
 ! R16   R(7,22)                 1.0921         -DE/DX =    0.0                 !
 ! R17   R(8,9)                  1.3924         -DE/DX =    0.0                 !
 ! R18   R(8,23)                 1.0922         -DE/DX =    0.0                 !
 ! R19   R(9,24)                 1.0928         -DE/DX =    0.0                 !
 ! R20   R(10,11)                1.3928         -DE/DX =    0.0                 !
 ! R21   R(10,15)                1.4004         -DE/DX =    0.0                 !
 ! R22   R(11,12)                1.3929         -DE/DX =    0.0                 !
 ! R23   R(11,25)                1.0913         -DE/DX =    0.0                 !
 ! R24   R(12,13)                1.3926         -DE/DX =    0.0                 !
 ! R25   R(12,26)                1.0916         -DE/DX =    0.0                 !
 ! R26   R(13,14)                1.3326         -DE/DX =    0.0                 !
 ! R27   R(13,27)                1.0954         -DE/DX =    0.0                 !
 ! R28   R(14,15)                1.3284         -DE/DX =    0.0                 !
 ! R29   R(15,28)                1.0979         -DE/DX =    0.0                 !
 ! A1    A(2,1,16)             108.0666         -DE/DX =    0.0                 !
 ! A2    A(1,2,3)              111.099          -DE/DX =    0.0                 !
 ! A3    A(1,2,10)             112.6322         -DE/DX =    0.0                 !
 ! A4    A(1,2,17)             105.817          -DE/DX =    0.0                 !
 ! A5    A(3,2,10)             111.6576         -DE/DX =    0.0                 !
 ! A6    A(3,2,17)             107.4962         -DE/DX =    0.0                 !
 ! A7    A(10,2,17)            107.7745         -DE/DX =    0.0                 !
 ! A8    A(2,3,4)              111.9769         -DE/DX =    0.0                 !
 ! A9    A(2,3,18)             107.6313         -DE/DX =    0.0                 !
 ! A10   A(2,3,19)             109.3067         -DE/DX =    0.0                 !
 ! A11   A(4,3,18)             110.0199         -DE/DX =    0.0                 !
 ! A12   A(4,3,19)             110.4524         -DE/DX =    0.0                 !
 ! A13   A(18,3,19)            107.3034         -DE/DX =    0.0                 !
 ! A14   A(3,4,5)              120.4166         -DE/DX =    0.0                 !
 ! A15   A(3,4,9)              121.1261         -DE/DX =    0.0                 !
 ! A16   A(5,4,9)              118.358          -DE/DX =    0.0                 !
 ! A17   A(4,5,6)              120.9457         -DE/DX =    0.0                 !
 ! A18   A(4,5,20)             119.3491         -DE/DX =    0.0                 !
 ! A19   A(6,5,20)             119.7011         -DE/DX =    0.0                 !
 ! A20   A(5,6,7)              120.0374         -DE/DX =    0.0                 !
 ! A21   A(5,6,21)             119.7901         -DE/DX =    0.0                 !
 ! A22   A(7,6,21)             120.1712         -DE/DX =    0.0                 !
 ! A23   A(6,7,8)              119.5945         -DE/DX =    0.0                 !
 ! A24   A(6,7,22)             120.2131         -DE/DX =    0.0                 !
 ! A25   A(8,7,22)             120.1917         -DE/DX =    0.0                 !
 ! A26   A(7,8,9)              120.2637         -DE/DX =    0.0                 !
 ! A27   A(7,8,23)             120.0582         -DE/DX =    0.0                 !
 ! A28   A(9,8,23)             119.6781         -DE/DX =    0.0                 !
 ! A29   A(4,9,8)              120.8            -DE/DX =    0.0                 !
 ! A30   A(4,9,24)             119.476          -DE/DX =    0.0                 !
 ! A31   A(8,9,24)             119.7238         -DE/DX =    0.0                 !
 ! A32   A(2,10,11)            122.1006         -DE/DX =    0.0                 !
 ! A33   A(2,10,15)            120.773          -DE/DX =    0.0                 !
 ! A34   A(11,10,15)           117.1196         -DE/DX =    0.0                 !
 ! A35   A(10,11,12)           119.1695         -DE/DX =    0.0                 !
 ! A36   A(10,11,25)           119.8363         -DE/DX =    0.0                 !
 ! A37   A(12,11,25)           120.9912         -DE/DX =    0.0                 !
 ! A38   A(11,12,13)           118.61           -DE/DX =    0.0                 !
 ! A39   A(11,12,26)           120.9936         -DE/DX =    0.0                 !
 ! A40   A(13,12,26)           120.3963         -DE/DX =    0.0                 !
 ! A41   A(12,13,14)           123.0091         -DE/DX =    0.0                 !
 ! A42   A(12,13,27)           120.4559         -DE/DX =    0.0                 !
 ! A43   A(14,13,27)           116.534          -DE/DX =    0.0                 !
 ! A44   A(13,14,15)           117.7763         -DE/DX =    0.0                 !
 ! A45   A(10,15,14)           124.297          -DE/DX =    0.0                 !
 ! A46   A(10,15,28)           119.7637         -DE/DX =    0.0                 !
 ! A47   A(14,15,28)           115.9393         -DE/DX =    0.0                 !
 ! D1    D(16,1,2,3)           -47.8206         -DE/DX =    0.0                 !
 ! D2    D(16,1,2,10)           78.2975         -DE/DX =    0.0                 !
 ! D3    D(16,1,2,17)         -164.195          -DE/DX =    0.0                 !
 ! D4    D(1,2,3,4)             58.8775         -DE/DX =    0.0                 !
 ! D5    D(1,2,3,18)           -62.1618         -DE/DX =    0.0                 !
 ! D6    D(1,2,3,19)          -178.3952         -DE/DX =    0.0                 !
 ! D7    D(10,2,3,4)           -67.7788         -DE/DX =    0.0                 !
 ! D8    D(10,2,3,18)          171.1819         -DE/DX =    0.0                 !
 ! D9    D(10,2,3,19)           54.9485         -DE/DX =    0.0                 !
 ! D10   D(17,2,3,4)           174.2152         -DE/DX =    0.0                 !
 ! D11   D(17,2,3,18)           53.1759         -DE/DX =    0.0                 !
 ! D12   D(17,2,3,19)          -63.0575         -DE/DX =    0.0                 !
 ! D13   D(1,2,10,11)           -9.9992         -DE/DX =    0.0                 !
 ! D14   D(1,2,10,15)          170.9783         -DE/DX =    0.0                 !
 ! D15   D(3,2,10,11)          115.8175         -DE/DX =    0.0                 !
 ! D16   D(3,2,10,15)          -63.205          -DE/DX =    0.0                 !
 ! D17   D(17,2,10,11)        -126.3434         -DE/DX =    0.0                 !
 ! D18   D(17,2,10,15)          54.6341         -DE/DX =    0.0                 !
 ! D19   D(2,3,4,5)            -90.6946         -DE/DX =    0.0                 !
 ! D20   D(2,3,4,9)             85.6229         -DE/DX =    0.0                 !
 ! D21   D(18,3,4,5)            28.9535         -DE/DX =    0.0                 !
 ! D22   D(18,3,4,9)          -154.729          -DE/DX =    0.0                 !
 ! D23   D(19,3,4,5)           147.231          -DE/DX =    0.0                 !
 ! D24   D(19,3,4,9)           -36.4515         -DE/DX =    0.0                 !
 ! D25   D(3,4,5,6)            176.2106         -DE/DX =    0.0                 !
 ! D26   D(3,4,5,20)            -4.5381         -DE/DX =    0.0                 !
 ! D27   D(9,4,5,6)             -0.2073         -DE/DX =    0.0                 !
 ! D28   D(9,4,5,20)           179.0439         -DE/DX =    0.0                 !
 ! D29   D(3,4,9,8)           -176.3541         -DE/DX =    0.0                 !
 ! D30   D(3,4,9,24)             3.4648         -DE/DX =    0.0                 !
 ! D31   D(5,4,9,8)              0.0373         -DE/DX =    0.0                 !
 ! D32   D(5,4,9,24)           179.8562         -DE/DX =    0.0                 !
 ! D33   D(4,5,6,7)              0.126          -DE/DX =    0.0                 !
 ! D34   D(4,5,6,21)           179.7333         -DE/DX =    0.0                 !
 ! D35   D(20,5,6,7)          -179.1226         -DE/DX =    0.0                 !
 ! D36   D(20,5,6,21)            0.4847         -DE/DX =    0.0                 !
 ! D37   D(5,6,7,8)              0.128          -DE/DX =    0.0                 !
 ! D38   D(5,6,7,22)           179.8157         -DE/DX =    0.0                 !
 ! D39   D(21,6,7,8)          -179.4778         -DE/DX =    0.0                 !
 ! D40   D(21,6,7,22)            0.2099         -DE/DX =    0.0                 !
 ! D41   D(6,7,8,9)             -0.2968         -DE/DX =    0.0                 !
 ! D42   D(6,7,8,23)           179.7231         -DE/DX =    0.0                 !
 ! D43   D(22,7,8,9)          -179.9846         -DE/DX =    0.0                 !
 ! D44   D(22,7,8,23)            0.0353         -DE/DX =    0.0                 !
 ! D45   D(7,8,9,4)              0.2145         -DE/DX =    0.0                 !
 ! D46   D(7,8,9,24)          -179.604          -DE/DX =    0.0                 !
 ! D47   D(23,8,9,4)          -179.8053         -DE/DX =    0.0                 !
 ! D48   D(23,8,9,24)            0.3762         -DE/DX =    0.0                 !
 ! D49   D(2,10,11,12)        -177.6939         -DE/DX =    0.0                 !
 ! D50   D(2,10,11,25)           2.9312         -DE/DX =    0.0                 !
 ! D51   D(15,10,11,12)          1.3625         -DE/DX =    0.0                 !
 ! D52   D(15,10,11,25)       -178.0124         -DE/DX =    0.0                 !
 ! D53   D(2,10,15,14)         177.6518         -DE/DX =    0.0                 !
 ! D54   D(2,10,15,28)          -2.3811         -DE/DX =    0.0                 !
 ! D55   D(11,10,15,14)         -1.4179         -DE/DX =    0.0                 !
 ! D56   D(11,10,15,28)        178.5492         -DE/DX =    0.0                 !
 ! D57   D(10,11,12,13)         -0.401          -DE/DX =    0.0                 !
 ! D58   D(10,11,12,26)        179.754          -DE/DX =    0.0                 !
 ! D59   D(25,11,12,13)        178.9665         -DE/DX =    0.0                 !
 ! D60   D(25,11,12,26)         -0.8785         -DE/DX =    0.0                 !
 ! D61   D(11,12,13,14)         -0.6904         -DE/DX =    0.0                 !
 ! D62   D(11,12,13,27)        179.702          -DE/DX =    0.0                 !
 ! D63   D(26,12,13,14)        179.1556         -DE/DX =    0.0                 !
 ! D64   D(26,12,13,27)         -0.4521         -DE/DX =    0.0                 !
 ! D65   D(12,13,14,15)          0.7049         -DE/DX =    0.0                 !
 ! D66   D(27,13,14,15)       -179.6731         -DE/DX =    0.0                 !
 ! D67   D(13,14,15,10)          0.3843         -DE/DX =    0.0                 !
 ! D68   D(13,14,15,28)       -179.5839         -DE/DX =    0.0                 !
 --------------------------------------------------------------------------------
 GradGradGradGradGradGradGradGradGradGradGradGradGradGradGradGradGradGrad

                          Input orientation:                          
 ---------------------------------------------------------------------
 Center     Atomic      Atomic             Coordinates (Angstroms)
 Number     Number       Type             X           Y           Z
 ---------------------------------------------------------------------
      1          8           0        0.072820    2.181580    1.185410
      2          6           0       -0.497310    1.826070   -0.043330
      3          6           0        0.595130    1.523570   -1.097920
      4          6           0        1.507570    0.405100   -0.660560
      5          6           0        2.676310    0.683830    0.060460
      6          6           0        3.487660   -0.346360    0.538350
      7          6           0        3.142010   -1.674190    0.298950
      8          6           0        1.983500   -1.965440   -0.422320
      9          6           0        1.173790   -0.936050   -0.895060
[...]
     2  C    0.264292   4.809558   0.266465   0.053053  -0.006788   0.002743
     3  C   -0.024088   0.266465   5.143658   0.205571  -0.066104   0.009438
     4  C   -0.025235   0.053053   0.205571   5.244542   0.232448   0.044772
     5  C    0.006837  -0.006788  -0.066104   0.232448   5.349964   0.356835
     6  C    0.000384   0.002743   0.009438   0.044772   0.356835   4.963158
     7  C   -0.000213  -0.001967  -0.000751  -0.130346   0.081630   0.395634
     8  C    0.001140   0.004597   0.002800   0.077031  -0.122440   0.052145
     9  C   -0.002440  -0.012206  -0.055920   0.317944   0.098607  -0.112609
    10  C   -0.101386   0.261061  -0.019025  -0.035154   0.003568   0.000138
    11  C    0.040349  -0.062179   0.005381   0.016368  -0.007872   0.001656
    12  C    0.005405   0.004930  -0.000822   0.001668  -0.001307   0.000247
    13  C   -0.000109  -0.001719   0.000762   0.000000   0.000078  -0.000013
    14  N   -0.000384   0.008001  -0.000208  -0.000001   0.000088  -0.000003
    15  C    0.000912  -0.051670   0.018491  -0.006807  -0.001938   0.000058
    16  H    0.297410  -0.010964  -0.028107   0.020505   0.001472   0.001362
    17  H   -0.030716   0.418793  -0.072332   0.013778  -0.000401  -0.000030
    18  H   -0.001652  -0.039803   0.418795  -0.049368   0.002540   0.000884
    19  H    0.003595  -0.024576   0.413067  -0.052161   0.009555  -0.000985
    20  H    0.001382  -0.002095   0.000668  -0.072201   0.453780  -0.047248
    21  H   -0.000030   0.000010  -0.000138   0.016142  -0.063786   0.449003
    22  H   -0.000001  -0.000001   0.000056  -0.003897   0.011804  -0.057782
    23  H    0.000006   0.000076  -0.000170   0.013046  -0.004479   0.011629
    24  H   -0.000139  -0.006281   0.001473  -0.060726   0.012370  -0.004003
    25  H    0.020266  -0.010705   0.000222   0.002883  -0.002170   0.000532
    26  H   -0.000074   0.000270   0.000002  -0.000022  -0.000001   0.000003
    27  H   -0.000003   0.000110   0.000001   0.000005   0.000001  -0.000000
    28  H    0.000117   0.003568   0.001819  -0.000756  -0.000230   0.000007
               7          8          9         10         11         12
     1  O   -0.000213   0.001140  -0.002440  -0.101386   0.040349   0.005405
     2  C   -0.001967   0.004597  -0.012206   0.261061  -0.062179   0.004930
     3  C   -0.000751   0.002800  -0.055920  -0.019025   0.005381  -0.000822
     4  C   -0.130346   0.077031   0.317944  -0.035154   0.016368   0.001668
     5  C    0.081630  -0.122440   0.098607   0.003568  -0.007872  -0.001307
     6  C    0.395634   0.052145  -0.112609   0.000138   0.001656   0.000247
     7  C    4.994532   0.379149   0.080257   0.000691  -0.001640  -0.000285
     8  C    0.379149   4.997352   0.348734  -0.001519   0.005307   0.001712
     9  C    0.080257   0.348734   5.178231   0.007987  -0.010126  -0.002467
    10  C    0.000691  -0.001519   0.007987   5.340258   0.355502  -0.051178
    11  C   -0.001640   0.005307  -0.010126   0.355502   5.106980   0.462062
    12  C   -0.000285   0.001712  -0.002467  -0.051178   0.462062   4.899661
    13  C    0.000022  -0.000083  -0.000223  -0.052104   0.021241   0.489043
    14  N    0.000007  -0.000344  -0.001546  -0.032909  -0.073341  -0.044768
    15  C   -0.000079   0.000115   0.003388   0.409320  -0.013461  -0.008269
    16  H   -0.000876   0.001446  -0.004557  -0.014416   0.004959   0.000225
    17  H   -0.000021   0.000142  -0.000522  -0.052059   0.003379   0.000172
    18  H    0.000195  -0.000802   0.006164   0.010780  -0.000832   0.000017
    19  H    0.000422   0.000067  -0.000415  -0.008150  -0.000095  -0.000374
    20  H    0.011466  -0.005411   0.014691   0.000359  -0.000200  -0.000005
    21  H   -0.058707   0.012251  -0.004942  -0.000010   0.000014   0.000002
    22  H    0.445737  -0.056347   0.011825   0.000007  -0.000011  -0.000004
    23  H   -0.057919   0.446550  -0.056735  -0.000006   0.000042   0.000132
    24  H    0.010274  -0.045606   0.436791  -0.001221  -0.003168  -0.000718
    25  H   -0.000289   0.000733  -0.001844  -0.063302   0.436496  -0.032656
    26  H   -0.000004  -0.000010  -0.000020   0.014117  -0.063595   0.424104
    27  H   -0.000000  -0.000004   0.000033   0.000518   0.002002  -0.063284
    28  H   -0.000006  -0.000013   0.000744  -0.100095   0.005339  -0.000506
              13         14         15         16         17         18
     1  O   -0.000109  -0.000384   0.000912   0.297410  -0.030716  -0.001652
     2  C   -0.001719   0.008001  -0.051670  -0.010964   0.418793  -0.039803
     3  C    0.000762  -0.000208   0.018491  -0.028107  -0.072332   0.418795
     4  C    0.000000  -0.000001  -0.006807   0.020505   0.013778  -0.049368
     5  C    0.000078   0.000088  -0.001938   0.001472  -0.000401   0.002540
     6  C   -0.000013  -0.000003   0.000058   0.001362  -0.000030   0.000884
     7  C    0.000022   0.000007  -0.000079  -0.000876  -0.000021   0.000195
     8  C   -0.000083  -0.000344   0.000115   0.001446   0.000142  -0.000802
     9  C   -0.000223  -0.001546   0.003388  -0.004557  -0.000522   0.006164
    10  C   -0.052104  -0.032909   0.409320  -0.014416  -0.052059   0.010780
    11  C    0.021241  -0.073341  -0.013461   0.004959   0.003379  -0.000832
    12  C    0.489043  -0.044768  -0.008269   0.000225   0.000172   0.000017
    13  C    4.779073   0.500967  -0.105367  -0.000074  -0.000239  -0.000014
    14  N    0.500967   6.444843   0.503890  -0.000017  -0.000349  -0.000004
    15  C   -0.105367   0.503890   4.939767   0.000471  -0.000042   0.000209
    16  H   -0.000074  -0.000017   0.000471   0.396318   0.009639  -0.000129
    17  H   -0.000239  -0.000349  -0.000042   0.009639   0.603841  -0.004440
    18  H   -0.000014  -0.000004   0.000209  -0.000129  -0.004440   0.544417
    19  H    0.000180   0.000307  -0.001151  -0.000018   0.002210  -0.016994
    20  H    0.000000   0.000001  -0.000043  -0.001921  -0.000213   0.002228
    21  H   -0.000000  -0.000000   0.000000  -0.000016  -0.000001  -0.000036
    22  H   -0.000000   0.000000   0.000001  -0.000004   0.000000  -0.000001
    23  H    0.000000  -0.000004  -0.000032   0.000009  -0.000000   0.000008
    24  H    0.001586   0.002207  -0.005431  -0.000208  -0.000315   0.000168
    25  H    0.005082  -0.002196   0.005313   0.001313   0.000334  -0.000038
    26  H   -0.039018   0.007605  -0.002173   0.000009   0.000019  -0.000000
    27  H    0.430861  -0.028865   0.002460  -0.000001  -0.000002  -0.000000
    28  H    0.005400  -0.028548   0.457804   0.000024   0.002060   0.000118
              19         20         21         22         23         24
     1  O    0.003595   0.001382  -0.000030  -0.000001   0.000006  -0.000139
     2  C   -0.024576  -0.002095   0.000010  -0.000001   0.000076  -0.006281
     3  C    0.413067   0.000668  -0.000138   0.000056  -0.000170   0.001473
     4  C   -0.052161  -0.072201   0.016142  -0.003897   0.013046  -0.060726
     5  C    0.009555   0.453780  -0.063786   0.011804  -0.004479   0.012370
     6  C   -0.000985  -0.047248   0.449003  -0.057782   0.011629  -0.004003
     7  C    0.000422   0.011466  -0.058707   0.445737  -0.057919   0.010274
     8  C    0.000067  -0.005411   0.012251  -0.056347   0.446550  -0.045606
     9  C   -0.000415   0.014691  -0.004942   0.011825  -0.056735   0.436791
    10  C   -0.008150   0.000359  -0.000010   0.000007  -0.000006  -0.001221
    11  C   -0.000095  -0.000200   0.000014  -0.000011   0.000042  -0.003168
    12  C   -0.000374  -0.000005   0.000002  -0.000004   0.000132  -0.000718
    13  C    0.000180   0.000000  -0.000000  -0.000000   0.000000   0.001586
    14  N    0.000307   0.000001  -0.000000   0.000000  -0.000004   0.002207
    15  C   -0.001151  -0.000043   0.000000   0.000001  -0.000032  -0.005431
    16  H   -0.000018  -0.001921  -0.000016  -0.000004   0.000009  -0.000208
    17  H    0.002210  -0.000213  -0.000001   0.000000  -0.000000  -0.000315
    18  H   -0.016994   0.002228  -0.000036  -0.000001   0.000008   0.000168
    19  H    0.538645   0.000222  -0.000001   0.000000  -0.000038  -0.001030
    20  H    0.000222   0.506083  -0.006593  -0.000071   0.000019   0.000039
    21  H   -0.000001  -0.006593   0.539151  -0.007193  -0.000081   0.000016
    22  H    0.000000  -0.000071  -0.007193   0.539478  -0.006951  -0.000095
    23  H   -0.000038   0.000019  -0.000081  -0.006951   0.536846  -0.006445
    24  H   -0.001030   0.000039   0.000016  -0.000095  -0.006445   0.515489
    25  H   -0.000205  -0.000052   0.000008  -0.000003   0.000005  -0.000037
    26  H    0.000003  -0.000000  -0.000000   0.000000   0.000004  -0.000052
    27  H    0.000003   0.000000  -0.000000   0.000000   0.000001  -0.000035
    28  H    0.000630  -0.000004   0.000000  -0.000000   0.000002  -0.000729
              25         26         27         28
     1  O    0.020266  -0.000074  -0.000003   0.000117
     2  C   -0.010705   0.000270   0.000110   0.003568
     3  C    0.000222   0.000002   0.000001   0.001819
     4  C    0.002883  -0.000022   0.000005  -0.000756
     5  C   -0.002170  -0.000001   0.000001  -0.000230
     6  C    0.000532   0.000003  -0.000000   0.000007
     7  C   -0.000289  -0.000004  -0.000000  -0.000006
     8  C    0.000733  -0.000010  -0.000004  -0.000013
     9  C   -0.001844  -0.000020   0.000033   0.000744
    10  C   -0.063302   0.014117   0.000518  -0.100095
    11  C    0.436496  -0.063595   0.002002   0.005339
    12  C   -0.032656   0.424104  -0.063284  -0.000506
    13  C    0.005082  -0.039018   0.430861   0.005400
    14  N   -0.002196   0.007605  -0.028865  -0.028548
    15  C    0.005313  -0.002173   0.002460   0.457804
    16  H    0.001313   0.000009  -0.000001   0.000024
    17  H    0.000334   0.000019  -0.000002   0.002060
    18  H   -0.000038  -0.000000  -0.000000   0.000118
    19  H   -0.000205   0.000003   0.000003   0.000630
    20  H   -0.000052  -0.000000   0.000000  -0.000004
    21  H    0.000008  -0.000000  -0.000000   0.000000
    22  H   -0.000003   0.000000   0.000000  -0.000000
    23  H    0.000005   0.000004   0.000001   0.000002
    24  H   -0.000037  -0.000052  -0.000035  -0.000729
    25  H    0.509227  -0.006458  -0.000229  -0.000077
    26  H   -0.006458   0.538839  -0.001615   0.000084
    27  H   -0.000229  -0.001615   0.529489  -0.000151
    28  H   -0.000077   0.000084  -0.000151   0.526580
 Mulliken charges:
               1
     1  O   -0.465850
     2  C    0.133424
     3  C   -0.221006
     4  C    0.176919
     5  C   -0.344061
     6  C   -0.067954
     7  C   -0.146915
     8  C   -0.098693
     9  C   -0.238822
    10  C    0.128228
    11  C   -0.230558
    12  C   -0.082734
    13  C   -0.035332
    14  N   -0.254429
    15  C   -0.145736
    16  H    0.326145
    17  H    0.107317
    18  H    0.127590
    19  H    0.137288
    20  H    0.145121
    21  H    0.124938
    22  H    0.123454
    23  H    0.124487
    24  H    0.155824
    25  H    0.137847
    26  H    0.127983
    27  H    0.128706
    28  H    0.126819
 Sum of Mulliken charges =  -0.00000
 Mulliken charges with hydrogens summed into heavy atoms:
               1
     1  O   -0.139705
     2  C    0.240741
     3  C    0.043873
     4  C    0.176919
     5  C   -0.198941
     6  C    0.056984
     7  C   -0.023461
     8  C    0.025793
     9  C   -0.082998
    10  C    0.128228
    11  C   -0.092711
    12  C    0.045249
    13  C    0.093374
    14  N   -0.254429
    15  C   -0.018917
 Electronic spatial extent (au):  <R**2>=           3105.7735
 Charge=              0.0000 electrons
 Dipole moment (field-independent basis, Debye):
    X=              2.0270    Y=             -0.6917    Z=              0.7711  Tot=              2.2764
 Quadrupole moment (field-independent basis, Debye-Ang):
   XX=            -90.9155   YY=            -85.4007   ZZ=            -88.4844
   XY=              0.6135   XZ=             -0.8992   YZ=             -7.1296
 Traceless Quadrupole moment (field-independent basis, Debye-Ang):
   XX=             -2.6486   YY=              2.8662   ZZ=             -0.2176
   XY=              0.6135   XZ=             -0.8992   YZ=             -7.1296
 Octapole moment (field-independent basis, Debye-Ang**2):
  XXX=             40.8913  YYY=            -12.4892  ZZZ=             10.7123  XYY=              0.7806
  XXY=             -2.4057  XXZ=             37.7999  XZZ=             -0.2382  YZZ=              2.5587
  YYZ=             -8.8283  XYZ=             10.6736
 Hexadecapole moment (field-independent basis, Debye-Ang**3):
 XXXX=          -2800.3375 YYYY=           -985.8981 ZZZZ=           -497.0786 XXXY=             24.6331
 XXXZ=              8.5331 YYYX=             -3.5799 YYYZ=            -26.6934 ZZZX=             -4.3881
 ZZZY=            -13.0615 XXYY=           -561.3582 XXZZ=           -579.6097 YYZZ=           -265.3629
 XXYZ=            -40.1494 YYXZ=             -0.5435 ZZXY=              4.7725
 N-N= 9.388539160874D+02 E-N=-3.350083693152D+03  KE= 6.298043228629D+02
 Breneman (CHELPG) radii used.
 Read replacement radii for each type of atom:
 Atom Element Radius
    1     8    1.70
    2     6    1.50
    3     6    1.50
    4     6    1.50
    5     6    1.50
    6     6    1.50
    7     6    1.50
    8     6    1.50
    9     6    1.50
   10     6    1.50
   11     6    1.50
   12     6    1.50
   13     6    1.50
   14     7    1.70
   15     6    1.50
   16     1    1.45
   17     1    1.45
   18     1    1.45
   19     1    1.45
   20     1    1.45
   21     1    1.45
   22     1    1.45
   23     1    1.45
   24     1    1.45
   25     1    1.45
   26     1    1.45
   27     1    1.45
   28     1    1.45
 Generate Potential Derived Charges using the Breneman model, NDens= 1.
 Grid spacing= 0.300 Box extension= 2.800
 NStep X,Y,Z=   48     39     34   Total possible points=       63648
 Number of Points to Fit=   16682

 **********************************************************************

            Electrostatic Properties Using The SCF Density.

 **********************************************************************

       Atomic Center    1 is at   0.072820  2.181581  1.185410
       Atomic Center    2 is at  -0.497310  1.826071 -0.043330
       Atomic Center    3 is at   0.595130  1.523571 -1.097920
       Atomic Center    4 is at   1.507570  0.405101 -0.660560
       Atomic Center    5 is at   2.676310  0.683831  0.060460
       Atomic Center    6 is at   3.487660 -0.346359  0.538350
       Atomic Center    7 is at   3.142010 -1.674189  0.298950
       Atomic Center    8 is at   1.983500 -1.965439 -0.422320
       Atomic Center    9 is at   1.173790 -0.936049 -0.895060
       Atomic Center   10 is at  -1.490280  0.679371  0.081640
       Atomic Center   11 is at  -1.625350 -0.058119  1.255380
       Atomic Center   12 is at  -2.519050 -1.126099  1.287100
       Atomic Center   13 is at  -3.255150 -1.413929  0.140500
       Atomic Center   14 is at  -3.154150 -0.705759 -0.983850
       Atomic Center   15 is at  -2.298040  0.309831 -1.001010
       Atomic Center   16 is at   0.758570  1.535511  1.395330
       Atomic Center   17 is at  -1.051550  2.715371 -0.385950
       Atomic Center   18 is at   1.175800  2.445691 -1.250190
       Atomic Center   19 is at   0.116340  1.276311 -2.056910
       Atomic Center   20 is at   2.960560  1.724921  0.239220
       Atomic Center   21 is at   4.396880 -0.107489  1.094500
       Atomic Center   22 is at   3.776371 -2.482489  0.668970
       Atomic Center   23 is at   1.707671 -3.003879 -0.618320
       Atomic Center   24 is at   0.265050 -1.174329 -1.453370
       Atomic Center   25 is at  -1.041230  0.212131  2.136650
       Atomic Center   26 is at  -2.645590 -1.726519  2.189870
       Atomic Center   27 is at  -3.962899 -2.249889  0.130370
       Atomic Center   28 is at  -2.244270  0.876781 -1.939610
   16682 points will be used for fitting atomic charges
 Fitting point charges to electrostatic potential
 Charges from ESP fit, RMS=   0.00402 RRMS=   0.33321:
 ESP charges:
               1
     1  O   -0.613511
     2  C    0.487376
     3  C   -0.330218
     4  C    0.216611
     5  C   -0.174330
     6  C   -0.086377
     7  C   -0.100433
     8  C   -0.076996
     9  C   -0.215037
    10  C   -0.237940
    11  C    0.109892
    12  C   -0.351147
    13  C    0.386656
    14  N   -0.611107
    15  C    0.370514
    16  H    0.339578
    17  H   -0.006545
    18  H    0.087024
    19  H    0.079158
    20  H    0.105016
    21  H    0.095262
    22  H    0.095274
    23  H    0.094247
    24  H    0.128663
    25  H    0.058955
    26  H    0.133859
    27  H    0.013365
    28  H    0.002191
 Sum of ESP charges =   0.00000
 ESP charges with hydrogens summed into heavy atoms:
               1
     1  O   -0.273934
     2  C    0.480831
     3  C   -0.164036
     4  C    0.216611
     5  C   -0.069313
     6  C    0.008885
     7  C   -0.005159
     8  C    0.017251
     9  C   -0.086374
    10  C   -0.237940
    11  C    0.168848
    12  C   -0.217288
    13  C    0.400021
    14  N   -0.611107
    15  C    0.372705
 Charge=   0.00000 Dipole=     2.0157    -0.6466     0.6217 Tot=     2.2063
 -----------------------------------------------------------------

              Electrostatic Properties (Atomic Units)

 -----------------------------------------------------------------
    Center     Electric         -------- Electric Field --------
               Potential          X             Y             Z
 -----------------------------------------------------------------
    1 Atom    -22.351838
    2 Atom    -14.697752
    3 Atom    -14.753760
    4 Atom    -14.749892
    5 Atom    -14.760098
    6 Atom    -14.759488
    7 Atom    -14.761432
    8 Atom    -14.760943
    9 Atom    -14.762780
   10 Atom    -14.755998
   11 Atom    -14.754129
   12 Atom    -14.760614
   13 Atom    -14.738327
   14 Atom    -18.399551
   15 Atom    -14.735879
   16 Atom     -0.998271
   17 Atom     -1.109638
   18 Atom     -1.108704
   19 Atom     -1.103494
   20 Atom     -1.096491
   21 Atom     -1.098434
   22 Atom     -1.099791
   23 Atom     -1.100631
   24 Atom     -1.101637
   25 Atom     -1.095478
   26 Atom     -1.094882
   27 Atom     -1.107035
   28 Atom     -1.102436
 -----------------------------------------------------------------
 Unable to Open any file for archive entry.
 1\1\GINC-NOTCH423\SP\RwB97XD\def2TZVP\C13H13N1O1\U6053008\12-Jul-2024\
 0\\#N Guess=Read Geom=Check Integral(Ultrafine) Density Pop=(ChelpG,Re
 adRadii) NMR wB97XD def2TZVP\\12365813_1\\0,1\O,0,0.07282,2.18158,1.18
 541\C,0,-0.49731,1.82607,-0.04333\C,0,0.59513,1.52357,-1.09792\C,0,1.5
 0757,0.4051,-0.66056\C,0,2.67631,0.68383,0.06046\C,0,3.48766,-0.34636,
 0.53835\C,0,3.14201,-1.67419,0.29895\C,0,1.9835,-1.96544,-0.42232\C,0,
 1.17379,-0.93605,-0.89506\C,0,-1.49028,0.67937,0.08164\C,0,-1.62535,-0
 .05812,1.25538\C,0,-2.51905,-1.1261,1.2871\C,0,-3.25515,-1.41393,0.140
 5\N,0,-3.15415,-0.70576,-0.98385\C,0,-2.29804,0.30983,-1.00101\H,0,0.7
 5857,1.53551,1.39533\H,0,-1.05155,2.71537,-0.38595\H,0,1.1758,2.44569,
 -1.25019\H,0,0.11634,1.27631,-2.05691\H,0,2.96056,1.72492,0.23922\H,0,
 4.39688,-0.10749,1.0945\H,0,3.77637,-2.48249,0.66897\H,0,1.70767,-3.00
 388,-0.61832\H,0,0.26505,-1.17433,-1.45337\H,0,-1.04123,0.21213,2.1366
 5\H,0,-2.64559,-1.72652,2.18987\H,0,-3.9629,-2.24989,0.13037\H,0,-2.24
 427,0.87678,-1.93961\\Version=ES64L-G16RevC.01\State=1-A\HF=-633.19774
 74\RMSD=2.529e-09\Dipole=0.797502,-0.2721494,0.3033646\Quadrupole=-1.9
 691662,2.13092,-0.1617538,0.4561181,-0.6685397,-5.300662\PG=C01 [X(C13
 H13N1O1)]\\@
 The archive entry for this job was punched.


 SUCCESS IS NEVER CERTAIN,
 FAILURE IS NEVER FINAL.
 Job cpu time:       0 days  1 hours  0 minutes  5.1 seconds.
 Elapsed time:       0 days  0 hours  3 minutes 57.0 seconds.
 File lengths (MBytes):  RWF=    183 Int=      0 D2E=      0 Chk=     27 Scr=      2
 Normal termination of Gaussian 16 at Fri Jul 12 13:30:11 2024.
