 Entering Gaussian System, Link 0=g16
 Input=12365813_18.com
 Output=12365813_18.log
 Initial command:
 /uufs/chpc.utah.edu/sys/installdir/gaussian16/C01/AVX/g16/l1.exe "/scratch/general/vast/u6053008/1287172-notchpeak.peaks/Gau-1460899.inp" -scrdir="/scratch/general/vast/u6053008/1287172-notchpeak.peaks/"
 Entering Link 1 = /uufs/chpc.utah.edu/sys/installdir/gaussian16/C01/AVX/g16/l1.exe PID=   1460900.
  
 Copyright (c) 1988-2019, Gaussian, Inc.  All Rights Reserved.
  
 This is part of the Gaussian(R) 16 program.  It is based on
 the Gaussian(R) 09 system (copyright 2009, Gaussian, Inc.),
 the Gaussian(R) 03 system (copyright 2003, Gaussian, Inc.),
 the Gaussian(R) 98 system (copyright 1998, Gaussian, Inc.),
 the Gaussian(R) 94 system (copyright 1995, Gaussian, Inc.),
 the Gaussian 92(TM) system (copyright 1992, Gaussian, Inc.),
 the Gaussian 90(TM) system (copyright 1990, Gaussian, Inc.),
 the Gaussian 88(TM) system (copyright 1988, Gaussian, Inc.),
 the Gaussian 86(TM) system (copyright 1986, Carnegie Mellon
 University), and the Gaussian 82(TM) system (copyright 1983,
 Carnegie Mellon University). Gaussian is a federally registered
 trademark of Gaussian, Inc.
  
 This software contains proprietary and confidential information,
 including trade secrets, belonging to Gaussian, Inc.
  
 This software is provided under written license and may be
 used, copied, transmitted, or stored only in accord with that
 written license.
  
 The following legend is applicable only to US Government
 contracts under FAR:
  
                    RESTRICTED RIGHTS LEGEND
  
 Use, reproduction and disclosure by the US Government is
 subject to restrictions as set forth in subparagraphs (a)
 and (c) of the Commercial Computer Software - Restricted
 Rights clause in FAR 52.227-19.
  
 Gaussian, Inc.
 340 Quinnipiac St., Bldg. 40, Wallingford CT 06492
  
  
 ---------------------------------------------------------------
 Warning -- This program may not be used in any manner that
 competes with the business of Gaussian, Inc. or will provide
 assistance to any competitor of Gaussian, Inc.  The licensee
 of this program is prohibited from giving any competitor of
 Gaussian, Inc. access to this program.  By using this program,
 the user acknowledges that Gaussian, Inc. is engaged in the
 business of creating and licensing software in the field of
 computational chemistry and represents and warrants to the
 licensee that it is not a competitor of Gaussian, Inc. and that
 it will not use this program in any manner prohibited above.
 ---------------------------------------------------------------
  

 Cite this work as:
 Gaussian 16, Revision C.01,
 M. J. Frisch, G. W. Trucks, H. B. Schlegel, G. E. Scuseria, 
 M. A. Robb, J. R. Cheeseman, G. Scalmani, V. Barone, 
 G. A. Petersson, H. Nakatsuji, X. Li, M. Caricato, A. V. Marenich, 
 J. Bloino, B. G. Janesko, R. Gomperts, B. Mennucci, H. P. Hratchian, 
 J. V. Ortiz, A. F. Izmaylov, J. L. Sonnenberg, D. Williams-Young, 
 F. Ding, F. Lipparini, F. Egidi, J. Goings, B. Peng, A. Petrone, 
 T. Henderson, D. Ranasinghe, V. G. Zakrzewski, J. Gao, N. Rega, 
 G. Zheng, W. Liang, M. Hada, M. Ehara, K. Toyota, R. Fukuda, 
 J. Hasegawa, M. Ishida, T. Nakajima, Y. Honda, O. Kitao, H. Nakai, 
 T. Vreven, K. Throssell, J. A. Montgomery, Jr., J. E. Peralta, 
 F. Ogliaro, M. J. Bearpark, J. J. Heyd, E. N. Brothers, K. N. Kudin, 
 V. N. Staroverov, T. A. Keith, R. Kobayashi, J. Normand, 
 K. Raghavachari, A. P. Rendell, J. C. Burant, S. S. Iyengar, 
 J. Tomasi, M. Cossi, J. M. Millam, M. Klene, C. Adamo, R. Cammi, 
 J. W. Ochterski, R. L. Martin, K. Morokuma, O. Farkas, 
 J. B. Foresman, and D. J. Fox, Gaussian, Inc., Wallingford CT, 2019.
 
 ******************************************
 Gaussian 16:  ES64L-G16RevC.01  3-Jul-2019
                12-Jul-2024 
 ******************************************
 %NProcShared=16
 Will use up to   16 processors via shared memory.
 %Mem=32GB
 %chk=12365813_18.chk
 ------------------------------------------------------
 #N OPT FREQ=NORAMAN Integral(Ultrafine) wB97XD def2SVP
 ------------------------------------------------------
 1/18=20,19=15,26=4,38=1/1,3;
 2/9=110,12=2,17=6,18=5,40=1/2;
 3/5=43,7=101,11=2,25=1,30=1,71=1,74=-58,75=-5/1,2,3;
 4//1;
 5/5=2,38=5/2;
 6/7=2,8=2,9=2,10=2,28=1/1;
 7//1,2,3,16;
 1/18=20,19=15,26=4/3(2);
 2/9=110/2;
 99//99;
 2/9=110/2;
 3/5=43,7=101,11=2,25=1,30=1,71=1,74=-58,75=-5/1,2,3;
 4/5=5,16=3,69=1/1;
 5/5=2,38=5/2;
 7//1,2,3,16;
 1/18=20,19=15,26=4/3(-5);
 2/9=110/2;
 6/7=2,8=2,9=2,10=2,19=2,28=1/1;
 99/9=1/99;
 -----------
 12365813_18
 -----------
 Symbolic Z-matrix:
 Charge =  0 Multiplicity = 1
 O                    -0.12961  -1.56913   0.87942 
 C                    -0.42541  -0.23754   0.53467 
 C                     0.41273   0.11289  -0.70261 
 C                     1.89645   0.13946  -0.43086 
 C                     2.6329   -1.04804  -0.3402 
 C                     3.99654  -1.01926  -0.05778 
 C                     4.64816   0.19825   0.14078 
 C                     3.92581   1.38663   0.05456 
 C                     2.56069   1.3541   -0.22906 
 C                    -1.90487  -0.04223   0.26347 
 C                    -2.68733  -1.07352  -0.25764 
 C                    -4.02987  -0.82927  -0.53095 
 C                    -4.54169   0.44209  -0.27205 
 N                    -3.80962   1.43376   0.23117 
 C                    -2.52867   1.1887    0.49001 
 H                    -0.52726  -1.76134   1.73351 
 H                    -0.12499   0.4529    1.34735 
 H                     0.08131   1.09382  -1.07462 
 H                     0.17228  -0.62544  -1.48504 
 H                     2.12243  -2.00225  -0.48305 
 H                     4.55618  -1.95525   0.00726 
 H                     5.71803   0.21995   0.35979 
 H                     4.42694   2.3456    0.20474 
 H                     2.00138   2.29154  -0.30034 
 H                    -2.23705  -2.05336  -0.43255 
 H                    -4.67415  -1.61065  -0.93838 
 H                    -5.59409   0.66669  -0.47723 
 H                    -1.94952   2.02093   0.91105 
 

 GradGradGradGradGradGradGradGradGradGradGradGradGradGradGradGradGradGrad
 Berny optimization.
 Initialization pass.
                           ----------------------------
                           !    Initial Parameters    !
                           ! (Angstroms and Degrees)  !
 --------------------------                            --------------------------
 ! Name  Definition              Value          Derivative Info.                !
 --------------------------------------------------------------------------------
 ! R1    R(1,2)                  1.4069         estimate D2E/DX2                !
 ! R2    R(1,16)                 0.9615         estimate D2E/DX2                !
 ! R3    R(2,3)                  1.535          estimate D2E/DX2                !
 ! R4    R(2,10)                 1.5167         estimate D2E/DX2                !
 ! R5    R(2,17)                 1.1079         estimate D2E/DX2                !
 ! R6    R(3,4)                  1.5086         estimate D2E/DX2                !
 ! R7    R(3,18)                 1.1002         estimate D2E/DX2                !
 ! R8    R(3,19)                 1.1023         estimate D2E/DX2                !
 ! R9    R(4,5)                  1.4003         estimate D2E/DX2                !
 ! R10   R(4,9)                  1.399          estimate D2E/DX2                !
 ! R11   R(5,6)                  1.3929         estimate D2E/DX2                !
 ! R12   R(5,20)                 1.0916         estimate D2E/DX2                !
 ! R13   R(6,7)                  1.3951         estimate D2E/DX2                !
 ! R14   R(6,21)                 1.0925         estimate D2E/DX2                !
 ! R15   R(7,8)                  1.3934         estimate D2E/DX2                !
 ! R16   R(7,22)                 1.0923         estimate D2E/DX2                !
 ! R17   R(8,9)                  1.3947         estimate D2E/DX2                !
 ! R18   R(8,23)                 1.0924         estimate D2E/DX2                !
 ! R19   R(9,24)                 1.0939         estimate D2E/DX2                !
 ! R20   R(10,11)                1.3955         estimate D2E/DX2                !
 ! R21   R(10,15)                1.3984         estimate D2E/DX2                !
 ! R22   R(11,12)                1.3917         estimate D2E/DX2                !
 ! R23   R(11,25)                1.0924         estimate D2E/DX2                !
 ! R24   R(12,13)                1.3948         estimate D2E/DX2                !
 ! R25   R(12,26)                1.0916         estimate D2E/DX2                !
 ! R26   R(13,14)                1.3314         estimate D2E/DX2                !
 ! R27   R(13,27)                1.0955         estimate D2E/DX2                !
 ! R28   R(14,15)                1.3296         estimate D2E/DX2                !
 ! R29   R(15,28)                1.0979         estimate D2E/DX2                !
 ! A1    A(2,1,16)             108.657          estimate D2E/DX2                !
 ! A2    A(1,2,3)              107.3846         estimate D2E/DX2                !
 ! A3    A(1,2,10)             111.7627         estimate D2E/DX2                !
 ! A4    A(1,2,17)             110.6755         estimate D2E/DX2                !
 ! A5    A(3,2,10)             111.0439         estimate D2E/DX2                !
 ! A6    A(3,2,17)             107.514          estimate D2E/DX2                !
 ! A7    A(10,2,17)            108.3856         estimate D2E/DX2                !
 ! A8    A(2,3,4)              113.3182         estimate D2E/DX2                !
 ! A9    A(2,3,18)             108.1566         estimate D2E/DX2                !
 ! A10   A(2,3,19)             107.4649         estimate D2E/DX2                !
 ! A11   A(4,3,18)             109.9661         estimate D2E/DX2                !
 ! A12   A(4,3,19)             110.743          estimate D2E/DX2                !
 ! A13   A(18,3,19)            106.9457         estimate D2E/DX2                !
 ! A14   A(3,4,5)              120.9292         estimate D2E/DX2                !
 ! A15   A(3,4,9)              120.5452         estimate D2E/DX2                !
 ! A16   A(5,4,9)              118.505          estimate D2E/DX2                !
 ! A17   A(4,5,6)              120.6973         estimate D2E/DX2                !
 ! A18   A(4,5,20)             119.1381         estimate D2E/DX2                !
 ! A19   A(6,5,20)             120.1611         estimate D2E/DX2                !
 ! A20   A(5,6,7)              120.2754         estimate D2E/DX2                !
 ! A21   A(5,6,21)             119.728          estimate D2E/DX2                !
 ! A22   A(7,6,21)             119.9966         estimate D2E/DX2                !
 ! A23   A(6,7,8)              119.5615         estimate D2E/DX2                !
 ! A24   A(6,7,22)             120.2229         estimate D2E/DX2                !
 ! A25   A(8,7,22)             120.2153         estimate D2E/DX2                !
 ! A26   A(7,8,9)              120.0089         estimate D2E/DX2                !
 ! A27   A(7,8,23)             120.1581         estimate D2E/DX2                !
 ! A28   A(9,8,23)             119.8326         estimate D2E/DX2                !
 ! A29   A(4,9,8)              120.9518         estimate D2E/DX2                !
 ! A30   A(4,9,24)             119.4621         estimate D2E/DX2                !
 ! A31   A(8,9,24)             119.5852         estimate D2E/DX2                !
 ! A32   A(2,10,11)            121.2341         estimate D2E/DX2                !
 ! A33   A(2,10,15)            121.2977         estimate D2E/DX2                !
 ! A34   A(11,10,15)           117.4438         estimate D2E/DX2                !
 ! A35   A(10,11,12)           118.9827         estimate D2E/DX2                !
 ! A36   A(10,11,25)           119.4409         estimate D2E/DX2                !
 ! A37   A(12,11,25)           121.5738         estimate D2E/DX2                !
 ! A38   A(11,12,13)           118.5241         estimate D2E/DX2                !
 ! A39   A(11,12,26)           121.1335         estimate D2E/DX2                !
 ! A40   A(13,12,26)           120.3424         estimate D2E/DX2                !
 ! A41   A(12,13,14)           123.1841         estimate D2E/DX2                !
 ! A42   A(12,13,27)           120.3078         estimate D2E/DX2                !
 ! A43   A(14,13,27)           116.5075         estimate D2E/DX2                !
 ! A44   A(13,14,15)           117.777          estimate D2E/DX2                !
 ! A45   A(10,15,14)           124.086          estimate D2E/DX2                !
 ! A46   A(10,15,28)           119.6078         estimate D2E/DX2                !
 ! A47   A(14,15,28)           116.3058         estimate D2E/DX2                !
 ! D1    D(16,1,2,3)           170.535          estimate D2E/DX2                !
 ! D2    D(16,1,2,10)          -67.4504         estimate D2E/DX2                !
 ! D3    D(16,1,2,17)           53.457          estimate D2E/DX2                !
 ! D4    D(1,2,3,4)            -66.2818         estimate D2E/DX2                !
 ! D5    D(1,2,3,18)           171.5316         estimate D2E/DX2                !
 ! D6    D(1,2,3,19)            56.3973         estimate D2E/DX2                !
 ! D7    D(10,2,3,4)           171.2568         estimate D2E/DX2                !
 ! D8    D(10,2,3,18)           49.0703         estimate D2E/DX2                !
 ! D9    D(10,2,3,19)          -66.064          estimate D2E/DX2                !
 ! D10   D(17,2,3,4)            52.846          estimate D2E/DX2                !
 ! D11   D(17,2,3,18)          -69.3406         estimate D2E/DX2                !
 ! D12   D(17,2,3,19)          175.5251         estimate D2E/DX2                !
 ! D13   D(1,2,10,11)          -30.7722         estimate D2E/DX2                !
 ! D14   D(1,2,10,15)          151.0713         estimate D2E/DX2                !
 ! D15   D(3,2,10,11)           89.1153         estimate D2E/DX2                !
 ! D16   D(3,2,10,15)          -89.0411         estimate D2E/DX2                !
 ! D17   D(17,2,10,11)        -153.0016         estimate D2E/DX2                !
 ! D18   D(17,2,10,15)          28.8419         estimate D2E/DX2                !
 ! D19   D(2,3,4,5)             78.127          estimate D2E/DX2                !
 ! D20   D(2,3,4,9)           -100.1972         estimate D2E/DX2                !
 ! D21   D(18,3,4,5)          -160.6996         estimate D2E/DX2                !
 ! D22   D(18,3,4,9)            20.9762         estimate D2E/DX2                !
 ! D23   D(19,3,4,5)           -42.7179         estimate D2E/DX2                !
 ! D24   D(19,3,4,9)           138.9579         estimate D2E/DX2                !
 ! D25   D(3,4,5,6)           -178.4712         estimate D2E/DX2                !
 ! D26   D(3,4,5,20)             0.8594         estimate D2E/DX2                !
 ! D27   D(9,4,5,6)             -0.1136         estimate D2E/DX2                !
 ! D28   D(9,4,5,20)           179.2171         estimate D2E/DX2                !
 ! D29   D(3,4,9,8)            178.4453         estimate D2E/DX2                !
 ! D30   D(3,4,9,24)            -1.8884         estimate D2E/DX2                !
 ! D31   D(5,4,9,8)              0.0811         estimate D2E/DX2                !
 ! D32   D(5,4,9,24)           179.7474         estimate D2E/DX2                !
 ! D33   D(4,5,6,7)              0.0792         estimate D2E/DX2                !
 ! D34   D(4,5,6,21)          -179.8744         estimate D2E/DX2                !
 ! D35   D(20,5,6,7)          -179.2445         estimate D2E/DX2                !
 ! D36   D(20,5,6,21)            0.8018         estimate D2E/DX2                !
 ! D37   D(5,6,7,8)             -0.0099         estimate D2E/DX2                !
 ! D38   D(5,6,7,22)          -179.8503         estimate D2E/DX2                !
 ! D39   D(21,6,7,8)           179.9436         estimate D2E/DX2                !
 ! D40   D(21,6,7,22)            0.1032         estimate D2E/DX2                !
 ! D41   D(6,7,8,9)             -0.0225         estimate D2E/DX2                !
 ! D42   D(6,7,8,23)          -179.7794         estimate D2E/DX2                !
 ! D43   D(22,7,8,9)           179.8179         estimate D2E/DX2                !
 ! D44   D(22,7,8,23)            0.061          estimate D2E/DX2                !
 ! D45   D(7,8,9,4)             -0.0139         estimate D2E/DX2                !
 ! D46   D(7,8,9,24)          -179.6798         estimate D2E/DX2                !
 ! D47   D(23,8,9,4)           179.7438         estimate D2E/DX2                !
 ! D48   D(23,8,9,24)            0.0779         estimate D2E/DX2                !
 ! D49   D(2,10,11,12)        -177.838          estimate D2E/DX2                !
 ! D50   D(2,10,11,25)           2.734          estimate D2E/DX2                !
 ! D51   D(15,10,11,12)          0.387          estimate D2E/DX2                !
 ! D52   D(15,10,11,25)       -179.041          estimate D2E/DX2                !
 ! D53   D(2,10,15,14)         177.7275         estimate D2E/DX2                !
 ! D54   D(2,10,15,28)          -2.5438         estimate D2E/DX2                !
 ! D55   D(11,10,15,14)         -0.4963         estimate D2E/DX2                !
 ! D56   D(11,10,15,28)        179.2323         estimate D2E/DX2                !
 ! D57   D(10,11,12,13)          0.0062         estimate D2E/DX2                !
 ! D58   D(10,11,12,26)       -179.957          estimate D2E/DX2                !
 ! D59   D(25,11,12,13)        179.4215         estimate D2E/DX2                !
 ! D60   D(25,11,12,26)         -0.5417         estimate D2E/DX2                !
 ! D61   D(11,12,13,14)         -0.3599         estimate D2E/DX2                !
 ! D62   D(11,12,13,27)        179.9355         estimate D2E/DX2                !
 ! D63   D(26,12,13,14)        179.6037         estimate D2E/DX2                !
 ! D64   D(26,12,13,27)         -0.1009         estimate D2E/DX2                !
 ! D65   D(12,13,14,15)          0.2756         estimate D2E/DX2                !
 ! D66   D(27,13,14,15)        179.9906         estimate D2E/DX2                !
 ! D67   D(13,14,15,10)          0.1657         estimate D2E/DX2                !
 ! D68   D(13,14,15,28)       -179.5711         estimate D2E/DX2                !
 --------------------------------------------------------------------------------
 Trust Radius=3.00D-01 FncErr=1.00D-07 GrdErr=1.00D-06 EigMax=2.50D+02 EigMin=1.00D-04
 Number of steps in this run=    154 maximum allowed number of steps=    168.
 GradGradGradGradGradGradGradGradGradGradGradGradGradGradGradGradGradGrad

                          Input orientation:                          
 ---------------------------------------------------------------------
 Center     Atomic      Atomic             Coordinates (Angstroms)
 Number     Number       Type             X           Y           Z
 ---------------------------------------------------------------------
      1          8           0       -0.129610   -1.569130    0.879420
      2          6           0       -0.425410   -0.237540    0.534670
      3          6           0        0.412730    0.112890   -0.702610
      4          6           0        1.896450    0.139460   -0.430860
      5          6           0        2.632900   -1.048040   -0.340200
      6          6           0        3.996540   -1.019260   -0.057780
      7          6           0        4.648160    0.198250    0.140780
      8          6           0        3.925810    1.386630    0.054560
      9          6           0        2.560690    1.354100   -0.229060
     10          6           0       -1.904870   -0.042230    0.263470
     11          6           0       -2.687330   -1.073520   -0.257640
     12          6           0       -4.029870   -0.829270   -0.530950
     13          6           0       -4.541690    0.442090   -0.272050
     14          7           0       -3.809620    1.433760    0.231170
     15          6           0       -2.528670    1.188700    0.490010
     16          1           0       -0.527260   -1.761340    1.733510
     17          1           0       -0.124990    0.452900    1.347350
     18          1           0        0.081310    1.093820   -1.074620
     19          1           0        0.172280   -0.625440   -1.485040
     20          1           0        2.122430   -2.002250   -0.483050
     21          1           0        4.556180   -1.955250    0.007260
     22          1           0        5.718030    0.219950    0.359790
     23          1           0        4.426940    2.345600    0.204740
     24          1           0        2.001380    2.291540   -0.300340
     25          1           0       -2.237050   -2.053360   -0.432550
     26          1           0       -4.674150   -1.610650   -0.938380
     27          1           0       -5.594090    0.666690   -0.477230
     28          1           0       -1.949520    2.020930    0.911050
 ---------------------------------------------------------------------
                    Distance matrix (angstroms):
                    1          2          3          4          5
     1  O    0.000000
     2  C    1.406941   0.000000
     3  C    2.371949   1.534973   0.000000
     4  C    2.956524   2.542717   1.508635   0.000000
     5  C    3.064387   3.282616   2.531453   1.400262   0.000000
     6  C    4.266827   4.529429   3.813301   2.427385   1.392876
     7  C    5.147456   5.107463   4.319428   2.811074   2.417820
     8  C    5.085601   4.669213   3.812801   2.430919   2.784793
     9  C    4.124526   3.468918   2.525586   1.399031   2.405794
    10  C    2.421232   1.516739   2.515679   3.868480   4.686942
    11  C    2.842616   2.538287   3.349021   4.744720   5.320932
    12  C    4.212905   3.804973   4.544648   6.005808   6.669089
    13  C    4.983707   4.249289   4.983978   6.447205   7.328020
    14  N    4.793751   3.786586   4.521602   5.888356   6.927616
    15  C    3.675970   2.541625   3.351350   4.640107   5.686305
    16  H    0.961530   1.941535   3.214187   3.764560   3.846515
    17  H    2.075472   1.107885   2.146412   2.710442   3.564632
    18  H    3.309692   2.149209   1.100206   2.149410   3.411385
    19  H    2.563661   2.141712   1.102336   2.160817   2.746616
    20  H    2.667508   3.262123   2.728571   2.154231   1.091560
    21  H    4.781880   5.295746   4.685008   3.413784   2.154707
    22  H    6.137240   6.162932   5.411688   3.903342   3.408198
    23  H    6.045035   5.506974   4.682111   3.416785   3.877155
    24  H    4.564836   3.603165   2.726196   2.158586   3.399000
    25  H    2.529238   2.741306   3.433206   4.679133   4.973491
    26  H    4.894790   4.701819   5.376107   6.818596   7.353049
    27  H    6.058047   5.343859   6.036504   7.509215   8.404906
    28  H    4.025122   2.750502   3.438712   4.486885   5.655332
                    6          7          8          9         10
     6  C    0.000000
     7  C    1.395122   0.000000
     8  C    2.409550   1.393367   0.000000
     9  C    2.779180   2.414602   1.394651   0.000000
    10  C    5.990361   6.558589   6.006839   4.704631   0.000000
    11  C    6.687078   7.455572   7.062820   5.782376   1.395478
    12  C    8.042589   8.764429   8.279244   6.949369   2.401283
    13  C    8.665035   9.202349   8.526276   7.160825   2.733892
    14  N    8.187609   8.548023   7.737589   6.387410   2.409909
    15  C    6.910393   7.253264   6.472179   5.142568   1.398440
    16  H    4.921805   5.758624   5.705999   4.805526   2.648427
    17  H    4.596592   4.929870   4.353405   3.241930   2.141944
    18  H    4.563781   4.809923   4.017582   2.632497   2.650661
    19  H    4.100869   4.832728   4.528552   3.346725   2.777044
    20  H    2.158567   3.407444   3.876301   3.394358   4.540718
    21  H    1.092476   2.159595   3.401142   3.871644   6.743178
    22  H    2.161836   1.092272   2.160176   3.406147   7.628015
    23  H    3.402417   2.159662   1.092387   2.157346   6.767348
    24  H    3.873099   3.403218   2.155979   1.093939   4.585101
    25  H    6.329886   7.266675   7.074719   5.888166   2.153934
    26  H    8.735334   9.557310   9.161273   7.850846   3.401955
    27  H    9.746720  10.271565   9.561883   8.187463   3.829040
    28  H    6.748112   6.888023   5.971215   4.699628   2.162864
                   11         12         13         14         15
    11  C    0.000000
    12  C    1.391679   0.000000
    13  C    2.394981   1.394756   0.000000
    14  N    2.790147   2.398050   1.331378   0.000000
    15  C    2.387843   2.714436   2.278247   1.329619   0.000000
    16  H    3.017230   4.273735   4.999302   4.820744   3.775536
    17  H    3.386966   4.518856   4.704233   3.972964   2.655958
    18  H    3.609735   4.571176   4.737193   4.118250   3.044514
    19  H    3.143987   4.313919   4.983220   4.800126   3.806187
    20  H    4.903788   6.263304   7.101395   6.892423   5.723787
    21  H    7.301785   8.676275   9.412571   9.028961   7.766117
    22  H    8.526685   9.844584  10.281557   9.605519   8.304426
    23  H    7.906770   9.063039   9.180795   8.286922   7.056933
    24  H    5.771434   6.794749   6.799488   5.897967   4.728875
    25  H    1.092443   2.173081   3.400646   3.882461   3.383358
    26  H    2.167803   1.091628   2.162240   3.373973   3.805226
    27  H    3.394967   2.165079   1.095486   2.067501   3.256508
    28  H    3.389074   3.811937   3.257577   2.065666   1.097860
                   16         17         18         19         20
    16  H    0.000000
    17  H    2.283375   0.000000
    18  H    4.050665   2.513817   0.000000
    19  H    3.484062   3.045262   1.769908   0.000000
    20  H    3.462951   3.798555   3.755233   2.588952   0.000000
    21  H    5.372048   5.432162   5.521934   4.818084   2.483093
    22  H    6.694495   5.930466   5.881649   5.905373   4.310092
    23  H    6.614242   5.060429   4.699810   5.457524   4.968664
    24  H    5.191956   3.258363   2.391801   3.641139   4.299380
    25  H    2.774973   3.729635   3.961286   2.991916   4.360072
    26  H    4.935423   5.493419   5.472396   4.975677   6.823062
    27  H    6.037836   5.769389   5.722716   5.994690   8.165045
    28  H    4.123691   2.444992   2.987756   4.152897   5.891542
                   21         22         23         24         25
    21  H    0.000000
    22  H    2.491118   0.000000
    23  H    4.307321   2.491855   0.000000
    24  H    4.965566   4.305896   2.478179   0.000000
    25  H    6.808159   8.311380   8.010353   6.071237   0.000000
    26  H    9.285040  10.631733   9.989418   7.758665   2.528105
    27  H   10.494631  11.351839  10.183559   7.769337   4.320924
    28  H    7.677954   7.895489   6.423669   4.141293   4.299741
                   26         27         28
    26  H    0.000000
    27  H    2.499045   0.000000
    28  H    4.902282   4.128459   0.000000
 Stoichiometry    C13H13NO
 Framework group  C1[X(C13H13NO)]
 Deg. of freedom    78
 Full point group                 C1      NOp   1
 Largest Abelian subgroup         C1      NOp   1
 Largest concise Abelian subgroup C1      NOp   1
                         Standard orientation:                         
 ---------------------------------------------------------------------
 Center     Atomic      Atomic             Coordinates (Angstroms)
 Number     Number       Type             X           Y           Z
 ---------------------------------------------------------------------
      1          8           0       -0.129609   -1.569130    0.879419
      2          6           0       -0.425409   -0.237540    0.534669
      3          6           0        0.412731    0.112890   -0.702611
      4          6           0        1.896451    0.139461   -0.430861
      5          6           0        2.632901   -1.048039   -0.340201
      6          6           0        3.996541   -1.019259   -0.057781
      7          6           0        4.648161    0.198251    0.140779
      8          6           0        3.925811    1.386631    0.054559
      9          6           0        2.560691    1.354101   -0.229061
     10          6           0       -1.904869   -0.042230    0.263469
     11          6           0       -2.687329   -1.073520   -0.257641
     12          6           0       -4.029869   -0.829271   -0.530951
     13          6           0       -4.541689    0.442089   -0.272051
     14          7           0       -3.809619    1.433760    0.231169
     15          6           0       -2.528669    1.188700    0.490009
     16          1           0       -0.527259   -1.761340    1.733509
     17          1           0       -0.124989    0.452900    1.347349
     18          1           0        0.081311    1.093820   -1.074621
     19          1           0        0.172281   -0.625440   -1.485041
     20          1           0        2.122431   -2.002249   -0.483051
     21          1           0        4.556181   -1.955249    0.007259
     22          1           0        5.718031    0.219951    0.359789
     23          1           0        4.426940    2.345601    0.204739
     24          1           0        2.001380    2.291541   -0.300341
     25          1           0       -2.237049   -2.053360   -0.432551
     26          1           0       -4.674149   -1.610651   -0.938381
     27          1           0       -5.594089    0.666689   -0.477231
     28          1           0       -1.949520    2.020930    0.911049
 ---------------------------------------------------------------------
 Rotational constants (GHZ):           1.9172089           0.2674590           0.2453470
 Standard basis: def2SVP (5D, 7F)
 There are   290 symmetry adapted cartesian basis functions of A   symmetry.
 There are   275 symmetry adapted basis functions of A   symmetry.
   275 basis functions,   466 primitive gaussians,   290 cartesian basis functions
    53 alpha electrons       53 beta electrons
       nuclear repulsion energy       894.8636977495 Hartrees.
 NAtoms=   28 NActive=   28 NUniq=   28 SFac= 1.00D+00 NAtFMM=   60 NAOKFM=F Big=F
 Integral buffers will be    131072 words long.
 Raffenetti 2 integral format.
 Two-electron integral symmetry is turned on.
 Nuclear repulsion after empirical dispersion term =      894.8461114037 Hartrees.
 One-electron integrals computed using PRISM.
   1 Symmetry operations used in ECPInt.
 ECPInt:  NShTT=    8385 NPrTT=   30369 LenC2=    7734 LenP2D=   20472.
 LDataN:  DoStor=T MaxTD1= 4 Len=   56
 NBasis=   275 RedAO= T EigKep=  2.88D-04  NBF=   275
 NBsUse=   275 1.00D-06 EigRej= -1.00D+00 NBFU=   275
 ExpMin= 1.22D-01 ExpMax= 2.27D+03 ExpMxC= 3.41D+02 IAcc=3 IRadAn=         5 AccDes= 0.00D+00
 Harris functional with IExCor= 4639 and IRadAn=       5 diagonalized for initial guess.
 HarFok:  IExCor= 4639 AccDes= 0.00D+00 IRadAn=         5 IDoV= 1 UseB2=F ITyADJ=14
 ICtDFT=  3500011 ScaDFX=  1.000000  1.000000  1.000000  1.000000
 FoFCou: FMM=F IPFlag=           0 FMFlag=      100000 FMFlg1=           0
         NFxFlg=           0 DoJE=T BraDBF=F KetDBF=T FulRan=T
         wScrn=  0.000000 ICntrl=       500 IOpCl=  0 I1Cent=   200000004 NGrid=           0
         NMat0=    1 NMatS0=      1 NMatT0=    0 NMatD0=    1 NMtDS0=    0 NMtDT0=    0
 Petite list used in FoFCou.
 Requested convergence on RMS density matrix=1.00D-08 within 128 cycles.
 Requested convergence on MAX density matrix=1.00D-06.
 Requested convergence on             energy=1.00D-06.
 No special actions if energy rises.
 Integral accuracy reduced to 1.0D-05 until final iterations.
 Initial convergence to 1.0D-05 achieved.  Increase integral accuracy.
 SCF Done:  E(RwB97XD) =  -632.519337264     A.U. after   15 cycles
            NFock= 15  Conv=0.38D-08     -V/T= 2.0107

 **********************************************************************

            Population analysis using the SCF Density.

 **********************************************************************

 Orbital symmetries:
       Occupied  (A) (A) (A) (A) (A) (A) (A) (A) (A) (A) (A) (A)
                 (A) (A) (A) (A) (A) (A) (A) (A) (A) (A) (A) (A)
                 (A) (A) (A) (A) (A) (A) (A) (A) (A) (A) (A) (A)
                 (A) (A) (A) (A) (A) (A) (A) (A) (A) (A) (A) (A)
                 (A) (A) (A) (A) (A)
       Virtual   (A) (A) (A) (A) (A) (A) (A) (A) (A) (A) (A) (A)
                 (A) (A) (A) (A) (A) (A) (A) (A) (A) (A) (A) (A)
                 (A) (A) (A) (A) (A) (A) (A) (A) (A) (A) (A) (A)
                 (A) (A) (A) (A) (A) (A) (A) (A) (A) (A) (A) (A)
                 (A) (A) (A) (A) (A) (A) (A) (A) (A) (A) (A) (A)
                 (A) (A) (A) (A) (A) (A) (A) (A) (A) (A) (A) (A)
                 (A) (A) (A) (A) (A) (A) (A) (A) (A) (A) (A) (A)
                 (A) (A) (A) (A) (A) (A) (A) (A) (A) (A) (A) (A)
                 (A) (A) (A) (A) (A) (A) (A) (A) (A) (A) (A) (A)
                 (A) (A) (A) (A) (A) (A) (A) (A) (A) (A) (A) (A)
                 (A) (A) (A) (A) (A) (A) (A) (A) (A) (A) (A) (A)
                 (A) (A) (A) (A) (A) (A) (A) (A) (A) (A) (A) (A)
                 (A) (A) (A) (A) (A) (A) (A) (A) (A) (A) (A) (A)
                 (A) (A) (A) (A) (A) (A) (A) (A) (A) (A) (A) (A)
                 (A) (A) (A) (A) (A) (A) (A) (A) (A) (A) (A) (A)
                 (A) (A) (A) (A) (A) (A) (A) (A) (A) (A) (A) (A)
                 (A) (A) (A) (A) (A) (A) (A) (A) (A) (A) (A) (A)
                 (A) (A) (A) (A) (A) (A) (A) (A) (A) (A) (A) (A)
                 (A) (A) (A) (A) (A) (A)
 The electronic state is 1-A.
 Alpha  occ. eigenvalues --  -19.26863 -14.44251 -10.36396 -10.33854 -10.33703
 Alpha  occ. eigenvalues --  -10.32250 -10.31622 -10.31494 -10.30628 -10.30612
 Alpha  occ. eigenvalues --  -10.30040 -10.29978 -10.29929 -10.29890 -10.29584
 Alpha  occ. eigenvalues --   -1.13110  -1.04289  -0.95208  -0.91319  -0.88389
 Alpha  occ. eigenvalues --   -0.86100  -0.83429  -0.80883  -0.74264  -0.72614
 Alpha  occ. eigenvalues --   -0.69664  -0.69143  -0.66606  -0.62893  -0.61558
 Alpha  occ. eigenvalues --   -0.60113  -0.57950  -0.55869  -0.54438  -0.53808
 Alpha  occ. eigenvalues --   -0.52568  -0.51858  -0.50241  -0.49497  -0.48865
 Alpha  occ. eigenvalues --   -0.48479  -0.46611  -0.45582  -0.45198  -0.43128
 Alpha  occ. eigenvalues --   -0.42113  -0.41685  -0.38179  -0.36862  -0.34163
 Alpha  occ. eigenvalues --   -0.33777  -0.32815  -0.31914
 Alpha virt. eigenvalues --    0.03713   0.04441   0.06365   0.06572   0.13020
 Alpha virt. eigenvalues --    0.14698   0.15293   0.15934   0.17229   0.18633
 Alpha virt. eigenvalues --    0.20124   0.20715   0.20967   0.21739   0.22738
 Alpha virt. eigenvalues --    0.23546   0.23757   0.24553   0.24729   0.26874
 Alpha virt. eigenvalues --    0.29582   0.31459   0.31873   0.33144   0.36452
 Alpha virt. eigenvalues --    0.36550   0.37417   0.39170   0.39829   0.40062
 Alpha virt. eigenvalues --    0.41763   0.43808   0.44312   0.46592   0.48561
 Alpha virt. eigenvalues --    0.49099   0.49754   0.50141   0.51045   0.52868
 Alpha virt. eigenvalues --    0.53684   0.55504   0.55903   0.56209   0.56960
 Alpha virt. eigenvalues --    0.57388   0.58321   0.58891   0.60816   0.61423
 Alpha virt. eigenvalues --    0.61802   0.63583   0.64124   0.65453   0.65852
 Alpha virt. eigenvalues --    0.68361   0.68784   0.69625   0.70207   0.71433
 Alpha virt. eigenvalues --    0.71988   0.72311   0.72881   0.73675   0.75274
 Alpha virt. eigenvalues --    0.75578   0.75990   0.76415   0.77074   0.77688
 Alpha virt. eigenvalues --    0.78716   0.79500   0.80175   0.80728   0.81534
 Alpha virt. eigenvalues --    0.81885   0.83233   0.83411   0.84241   0.85222
 Alpha virt. eigenvalues --    0.86322   0.87159   0.89784   0.90619   0.91998
 Alpha virt. eigenvalues --    0.96002   0.96584   0.98957   1.00483   1.01262
 Alpha virt. eigenvalues --    1.02525   1.05547   1.10470   1.12563   1.14673
 Alpha virt. eigenvalues --    1.16764   1.18982   1.23276   1.24638   1.27385
 Alpha virt. eigenvalues --    1.28449   1.28628   1.30604   1.31747   1.32913
 Alpha virt. eigenvalues --    1.33357   1.34530   1.34860   1.37682   1.38194
 Alpha virt. eigenvalues --    1.39368   1.39776   1.40954   1.41672   1.43008
 Alpha virt. eigenvalues --    1.46767   1.51512   1.52587   1.56229   1.59746
 Alpha virt. eigenvalues --    1.60737   1.63934   1.67963   1.73587   1.74261
 Alpha virt. eigenvalues --    1.76051   1.76764   1.78737   1.79111   1.80276
 Alpha virt. eigenvalues --    1.81342   1.81997   1.82680   1.83894   1.84181
 Alpha virt. eigenvalues --    1.84500   1.85484   1.86152   1.87302   1.87767
 Alpha virt. eigenvalues --    1.87830   1.89189   1.89682   1.91692   1.93806
 Alpha virt. eigenvalues --    1.95525   1.96199   1.96455   1.99896   2.01576
 Alpha virt. eigenvalues --    2.02459   2.03410   2.03802   2.05217   2.06617
 Alpha virt. eigenvalues --    2.07110   2.07991   2.08148   2.10109   2.12305
 Alpha virt. eigenvalues --    2.16562   2.17676   2.19299   2.21356   2.21953
 Alpha virt. eigenvalues --    2.22627   2.23620   2.25075   2.28632   2.29742
 Alpha virt. eigenvalues --    2.30790   2.32782   2.35611   2.37178   2.38471
 Alpha virt. eigenvalues --    2.38743   2.39951   2.41406   2.43602   2.44420
 Alpha virt. eigenvalues --    2.47354   2.48808   2.51107   2.51716   2.55629
 Alpha virt. eigenvalues --    2.57144   2.60121   2.63302   2.67131   2.68893
 Alpha virt. eigenvalues --    2.70159   2.70651   2.72020   2.73959   2.79265
 Alpha virt. eigenvalues --    2.79367   2.80890   2.81981   2.83970   2.88600
 Alpha virt. eigenvalues --    2.91402   2.94693   2.95504   2.97667   2.98445
 Alpha virt. eigenvalues --    2.99533   3.03476   3.06113   3.06472   3.08332
 Alpha virt. eigenvalues --    3.12606   3.17047   3.20210   3.22596   3.22887
 Alpha virt. eigenvalues --    3.23726   3.34483   3.40626   3.49457   3.71570
 Alpha virt. eigenvalues --    3.72739   3.86037
          Condensed to atoms (all electrons):
               1          2          3          4          5          6
     1  O    7.768003   0.327011  -0.069586  -0.012117   0.014377  -0.000501
     2  C    0.327011   4.704935   0.364590  -0.052090  -0.006903   0.000116
     3  C   -0.069586   0.364590   4.778173   0.385378  -0.082826   0.010185
     4  C   -0.012117  -0.052090   0.385378   5.214998   0.318249   0.066926
     5  C    0.014377  -0.006903  -0.082826   0.318249   5.046559   0.339401
     6  C   -0.000501   0.000116   0.010185   0.066926   0.339401   5.008277
     7  C    0.000032   0.000085  -0.000287  -0.135198   0.061789   0.321160
     8  C   -0.000007  -0.000127   0.010489   0.062468  -0.111739   0.057965
     9  C    0.000316  -0.005352  -0.080932   0.344850   0.030971  -0.117120
    10  C   -0.060349   0.286082  -0.068939   0.010258   0.000840  -0.000004
    11  C    0.002324  -0.064252  -0.015474  -0.000433   0.000041   0.000001
    12  C    0.001435   0.009304  -0.000132   0.000004   0.000000   0.000000
    13  C   -0.000049   0.000632   0.000021   0.000000   0.000000  -0.000000
    14  N   -0.000025   0.005255  -0.000140   0.000004  -0.000000   0.000000
    15  C    0.003843  -0.048188  -0.002366   0.000044  -0.000023  -0.000000
    16  H    0.326129  -0.033243   0.010058   0.000865  -0.000659  -0.000015
    17  H   -0.027781   0.386337  -0.021390  -0.006175  -0.001269   0.000090
    18  H    0.004037  -0.016234   0.366399  -0.021921   0.010204  -0.000410
    19  H   -0.001928  -0.007385   0.354977  -0.010409  -0.010957   0.000635
    20  H    0.010152  -0.001222  -0.014529  -0.062677   0.444579  -0.060825
    21  H   -0.000023  -0.000003  -0.000248   0.014272  -0.063803   0.445325
    22  H    0.000000   0.000001   0.000022  -0.001411   0.012325  -0.062984
    23  H    0.000000  -0.000002  -0.000270   0.014252  -0.001697   0.012606
    24  H    0.000006  -0.000186  -0.014470  -0.067452   0.012687  -0.001525
    25  H    0.020726  -0.018085  -0.000806  -0.000318   0.000003   0.000002
    26  H   -0.000011  -0.000141   0.000005  -0.000000  -0.000000  -0.000000
    27  H   -0.000000   0.000068  -0.000000   0.000000  -0.000000   0.000000
    28  H    0.000023  -0.004397  -0.000202  -0.000097   0.000004  -0.000000
               7          8          9         10         11         12
     1  O    0.000032  -0.000007   0.000316  -0.060349   0.002324   0.001435
     2  C    0.000085  -0.000127  -0.005352   0.286082  -0.064252   0.009304
     3  C   -0.000287   0.010489  -0.080932  -0.068939  -0.015474  -0.000132
     4  C   -0.135198   0.062468   0.344850   0.010258  -0.000433   0.000004
     5  C    0.061789  -0.111739   0.030971   0.000840   0.000041   0.000000
     6  C    0.321160   0.057965  -0.117120  -0.000004   0.000001   0.000000
     7  C    5.047337   0.331059   0.059160   0.000001   0.000000  -0.000000
     8  C    0.331059   4.988370   0.345604   0.000015  -0.000001   0.000000
     9  C    0.059160   0.345604   5.059373  -0.000080   0.000006  -0.000001
    10  C    0.000001   0.000015  -0.000080   5.476519   0.384821  -0.001627
    11  C    0.000000  -0.000001   0.000006   0.384821   4.946221   0.407369
    12  C   -0.000000   0.000000  -0.000001  -0.001627   0.407369   4.975154
    13  C    0.000000  -0.000000   0.000000  -0.069297  -0.002247   0.435459
    14  N    0.000000  -0.000000   0.000000  -0.037254  -0.045913  -0.039984
    15  C   -0.000000   0.000001  -0.000011   0.419608  -0.046482  -0.053584
    16  H    0.000000  -0.000003   0.000013   0.008287  -0.002161  -0.000227
    17  H   -0.000056  -0.000525   0.003630  -0.067306   0.013284  -0.000198
    18  H    0.000003   0.000977  -0.011329   0.001409  -0.000974   0.000118
    19  H    0.000029  -0.000557   0.006421  -0.015564   0.007557  -0.000393
    20  H    0.012671  -0.001697   0.012962  -0.000253   0.000071   0.000001
    21  H   -0.067670   0.012760  -0.001670  -0.000001  -0.000000  -0.000000
    22  H    0.443273  -0.063180   0.012512   0.000000  -0.000000   0.000000
    23  H   -0.066721   0.444137  -0.063063  -0.000000   0.000000  -0.000000
    24  H    0.012661  -0.059059   0.442648  -0.000121   0.000004  -0.000000
    25  H   -0.000000  -0.000000  -0.000002  -0.065960   0.440253  -0.049089
    26  H    0.000000   0.000000  -0.000000   0.012305  -0.057172   0.423517
    27  H   -0.000000  -0.000000  -0.000000   0.001147   0.006217  -0.066214
    28  H    0.000000  -0.000000  -0.000028  -0.078819   0.006134   0.000874
              13         14         15         16         17         18
     1  O   -0.000049  -0.000025   0.003843   0.326129  -0.027781   0.004037
     2  C    0.000632   0.005255  -0.048188  -0.033243   0.386337  -0.016234
     3  C    0.000021  -0.000140  -0.002366   0.010058  -0.021390   0.366399
     4  C    0.000000   0.000004   0.000044   0.000865  -0.006175  -0.021921
     5  C    0.000000  -0.000000  -0.000023  -0.000659  -0.001269   0.010204
     6  C   -0.000000   0.000000  -0.000000  -0.000015   0.000090  -0.000410
     7  C    0.000000   0.000000  -0.000000   0.000000  -0.000056   0.000003
     8  C   -0.000000  -0.000000   0.000001  -0.000003  -0.000525   0.000977
     9  C    0.000000   0.000000  -0.000011   0.000013   0.003630  -0.011329
    10  C   -0.069297  -0.037254   0.419608   0.008287  -0.067306   0.001409
    11  C   -0.002247  -0.045913  -0.046482  -0.002161   0.013284  -0.000974
    12  C    0.435459  -0.039984  -0.053584  -0.000227  -0.000198   0.000118
    13  C    4.759743   0.525522  -0.070146  -0.000030   0.000036  -0.000084
    14  N    0.525522   6.256021   0.543067  -0.000020   0.000205  -0.000133
    15  C   -0.070146   0.543067   4.787557   0.000831  -0.005202   0.002161
    16  H   -0.000030  -0.000020   0.000831   0.521750  -0.009932  -0.000453
    17  H    0.000036   0.000205  -0.005202  -0.009932   0.707898  -0.003778
    18  H   -0.000084  -0.000133   0.002161  -0.000453  -0.003778   0.661307
    19  H    0.000012  -0.000001  -0.000502  -0.000282   0.009512  -0.022877
    20  H    0.000000   0.000000  -0.000006  -0.000374   0.000531   0.000240
    21  H   -0.000000  -0.000000   0.000000   0.000002   0.000000   0.000007
    22  H   -0.000000   0.000000  -0.000000  -0.000000  -0.000001  -0.000001
    23  H    0.000000  -0.000000  -0.000000   0.000000   0.000007  -0.000007
    24  H    0.000000  -0.000000  -0.000025   0.000000   0.000712   0.005234
    25  H    0.008670  -0.000396   0.009847  -0.000547   0.001127   0.000065
    26  H   -0.045029   0.005498   0.000110   0.000008   0.000004   0.000001
    27  H    0.423445  -0.038393   0.004319  -0.000000  -0.000000  -0.000001
    28  H    0.004714  -0.034608   0.430339   0.000015   0.005993   0.001251
              19         20         21         22         23         24
     1  O   -0.001928   0.010152  -0.000023   0.000000   0.000000   0.000006
     2  C   -0.007385  -0.001222  -0.000003   0.000001  -0.000002  -0.000186
     3  C    0.354977  -0.014529  -0.000248   0.000022  -0.000270  -0.014470
     4  C   -0.010409  -0.062677   0.014272  -0.001411   0.014252  -0.067452
     5  C   -0.010957   0.444579  -0.063803   0.012325  -0.001697   0.012687
     6  C    0.000635  -0.060825   0.445325  -0.062984   0.012606  -0.001525
     7  C    0.000029   0.012671  -0.067670   0.443273  -0.066721   0.012661
     8  C   -0.000557  -0.001697   0.012760  -0.063180   0.444137  -0.059059
     9  C    0.006421   0.012962  -0.001670   0.012512  -0.063063   0.442648
    10  C   -0.015564  -0.000253  -0.000001   0.000000  -0.000000  -0.000121
    11  C    0.007557   0.000071  -0.000000  -0.000000   0.000000   0.000004
    12  C   -0.000393   0.000001  -0.000000   0.000000  -0.000000  -0.000000
    13  C    0.000012   0.000000  -0.000000  -0.000000   0.000000   0.000000
    14  N   -0.000001   0.000000  -0.000000   0.000000  -0.000000  -0.000000
    15  C   -0.000502  -0.000006   0.000000  -0.000000  -0.000000  -0.000025
    16  H   -0.000282  -0.000374   0.000002  -0.000000   0.000000   0.000000
    17  H    0.009512   0.000531   0.000000  -0.000001   0.000007   0.000712
    18  H   -0.022877   0.000240   0.000007  -0.000001  -0.000007   0.005234
    19  H    0.653734   0.004113  -0.000001  -0.000001   0.000007   0.000268
    20  H    0.004113   0.653955  -0.011444  -0.000204   0.000021  -0.000210
    21  H   -0.000001  -0.011444   0.665301  -0.011206  -0.000225   0.000027
    22  H   -0.000001  -0.000204  -0.011206   0.662591  -0.011176  -0.000230
    23  H    0.000007   0.000021  -0.000225  -0.011176   0.665816  -0.011728
    24  H    0.000268  -0.000210   0.000027  -0.000230  -0.011728   0.676252
    25  H    0.001762   0.000059  -0.000000  -0.000000  -0.000000  -0.000000
    26  H   -0.000002  -0.000000   0.000000   0.000000  -0.000000   0.000000
    27  H   -0.000000   0.000000   0.000000   0.000000  -0.000000   0.000000
    28  H    0.000002   0.000000   0.000000  -0.000000  -0.000000   0.000053
              25         26         27         28
     1  O    0.020726  -0.000011  -0.000000   0.000023
     2  C   -0.018085  -0.000141   0.000068  -0.004397
     3  C   -0.000806   0.000005  -0.000000  -0.000202
     4  C   -0.000318  -0.000000   0.000000  -0.000097
     5  C    0.000003  -0.000000  -0.000000   0.000004
     6  C    0.000002  -0.000000   0.000000  -0.000000
     7  C   -0.000000   0.000000  -0.000000   0.000000
     8  C   -0.000000   0.000000  -0.000000  -0.000000
     9  C   -0.000002  -0.000000  -0.000000  -0.000028
    10  C   -0.065960   0.012305   0.001147  -0.078819
    11  C    0.440253  -0.057172   0.006217   0.006134
    12  C   -0.049089   0.423517  -0.066214   0.000874
    13  C    0.008670  -0.045029   0.423445   0.004714
    14  N   -0.000396   0.005498  -0.038393  -0.034608
    15  C    0.009847   0.000110   0.004319   0.430339
    16  H   -0.000547   0.000008  -0.000000   0.000015
    17  H    0.001127   0.000004  -0.000000   0.005993
    18  H    0.000065   0.000001  -0.000001   0.001251
    19  H    0.001762  -0.000002  -0.000000   0.000002
    20  H    0.000059  -0.000000   0.000000   0.000000
    21  H   -0.000000   0.000000   0.000000   0.000000
    22  H   -0.000000   0.000000   0.000000  -0.000000
    23  H   -0.000000  -0.000000  -0.000000  -0.000000
    24  H   -0.000000   0.000000   0.000000   0.000053
    25  H    0.631702  -0.009626  -0.000230  -0.000175
    26  H   -0.009626   0.645064  -0.006090   0.000062
    27  H   -0.000230  -0.006090   0.637769  -0.000266
    28  H   -0.000175   0.000062  -0.000266   0.644377
 Mulliken charges:
               1
     1  O   -0.306037
     2  C    0.173394
     3  C    0.092301
     4  C   -0.062269
     5  C   -0.012152
     6  C   -0.019306
     7  C   -0.019330
     8  C   -0.016953
     9  C   -0.038879
    10  C   -0.135719
    11  C    0.020804
    12  C   -0.041786
    13  C    0.028627
    14  N   -0.138705
    15  C    0.024810
    16  H    0.179986
    17  H    0.014246
    18  H    0.024788
    19  H    0.031830
    20  H    0.014085
    21  H    0.018600
    22  H    0.019670
    23  H    0.018042
    24  H    0.004456
    25  H    0.031019
    26  H    0.031496
    27  H    0.038228
    28  H    0.024753
 Sum of Mulliken charges =  -0.00000
 Mulliken charges with hydrogens summed into heavy atoms:
               1
     1  O   -0.126050
     2  C    0.187640
     3  C    0.148919
     4  C   -0.062269
     5  C    0.001933
     6  C   -0.000707
     7  C    0.000340
     8  C    0.001090
     9  C   -0.034423
    10  C   -0.135719
    11  C    0.051823
    12  C   -0.010290
    13  C    0.066856
    14  N   -0.138705
    15  C    0.049563
 Electronic spatial extent (au):  <R**2>=           4290.5695
 Charge=              0.0000 electrons
 Dipole moment (field-independent basis, Debye):
    X=              0.0226    Y=             -1.4439    Z=              0.5805  Tot=              1.5564
 Quadrupole moment (field-independent basis, Debye-Ang):
   XX=            -86.8932   YY=            -85.6976   ZZ=            -87.7011
   XY=              9.3498   XZ=              3.5029   YZ=             -0.5116
 Traceless Quadrupole moment (field-independent basis, Debye-Ang):
   XX=             -0.1293   YY=              1.0663   ZZ=             -0.9371
   XY=              9.3498   XZ=              3.5029   YZ=             -0.5116
 Octapole moment (field-independent basis, Debye-Ang**2):
  XXX=             12.0634  YYY=            -14.4377  ZZZ=             15.3855  XYY=             17.5319
  XXY=            -38.6855  XXZ=             -7.7972  XZZ=            -12.6171  YZZ=             -9.6490
  YYZ=              2.8400  XYZ=              2.6577
 Hexadecapole moment (field-independent basis, Debye-Ang**3):
 XXXX=          -4670.3964 YYYY=           -655.7593 ZZZZ=           -211.4093 XXXY=            133.2928
 XXXZ=            150.5153 YYYX=             51.8366 YYYZ=             -8.6684 ZZZX=             -4.9130
 ZZZY=            -21.3646 XXYY=           -956.8920 XXZZ=           -937.2803 YYZZ=           -140.0889
 XXYZ=              4.6813 YYXZ=              8.8394 ZZXY=              3.4778
 N-N= 8.948461114037D+02 E-N=-3.257079237753D+03  KE= 6.257933941055D+02
   1 Symmetry operations used in ECPInt.
 ECPInt:  NShTT=    8385 NPrTT=   30369 LenC2=    7734 LenP2D=   20472.
 LDataN:  DoStor=T MaxTD1= 5 Len=  102
 Calling FoFJK, ICntrl=      2127 FMM=F ISym2X=0 I1Cent= 0 IOpClX= 0 NMat=1 NMatS=1 NMatT=0.
 ***** Axes restored to original set *****
 -------------------------------------------------------------------
 Center     Atomic                   Forces (Hartrees/Bohr)
 Number     Number              X              Y              Z
 -------------------------------------------------------------------
      1        8          -0.000009520    0.000012595   -0.000005316
      2        6           0.000019872   -0.000010403    0.000011157
      3        6          -0.000011464   -0.000017869    0.000004106
      4        6           0.000011140    0.000005750    0.000005099
      5        6           0.000002974    0.000003766   -0.000002232
      6        6          -0.000000702   -0.000011787    0.000000487
      7        6          -0.000002634    0.000008007   -0.000000454
      8        6           0.000000962   -0.000009113   -0.000000264
      9        6          -0.000003631    0.000011890   -0.000000118
     10        6          -0.000015936    0.000007912   -0.000006062
     11        6          -0.000008709    0.000000344   -0.000002708
     12        6           0.000011212   -0.000013389   -0.000003601
     13        6          -0.000006471    0.000003827    0.000002983
     14        7          -0.000006082   -0.000009469   -0.000007512
     15        6           0.000013729    0.000010267    0.000013155
     16        1           0.000007062    0.000007003   -0.000007394
     17        1          -0.000000947   -0.000002218   -0.000000842
     18        1          -0.000005179   -0.000003090    0.000001500
     19        1           0.000005466    0.000006724   -0.000001154
     20        1          -0.000001199   -0.000001709   -0.000000258
     21        1          -0.000002593    0.000006862   -0.000000335
     22        1           0.000000237    0.000000071    0.000000213
     23        1          -0.000000348    0.000002242    0.000001671
     24        1           0.000003672   -0.000008464    0.000001595
     25        1           0.000002206   -0.000001160   -0.000000699
     26        1          -0.000000473    0.000007997    0.000001790
     27        1           0.000002655    0.000000231   -0.000000145
     28        1          -0.000005298   -0.000006816   -0.000004662
 -------------------------------------------------------------------
 Cartesian Forces:  Max     0.000019872 RMS     0.000006995

 GradGradGradGradGradGradGradGradGradGradGradGradGradGradGradGradGradGrad
 Berny optimization.
 FormGI is forming the generalized inverse of G from B-inverse, IUseBI=4.
 Internal  Forces:  Max     0.000022754 RMS     0.000003981
 Search for a local minimum.
 Step number   1 out of a maximum of  154
 All quantities printed in internal units (Hartrees-Bohrs-Radians)
 Mixed Optimization -- En-DIIS/RFO-DIIS
 Second derivative matrix not updated -- first step.
 ITU=  0
     Eigenvalues ---    0.00303   0.00545   0.00652   0.01474   0.01509
     Eigenvalues ---    0.01600   0.02102   0.02128   0.02136   0.02146
     Eigenvalues ---    0.02153   0.02162   0.02167   0.02168   0.02169
     Eigenvalues ---    0.02172   0.02181   0.02203   0.02267   0.02311
     Eigenvalues ---    0.02508   0.04029   0.05150   0.05474   0.05545
     Eigenvalues ---    0.07672   0.09372   0.12895   0.15999   0.15999
     Eigenvalues ---    0.16000   0.16000   0.16000   0.16000   0.16000
     Eigenvalues ---    0.16000   0.16000   0.16000   0.17338   0.20115
     Eigenvalues ---    0.21972   0.22000   0.22000   0.22000   0.23200
     Eigenvalues ---    0.23440   0.23470   0.24987   0.24989   0.28969
     Eigenvalues ---    0.30683   0.31488   0.32825   0.33425   0.33659
     Eigenvalues ---    0.33920   0.34186   0.34361   0.34528   0.34532
     Eigenvalues ---    0.34538   0.34551   0.34625   0.34633   0.42042
     Eigenvalues ---    0.42067   0.42327   0.44423   0.44489   0.45870
     Eigenvalues ---    0.46154   0.46183   0.46581   0.46670   0.46726
     Eigenvalues ---    0.55146   0.57005   0.58479
 RFO step:  Lambda=-1.13990656D-08 EMin= 3.03323799D-03
 Linear search not attempted -- first point.
 Iteration  1 RMS(Cart)=  0.00014833 RMS(Int)=  0.00000000
 Iteration  2 RMS(Cart)=  0.00000001 RMS(Int)=  0.00000000
 Variable       Old X    -DE/DX   Delta X   Delta X   Delta X     New X
                                 (Linear)    (Quad)   (Total)
    R1        2.65873  -0.00002   0.00000  -0.00005  -0.00005   2.65868
    R2        1.81703  -0.00001   0.00000  -0.00002  -0.00002   1.81701
    R3        2.90068  -0.00001   0.00000  -0.00003  -0.00003   2.90065
    R4        2.86622   0.00001   0.00000   0.00005   0.00005   2.86627
    R5        2.09360  -0.00000   0.00000  -0.00001  -0.00001   2.09359
    R6        2.85091   0.00001   0.00000   0.00003   0.00003   2.85093
    R7        2.07909  -0.00000   0.00000  -0.00001  -0.00001   2.07908
    R8        2.08311  -0.00000   0.00000  -0.00001  -0.00001   2.08310
    R9        2.64611  -0.00000   0.00000  -0.00000  -0.00000   2.64611
   R10        2.64379  -0.00000   0.00000  -0.00000  -0.00000   2.64378
   R11        2.63215  -0.00000   0.00000  -0.00001  -0.00001   2.63215
   R12        2.06275   0.00000   0.00000   0.00001   0.00001   2.06276
   R13        2.63640   0.00000   0.00000   0.00001   0.00001   2.63640
   R14        2.06448  -0.00001   0.00000  -0.00002  -0.00002   2.06446
   R15        2.63308  -0.00000   0.00000  -0.00001  -0.00001   2.63307
   R16        2.06409   0.00000   0.00000   0.00000   0.00000   2.06410
   R17        2.63551  -0.00000   0.00000  -0.00000  -0.00000   2.63551
   R18        2.06431   0.00000   0.00000   0.00000   0.00000   2.06432
   R19        2.06724  -0.00001   0.00000  -0.00003  -0.00003   2.06722
   R20        2.63707   0.00000   0.00000   0.00001   0.00001   2.63708
   R21        2.64267  -0.00000   0.00000  -0.00000  -0.00000   2.64267
   R22        2.62989  -0.00001   0.00000  -0.00002  -0.00002   2.62988
   R23        2.06442   0.00000   0.00000   0.00000   0.00000   2.06442
   R24        2.63571   0.00000   0.00000   0.00000   0.00000   2.63571
   R25        2.06288  -0.00001   0.00000  -0.00002  -0.00002   2.06286
   R26        2.51594  -0.00000   0.00000  -0.00001  -0.00001   2.51593
   R27        2.07017  -0.00000   0.00000  -0.00001  -0.00001   2.07016
   R28        2.51261   0.00001   0.00000   0.00001   0.00001   2.51262
   R29        2.07465  -0.00001   0.00000  -0.00003  -0.00003   2.07463
    A1        1.89642  -0.00001   0.00000  -0.00005  -0.00005   1.89637
    A2        1.87421  -0.00000   0.00000  -0.00004  -0.00004   1.87417
    A3        1.95063   0.00000   0.00000  -0.00001  -0.00001   1.95062
    A4        1.93165   0.00000   0.00000   0.00001   0.00001   1.93166
    A5        1.93808  -0.00000   0.00000  -0.00001  -0.00001   1.93807
    A6        1.87647   0.00000   0.00000   0.00002   0.00002   1.87649
    A7        1.89169   0.00000   0.00000   0.00003   0.00003   1.89172
    A8        1.97778   0.00000   0.00000   0.00001   0.00001   1.97779
    A9        1.88769  -0.00001   0.00000  -0.00005  -0.00005   1.88763
   A10        1.87562   0.00001   0.00000   0.00006   0.00006   1.87568
   A11        1.91927   0.00000   0.00000   0.00003   0.00003   1.91930
   A12        1.93283  -0.00001   0.00000  -0.00003  -0.00003   1.93280
   A13        1.86655  -0.00000   0.00000  -0.00003  -0.00003   1.86653
   A14        2.11061  -0.00001   0.00000  -0.00004  -0.00004   2.11058
   A15        2.10391   0.00001   0.00000   0.00003   0.00003   2.10394
   A16        2.06830   0.00000   0.00000   0.00001   0.00001   2.06831
   A17        2.10657   0.00000   0.00000   0.00001   0.00001   2.10657
   A18        2.07935  -0.00000   0.00000  -0.00000  -0.00000   2.07935
   A19        2.09721  -0.00000   0.00000  -0.00000  -0.00000   2.09721
   A20        2.09920  -0.00000   0.00000  -0.00001  -0.00001   2.09919
   A21        2.08965   0.00000   0.00000   0.00001   0.00001   2.08966
   A22        2.09434   0.00000   0.00000   0.00000   0.00000   2.09434
   A23        2.08674   0.00000   0.00000   0.00001   0.00001   2.08675
   A24        2.09829  -0.00000   0.00000  -0.00001  -0.00001   2.09828
   A25        2.09815  -0.00000   0.00000   0.00000   0.00000   2.09815
   A26        2.09455   0.00000   0.00000   0.00001   0.00001   2.09456
   A27        2.09715  -0.00000   0.00000   0.00000   0.00000   2.09715
   A28        2.09147  -0.00000   0.00000  -0.00001  -0.00001   2.09146
   A29        2.11101  -0.00000   0.00000  -0.00002  -0.00002   2.11099
   A30        2.08501   0.00000   0.00000   0.00000   0.00000   2.08501
   A31        2.08716   0.00000   0.00000   0.00001   0.00001   2.08717
   A32        2.11593  -0.00001   0.00000  -0.00003  -0.00003   2.11591
   A33        2.11704   0.00000   0.00000   0.00002   0.00002   2.11706
   A34        2.04978   0.00000   0.00000   0.00001   0.00001   2.04979
   A35        2.07664   0.00000   0.00000   0.00001   0.00001   2.07665
   A36        2.08464  -0.00000   0.00000  -0.00001  -0.00001   2.08462
   A37        2.12186   0.00000   0.00000   0.00001   0.00001   2.12187
   A38        2.06864  -0.00000   0.00000  -0.00001  -0.00001   2.06863
   A39        2.11418   0.00001   0.00000   0.00004   0.00004   2.11422
   A40        2.10037  -0.00001   0.00000  -0.00004  -0.00004   2.10034
   A41        2.14997  -0.00000   0.00000  -0.00001  -0.00001   2.14996
   A42        2.09977   0.00000   0.00000   0.00001   0.00001   2.09978
   A43        2.03344  -0.00000   0.00000  -0.00000  -0.00000   2.03343
   A44        2.05560   0.00001   0.00000   0.00002   0.00002   2.05562
   A45        2.16571  -0.00001   0.00000  -0.00003  -0.00003   2.16568
   A46        2.08755   0.00000   0.00000   0.00002   0.00002   2.08757
   A47        2.02992   0.00000   0.00000   0.00001   0.00001   2.02993
    D1        2.97640  -0.00000   0.00000  -0.00016  -0.00016   2.97623
    D2       -1.17723  -0.00000   0.00000  -0.00021  -0.00021  -1.17744
    D3        0.93300  -0.00000   0.00000  -0.00017  -0.00017   0.93283
    D4       -1.15684   0.00000   0.00000   0.00003   0.00003  -1.15680
    D5        2.99379  -0.00000   0.00000   0.00002   0.00002   2.99381
    D6        0.98432   0.00000   0.00000   0.00005   0.00005   0.98437
    D7        2.98900   0.00000   0.00000   0.00007   0.00007   2.98907
    D8        0.85644  -0.00000   0.00000   0.00006   0.00006   0.85650
    D9       -1.15303   0.00000   0.00000   0.00009   0.00009  -1.15295
   D10        0.92234   0.00000   0.00000   0.00003   0.00003   0.92237
   D11       -1.21022  -0.00000   0.00000   0.00002   0.00002  -1.21020
   D12        3.06349  -0.00000   0.00000   0.00005   0.00005   3.06354
   D13       -0.53708   0.00000   0.00000  -0.00006  -0.00006  -0.53713
   D14        2.63669   0.00000   0.00000  -0.00007  -0.00007   2.63662
   D15        1.55536  -0.00000   0.00000  -0.00012  -0.00012   1.55524
   D16       -1.55406  -0.00000   0.00000  -0.00013  -0.00013  -1.55419
   D17       -2.67038  -0.00000   0.00000  -0.00008  -0.00008  -2.67047
   D18        0.50339  -0.00000   0.00000  -0.00009  -0.00009   0.50329
   D19        1.36357   0.00000   0.00000   0.00015   0.00015   1.36372
   D20       -1.74877   0.00000   0.00000   0.00010   0.00010  -1.74867
   D21       -2.80474   0.00000   0.00000   0.00011   0.00011  -2.80462
   D22        0.36610  -0.00000   0.00000   0.00006   0.00006   0.36616
   D23       -0.74557  -0.00000   0.00000   0.00008   0.00008  -0.74549
   D24        2.42527  -0.00000   0.00000   0.00003   0.00003   2.42530
   D25       -3.11491  -0.00000   0.00000  -0.00004  -0.00004  -3.11495
   D26        0.01500  -0.00000   0.00000  -0.00005  -0.00005   0.01495
   D27       -0.00198   0.00000   0.00000   0.00002   0.00002  -0.00197
   D28        3.12793  -0.00000   0.00000   0.00000   0.00000   3.12793
   D29        3.11446   0.00000   0.00000   0.00004   0.00004   3.11450
   D30       -0.03296   0.00000   0.00000   0.00005   0.00005  -0.03291
   D31        0.00142   0.00000   0.00000  -0.00001  -0.00001   0.00141
   D32        3.13718   0.00000   0.00000  -0.00000  -0.00000   3.13718
   D33        0.00138  -0.00000   0.00000  -0.00002  -0.00002   0.00136
   D34       -3.13940  -0.00000   0.00000  -0.00001  -0.00001  -3.13941
   D35       -3.12841  -0.00000   0.00000  -0.00001  -0.00001  -3.12842
   D36        0.01399   0.00000   0.00000   0.00001   0.00001   0.01400
   D37       -0.00017   0.00000   0.00000   0.00002   0.00002  -0.00015
   D38       -3.13898   0.00000   0.00000   0.00001   0.00001  -3.13897
   D39        3.14061   0.00000   0.00000   0.00000   0.00000   3.14061
   D40        0.00180  -0.00000   0.00000  -0.00000  -0.00000   0.00180
   D41       -0.00039  -0.00000   0.00000  -0.00001  -0.00001  -0.00040
   D42       -3.13774  -0.00000   0.00000  -0.00002  -0.00002  -3.13776
   D43        3.13841  -0.00000   0.00000  -0.00000  -0.00000   3.13841
   D44        0.00106  -0.00000   0.00000  -0.00001  -0.00001   0.00105
   D45       -0.00024  -0.00000   0.00000   0.00000   0.00000  -0.00024
   D46       -3.13600  -0.00000   0.00000  -0.00000  -0.00000  -3.13600
   D47        3.13712   0.00000   0.00000   0.00001   0.00001   3.13713
   D48        0.00136   0.00000   0.00000   0.00001   0.00001   0.00137
   D49       -3.10386   0.00000   0.00000   0.00000   0.00000  -3.10386
   D50        0.04772  -0.00000   0.00000  -0.00001  -0.00001   0.04771
   D51        0.00675   0.00000   0.00000   0.00001   0.00001   0.00677
   D52       -3.12485   0.00000   0.00000   0.00000   0.00000  -3.12485
   D53        3.10193  -0.00000   0.00000  -0.00002  -0.00002   3.10191
   D54       -0.04440   0.00000   0.00000   0.00005   0.00005  -0.04434
   D55       -0.00866  -0.00000   0.00000  -0.00003  -0.00003  -0.00869
   D56        3.12819   0.00000   0.00000   0.00005   0.00005   3.12824
   D57        0.00011  -0.00000   0.00000  -0.00001  -0.00001   0.00010
   D58       -3.14084  -0.00000   0.00000  -0.00000  -0.00000  -3.14084
   D59        3.13150  -0.00000   0.00000   0.00000   0.00000   3.13150
   D60       -0.00946   0.00000   0.00000   0.00001   0.00001  -0.00945
   D61       -0.00628   0.00000   0.00000   0.00003   0.00003  -0.00625
   D62        3.14047  -0.00000   0.00000  -0.00002  -0.00002   3.14044
   D63        3.13468   0.00000   0.00000   0.00002   0.00002   3.13470
   D64       -0.00176  -0.00000   0.00000  -0.00003  -0.00003  -0.00179
   D65        0.00481  -0.00000   0.00000  -0.00005  -0.00005   0.00476
   D66        3.14143   0.00000   0.00000   0.00000   0.00000   3.14143
   D67        0.00289   0.00000   0.00000   0.00005   0.00005   0.00294
   D68       -3.13411  -0.00000   0.00000  -0.00003  -0.00003  -3.13413
         Item               Value     Threshold  Converged?
 Maximum Force            0.000023     0.000450     YES
 RMS     Force            0.000004     0.000300     YES
 Maximum Displacement     0.000592     0.001800     YES
 RMS     Displacement     0.000148     0.001200     YES
 Predicted change in Energy=-5.699525D-09
 Optimization completed.
    -- Stationary point found.
                           ----------------------------
                           !   Optimized Parameters   !
                           ! (Angstroms and Degrees)  !
 --------------------------                            --------------------------
 ! Name  Definition              Value          Derivative Info.                !
 --------------------------------------------------------------------------------
 ! R1    R(1,2)                  1.4069         -DE/DX =    0.0                 !
 ! R2    R(1,16)                 0.9615         -DE/DX =    0.0                 !
 ! R3    R(2,3)                  1.535          -DE/DX =    0.0                 !
 ! R4    R(2,10)                 1.5167         -DE/DX =    0.0                 !
 ! R5    R(2,17)                 1.1079         -DE/DX =    0.0                 !
 ! R6    R(3,4)                  1.5086         -DE/DX =    0.0                 !
 ! R7    R(3,18)                 1.1002         -DE/DX =    0.0                 !
 ! R8    R(3,19)                 1.1023         -DE/DX =    0.0                 !
 ! R9    R(4,5)                  1.4003         -DE/DX =    0.0                 !
 ! R10   R(4,9)                  1.399          -DE/DX =    0.0                 !
 ! R11   R(5,6)                  1.3929         -DE/DX =    0.0                 !
 ! R12   R(5,20)                 1.0916         -DE/DX =    0.0                 !
 ! R13   R(6,7)                  1.3951         -DE/DX =    0.0                 !
 ! R14   R(6,21)                 1.0925         -DE/DX =    0.0                 !
 ! R15   R(7,8)                  1.3934         -DE/DX =    0.0                 !
 ! R16   R(7,22)                 1.0923         -DE/DX =    0.0                 !
 ! R17   R(8,9)                  1.3947         -DE/DX =    0.0                 !
 ! R18   R(8,23)                 1.0924         -DE/DX =    0.0                 !
 ! R19   R(9,24)                 1.0939         -DE/DX =    0.0                 !
 ! R20   R(10,11)                1.3955         -DE/DX =    0.0                 !
 ! R21   R(10,15)                1.3984         -DE/DX =    0.0                 !
 ! R22   R(11,12)                1.3917         -DE/DX =    0.0                 !
 ! R23   R(11,25)                1.0924         -DE/DX =    0.0                 !
 ! R24   R(12,13)                1.3948         -DE/DX =    0.0                 !
 ! R25   R(12,26)                1.0916         -DE/DX =    0.0                 !
 ! R26   R(13,14)                1.3314         -DE/DX =    0.0                 !
 ! R27   R(13,27)                1.0955         -DE/DX =    0.0                 !
 ! R28   R(14,15)                1.3296         -DE/DX =    0.0                 !
 ! R29   R(15,28)                1.0979         -DE/DX =    0.0                 !
 ! A1    A(2,1,16)             108.657          -DE/DX =    0.0                 !
 ! A2    A(1,2,3)              107.3846         -DE/DX =    0.0                 !
 ! A3    A(1,2,10)             111.7627         -DE/DX =    0.0                 !
 ! A4    A(1,2,17)             110.6755         -DE/DX =    0.0                 !
 ! A5    A(3,2,10)             111.0439         -DE/DX =    0.0                 !
 ! A6    A(3,2,17)             107.514          -DE/DX =    0.0                 !
 ! A7    A(10,2,17)            108.3856         -DE/DX =    0.0                 !
 ! A8    A(2,3,4)              113.3182         -DE/DX =    0.0                 !
 ! A9    A(2,3,18)             108.1566         -DE/DX =    0.0                 !
 ! A10   A(2,3,19)             107.4649         -DE/DX =    0.0                 !
 ! A11   A(4,3,18)             109.9661         -DE/DX =    0.0                 !
 ! A12   A(4,3,19)             110.743          -DE/DX =    0.0                 !
 ! A13   A(18,3,19)            106.9457         -DE/DX =    0.0                 !
 ! A14   A(3,4,5)              120.9292         -DE/DX =    0.0                 !
 ! A15   A(3,4,9)              120.5452         -DE/DX =    0.0                 !
 ! A16   A(5,4,9)              118.505          -DE/DX =    0.0                 !
 ! A17   A(4,5,6)              120.6973         -DE/DX =    0.0                 !
 ! A18   A(4,5,20)             119.1381         -DE/DX =    0.0                 !
 ! A19   A(6,5,20)             120.1611         -DE/DX =    0.0                 !
 ! A20   A(5,6,7)              120.2754         -DE/DX =    0.0                 !
 ! A21   A(5,6,21)             119.728          -DE/DX =    0.0                 !
 ! A22   A(7,6,21)             119.9966         -DE/DX =    0.0                 !
 ! A23   A(6,7,8)              119.5615         -DE/DX =    0.0                 !
 ! A24   A(6,7,22)             120.2229         -DE/DX =    0.0                 !
 ! A25   A(8,7,22)             120.2153         -DE/DX =    0.0                 !
 ! A26   A(7,8,9)              120.0089         -DE/DX =    0.0                 !
 ! A27   A(7,8,23)             120.1581         -DE/DX =    0.0                 !
 ! A28   A(9,8,23)             119.8326         -DE/DX =    0.0                 !
 ! A29   A(4,9,8)              120.9518         -DE/DX =    0.0                 !
 ! A30   A(4,9,24)             119.4621         -DE/DX =    0.0                 !
 ! A31   A(8,9,24)             119.5852         -DE/DX =    0.0                 !
 ! A32   A(2,10,11)            121.2341         -DE/DX =    0.0                 !
 ! A33   A(2,10,15)            121.2977         -DE/DX =    0.0                 !
 ! A34   A(11,10,15)           117.4438         -DE/DX =    0.0                 !
 ! A35   A(10,11,12)           118.9827         -DE/DX =    0.0                 !
 ! A36   A(10,11,25)           119.4409         -DE/DX =    0.0                 !
 ! A37   A(12,11,25)           121.5738         -DE/DX =    0.0                 !
 ! A38   A(11,12,13)           118.5241         -DE/DX =    0.0                 !
 ! A39   A(11,12,26)           121.1335         -DE/DX =    0.0                 !
 ! A40   A(13,12,26)           120.3424         -DE/DX =    0.0                 !
 ! A41   A(12,13,14)           123.1841         -DE/DX =    0.0                 !
 ! A42   A(12,13,27)           120.3078         -DE/DX =    0.0                 !
 ! A43   A(14,13,27)           116.5075         -DE/DX =    0.0                 !
 ! A44   A(13,14,15)           117.777          -DE/DX =    0.0                 !
 ! A45   A(10,15,14)           124.086          -DE/DX =    0.0                 !
 ! A46   A(10,15,28)           119.6078         -DE/DX =    0.0                 !
 ! A47   A(14,15,28)           116.3058         -DE/DX =    0.0                 !
 ! D1    D(16,1,2,3)           170.535          -DE/DX =    0.0                 !
 ! D2    D(16,1,2,10)          -67.4504         -DE/DX =    0.0                 !
 ! D3    D(16,1,2,17)           53.457          -DE/DX =    0.0                 !
 ! D4    D(1,2,3,4)            -66.2818         -DE/DX =    0.0                 !
 ! D5    D(1,2,3,18)           171.5316         -DE/DX =    0.0                 !
 ! D6    D(1,2,3,19)            56.3973         -DE/DX =    0.0                 !
 ! D7    D(10,2,3,4)           171.2568         -DE/DX =    0.0                 !
 ! D8    D(10,2,3,18)           49.0703         -DE/DX =    0.0                 !
 ! D9    D(10,2,3,19)          -66.064          -DE/DX =    0.0                 !
 ! D10   D(17,2,3,4)            52.846          -DE/DX =    0.0                 !
 ! D11   D(17,2,3,18)          -69.3406         -DE/DX =    0.0                 !
 ! D12   D(17,2,3,19)          175.5251         -DE/DX =    0.0                 !
 ! D13   D(1,2,10,11)          -30.7722         -DE/DX =    0.0                 !
 ! D14   D(1,2,10,15)          151.0713         -DE/DX =    0.0                 !
 ! D15   D(3,2,10,11)           89.1153         -DE/DX =    0.0                 !
 ! D16   D(3,2,10,15)          -89.0411         -DE/DX =    0.0                 !
 ! D17   D(17,2,10,11)        -153.0016         -DE/DX =    0.0                 !
 ! D18   D(17,2,10,15)          28.8419         -DE/DX =    0.0                 !
 ! D19   D(2,3,4,5)             78.127          -DE/DX =    0.0                 !
 ! D20   D(2,3,4,9)           -100.1972         -DE/DX =    0.0                 !
 ! D21   D(18,3,4,5)          -160.6996         -DE/DX =    0.0                 !
 ! D22   D(18,3,4,9)            20.9762         -DE/DX =    0.0                 !
 ! D23   D(19,3,4,5)           -42.7179         -DE/DX =    0.0                 !
 ! D24   D(19,3,4,9)           138.9579         -DE/DX =    0.0                 !
 ! D25   D(3,4,5,6)           -178.4712         -DE/DX =    0.0                 !
 ! D26   D(3,4,5,20)             0.8594         -DE/DX =    0.0                 !
 ! D27   D(9,4,5,6)             -0.1136         -DE/DX =    0.0                 !
 ! D28   D(9,4,5,20)           179.2171         -DE/DX =    0.0                 !
 ! D29   D(3,4,9,8)            178.4453         -DE/DX =    0.0                 !
 ! D30   D(3,4,9,24)            -1.8884         -DE/DX =    0.0                 !
 ! D31   D(5,4,9,8)              0.0811         -DE/DX =    0.0                 !
 ! D32   D(5,4,9,24)           179.7474         -DE/DX =    0.0                 !
 ! D33   D(4,5,6,7)              0.0792         -DE/DX =    0.0                 !
 ! D34   D(4,5,6,21)          -179.8744         -DE/DX =    0.0                 !
 ! D35   D(20,5,6,7)          -179.2445         -DE/DX =    0.0                 !
 ! D36   D(20,5,6,21)            0.8018         -DE/DX =    0.0                 !
 ! D37   D(5,6,7,8)             -0.0099         -DE/DX =    0.0                 !
 ! D38   D(5,6,7,22)          -179.8503         -DE/DX =    0.0                 !
 ! D39   D(21,6,7,8)           179.9436         -DE/DX =    0.0                 !
 ! D40   D(21,6,7,22)            0.1032         -DE/DX =    0.0                 !
 ! D41   D(6,7,8,9)             -0.0225         -DE/DX =    0.0                 !
 ! D42   D(6,7,8,23)          -179.7794         -DE/DX =    0.0                 !
 ! D43   D(22,7,8,9)           179.8179         -DE/DX =    0.0                 !
 ! D44   D(22,7,8,23)            0.061          -DE/DX =    0.0                 !
 ! D45   D(7,8,9,4)             -0.0139         -DE/DX =    0.0                 !
 ! D46   D(7,8,9,24)          -179.6798         -DE/DX =    0.0                 !
 ! D47   D(23,8,9,4)           179.7438         -DE/DX =    0.0                 !
 ! D48   D(23,8,9,24)            0.0779         -DE/DX =    0.0                 !
 ! D49   D(2,10,11,12)        -177.838          -DE/DX =    0.0                 !
 ! D50   D(2,10,11,25)           2.734          -DE/DX =    0.0                 !
 ! D51   D(15,10,11,12)          0.387          -DE/DX =    0.0                 !
 ! D52   D(15,10,11,25)       -179.041          -DE/DX =    0.0                 !
 ! D53   D(2,10,15,14)         177.7275         -DE/DX =    0.0                 !
 ! D54   D(2,10,15,28)          -2.5438         -DE/DX =    0.0                 !
 ! D55   D(11,10,15,14)         -0.4963         -DE/DX =    0.0                 !
 ! D56   D(11,10,15,28)        179.2323         -DE/DX =    0.0                 !
 ! D57   D(10,11,12,13)          0.0062         -DE/DX =    0.0                 !
 ! D58   D(10,11,12,26)       -179.957          -DE/DX =    0.0                 !
 ! D59   D(25,11,12,13)        179.4215         -DE/DX =    0.0                 !
 ! D60   D(25,11,12,26)         -0.5417         -DE/DX =    0.0                 !
 ! D61   D(11,12,13,14)         -0.3599         -DE/DX =    0.0                 !
 ! D62   D(11,12,13,27)        179.9355         -DE/DX =    0.0                 !
 ! D63   D(26,12,13,14)        179.6037         -DE/DX =    0.0                 !
 ! D64   D(26,12,13,27)         -0.1009         -DE/DX =    0.0                 !
 ! D65   D(12,13,14,15)          0.2756         -DE/DX =    0.0                 !
 ! D66   D(27,13,14,15)        179.9906         -DE/DX =    0.0                 !
 ! D67   D(13,14,15,10)          0.1657         -DE/DX =    0.0                 !
 ! D68   D(13,14,15,28)       -179.5711         -DE/DX =    0.0                 !
 --------------------------------------------------------------------------------
 GradGradGradGradGradGradGradGradGradGradGradGradGradGradGradGradGradGrad

                          Input orientation:                          
 ---------------------------------------------------------------------
 Center     Atomic      Atomic             Coordinates (Angstroms)
 Number     Number       Type             X           Y           Z
 ---------------------------------------------------------------------
      1          8           0       -0.129610   -1.569130    0.879420
      2          6           0       -0.425410   -0.237540    0.534670
      3          6           0        0.412730    0.112890   -0.702610
      4          6           0        1.896450    0.139460   -0.430860
      5          6           0        2.632900   -1.048040   -0.340200
      6          6           0        3.996540   -1.019260   -0.057780
      7          6           0        4.648160    0.198250    0.140780
      8          6           0        3.925810    1.386630    0.054560
      9          6           0        2.560690    1.354100   -0.229060
[...]
     5  C    0.015439  -0.012365  -0.086013   0.330221   5.148960   0.370839
     6  C   -0.004602   0.002010   0.008794   0.063153   0.370839   4.977124
     7  C    0.000515  -0.000383  -0.003451  -0.115047   0.065430   0.406508
     8  C   -0.000450   0.001849   0.011205   0.031066  -0.097727   0.029636
     9  C    0.004500  -0.010293  -0.089589   0.386302   0.073376  -0.094394
    10  C   -0.059725   0.224077   0.022379  -0.005189   0.001887  -0.000218
    11  C    0.026821  -0.129893  -0.017525  -0.000353   0.001042  -0.000038
    12  C    0.002765  -0.001234   0.002461  -0.000089  -0.000006  -0.000000
    13  C   -0.000027  -0.000410  -0.000240  -0.000025   0.000005  -0.000000
    14  N   -0.000372   0.009272  -0.000102   0.000007   0.000002  -0.000000
    15  C    0.010914  -0.083080   0.007821  -0.000655  -0.000247   0.000024
    16  H    0.296730  -0.036802   0.014776   0.001142  -0.001503   0.000273
    17  H   -0.034368   0.422430  -0.055386  -0.006122   0.009209  -0.001121
    18  H    0.002605  -0.045436   0.435877  -0.058390   0.005983  -0.000685
    19  H    0.001545  -0.037666   0.405247  -0.032587   0.001674   0.000181
    20  H    0.012235  -0.006655   0.002979  -0.066845   0.447662  -0.056604
    21  H   -0.000133   0.000003  -0.000245   0.014254  -0.061154   0.446928
    22  H    0.000001   0.000003   0.000064  -0.002875   0.010208  -0.054473
    23  H   -0.000001   0.000007  -0.000239   0.013623  -0.003997   0.010970
    24  H    0.000086  -0.002241  -0.001065  -0.068654   0.013606  -0.003775
    25  H    0.026826  -0.017179  -0.000488  -0.000517   0.000248  -0.000002
    26  H   -0.000013   0.000055   0.000047   0.000001  -0.000000   0.000000
    27  H   -0.000001   0.000041   0.000013  -0.000000  -0.000000  -0.000000
    28  H    0.000170  -0.001577   0.000208  -0.000352   0.000062  -0.000003
               7          8          9         10         11         12
     1  O    0.000515  -0.000450   0.004500  -0.059725   0.026821   0.002765
     2  C   -0.000383   0.001849  -0.010293   0.224077  -0.129893  -0.001234
     3  C   -0.003451   0.011205  -0.089589   0.022379  -0.017525   0.002461
     4  C   -0.115047   0.031066   0.386302  -0.005189  -0.000353  -0.000089
     5  C    0.065430  -0.097727   0.073376   0.001887   0.001042  -0.000006
     6  C    0.406508   0.029636  -0.094394  -0.000218  -0.000038  -0.000000
     7  C    4.958843   0.430347   0.044989   0.000066   0.000012  -0.000000
     8  C    0.430347   4.922940   0.424139  -0.000171  -0.000023   0.000000
     9  C    0.044989   0.424139   5.101563   0.000439   0.000121  -0.000004
    10  C    0.000066  -0.000171   0.000439   5.420728   0.256338  -0.023696
    11  C    0.000012  -0.000023   0.000121   0.256338   5.253777   0.451657
    12  C   -0.000000   0.000000  -0.000004  -0.023696   0.451657   4.912484
    13  C    0.000000   0.000000  -0.000000  -0.053104   0.022939   0.484754
    14  N    0.000000  -0.000000   0.000004  -0.029145  -0.072646  -0.041143
    15  C   -0.000005   0.000002   0.000270   0.395537   0.014506  -0.014176
    16  H   -0.000059   0.000065  -0.000548   0.016391  -0.009803   0.000445
    17  H    0.000492  -0.001222   0.005130  -0.088348   0.027652  -0.001146
    18  H    0.000256   0.000529   0.005242  -0.002175   0.005720  -0.000550
    19  H    0.000250  -0.000686   0.004292  -0.008488   0.003656  -0.000070
    20  H    0.011244  -0.003948   0.012215  -0.000023   0.000466   0.000004
    21  H   -0.058396   0.011098  -0.003630  -0.000002  -0.000001  -0.000000
    22  H    0.440806  -0.054310   0.010117   0.000000   0.000000   0.000000
    23  H   -0.055949   0.443317  -0.058677  -0.000001  -0.000000   0.000000
    24  H    0.009969  -0.047045   0.438905  -0.000156   0.000033  -0.000002
    25  H    0.000002  -0.000001  -0.000013  -0.064365   0.445065  -0.038519
    26  H   -0.000000  -0.000000   0.000000   0.013429  -0.064942   0.425378
    27  H    0.000000  -0.000000   0.000000   0.000204   0.001888  -0.064176
    28  H    0.000002  -0.000012   0.000232  -0.099526   0.010697  -0.001046
              13         14         15         16         17         18
     1  O   -0.000027  -0.000372   0.010914   0.296730  -0.034368   0.002605
     2  C   -0.000410   0.009272  -0.083080  -0.036802   0.422430  -0.045436
     3  C   -0.000240  -0.000102   0.007821   0.014776  -0.055386   0.435877
     4  C   -0.000025   0.000007  -0.000655   0.001142  -0.006122  -0.058390
     5  C    0.000005   0.000002  -0.000247  -0.001503   0.009209   0.005983
     6  C   -0.000000  -0.000000   0.000024   0.000273  -0.001121  -0.000685
     7  C    0.000000   0.000000  -0.000005  -0.000059   0.000492   0.000256
     8  C    0.000000  -0.000000   0.000002   0.000065  -0.001222   0.000529
     9  C   -0.000000   0.000004   0.000270  -0.000548   0.005130   0.005242
    10  C   -0.053104  -0.029145   0.395537   0.016391  -0.088348  -0.002175
    11  C    0.022939  -0.072646   0.014506  -0.009803   0.027652   0.005720
    12  C    0.484754  -0.041143  -0.014176   0.000445  -0.001146  -0.000550
    13  C    4.765647   0.504964  -0.104159  -0.000128   0.000251   0.000260
    14  N    0.504964   6.428964   0.512108  -0.000034  -0.000008  -0.000160
    15  C   -0.104159   0.512108   4.900775   0.002177  -0.000473  -0.001460
    16  H   -0.000128  -0.000034   0.002177   0.414069  -0.011766  -0.000475
    17  H    0.000251  -0.000008  -0.000473  -0.011766   0.605622   0.003635
    18  H    0.000260  -0.000160  -0.001460  -0.000475   0.003635   0.512908
    19  H   -0.000045  -0.000077   0.002821  -0.000343   0.004576  -0.010733
    20  H    0.000001   0.000000  -0.000027  -0.000868   0.001216   0.000475
    21  H   -0.000000  -0.000000   0.000000   0.000009  -0.000010   0.000005
    22  H   -0.000000   0.000000  -0.000000  -0.000000   0.000001  -0.000001
    23  H    0.000000  -0.000000  -0.000000   0.000001   0.000003  -0.000052
    24  H    0.000000   0.000001   0.000175  -0.000017   0.001168   0.002280
    25  H    0.005290  -0.002081   0.007200  -0.002400   0.001955   0.000324
    26  H   -0.037038   0.007149  -0.001602   0.000022  -0.000002  -0.000004
    27  H    0.432042  -0.029170   0.003112  -0.000000  -0.000002  -0.000002
    28  H    0.005500  -0.028167   0.450731  -0.000055   0.005569   0.000659
              19         20         21         22         23         24
     1  O    0.001545   0.012235  -0.000133   0.000001  -0.000001   0.000086
     2  C   -0.037666  -0.006655   0.000003   0.000003   0.000007  -0.002241
     3  C    0.405247   0.002979  -0.000245   0.000064  -0.000239  -0.001065
     4  C   -0.032587  -0.066845   0.014254  -0.002875   0.013623  -0.068654
     5  C    0.001674   0.447662  -0.061154   0.010208  -0.003997   0.013606
     6  C    0.000181  -0.056604   0.446928  -0.054473   0.010970  -0.003775
     7  C    0.000250   0.011244  -0.058396   0.440806  -0.055949   0.009969
     8  C   -0.000686  -0.003948   0.011098  -0.054310   0.443317  -0.047045
     9  C    0.004292   0.012215  -0.003630   0.010117  -0.058677   0.438905
    10  C   -0.008488  -0.000023  -0.000002   0.000000  -0.000001  -0.000156
    11  C    0.003656   0.000466  -0.000001   0.000000  -0.000000   0.000033
    12  C   -0.000070   0.000004  -0.000000   0.000000   0.000000  -0.000002
    13  C   -0.000045   0.000001  -0.000000  -0.000000   0.000000   0.000000
    14  N   -0.000077   0.000000  -0.000000   0.000000  -0.000000   0.000001
    15  C    0.002821  -0.000027   0.000000  -0.000000  -0.000000   0.000175
    16  H   -0.000343  -0.000868   0.000009  -0.000000   0.000001  -0.000017
    17  H    0.004576   0.001216  -0.000010   0.000001   0.000003   0.001168
    18  H   -0.010733   0.000475   0.000005  -0.000001  -0.000052   0.002280
    19  H    0.523853   0.001990  -0.000022  -0.000001   0.000009   0.000482
    20  H    0.001990   0.524202  -0.007301  -0.000098   0.000026  -0.000069
    21  H   -0.000022  -0.007301   0.548490  -0.007095  -0.000121   0.000042
    22  H   -0.000001  -0.000098  -0.007095   0.546023  -0.006943  -0.000157
    23  H    0.000009   0.000026  -0.000121  -0.006943   0.547271  -0.007027
    24  H    0.000482  -0.000069   0.000042  -0.000157  -0.007027   0.549431
    25  H    0.001395   0.000256  -0.000000   0.000000   0.000000   0.000000
    26  H   -0.000004  -0.000000   0.000000  -0.000000   0.000000   0.000000
    27  H   -0.000001   0.000000  -0.000000   0.000000  -0.000000   0.000000
    28  H    0.000093   0.000005  -0.000000  -0.000000  -0.000000   0.000156
              25         26         27         28
     1  O    0.026826  -0.000013  -0.000001   0.000170
     2  C   -0.017179   0.000055   0.000041  -0.001577
     3  C   -0.000488   0.000047   0.000013   0.000208
     4  C   -0.000517   0.000001  -0.000000  -0.000352
     5  C    0.000248  -0.000000  -0.000000   0.000062
     6  C   -0.000002   0.000000  -0.000000  -0.000003
     7  C    0.000002  -0.000000   0.000000   0.000002
     8  C   -0.000001  -0.000000  -0.000000  -0.000012
     9  C   -0.000013   0.000000   0.000000   0.000232
    10  C   -0.064365   0.013429   0.000204  -0.099526
    11  C    0.445065  -0.064942   0.001888   0.010697
    12  C   -0.038519   0.425378  -0.064176  -0.001046
    13  C    0.005290  -0.037038   0.432042   0.005500
    14  N   -0.002081   0.007149  -0.029170  -0.028167
    15  C    0.007200  -0.001602   0.003112   0.450731
    16  H   -0.002400   0.000022  -0.000000  -0.000055
    17  H    0.001955  -0.000002  -0.000002   0.005569
    18  H    0.000324  -0.000004  -0.000002   0.000659
    19  H    0.001395  -0.000004  -0.000001   0.000093
    20  H    0.000256  -0.000000   0.000000   0.000005
    21  H   -0.000000   0.000000  -0.000000  -0.000000
    22  H    0.000000  -0.000000   0.000000  -0.000000
    23  H    0.000000   0.000000  -0.000000  -0.000000
    24  H    0.000000   0.000000   0.000000   0.000156
    25  H    0.488846  -0.005884  -0.000179   0.000072
    26  H   -0.005884   0.535107  -0.001688   0.000087
    27  H   -0.000179  -0.001688   0.527809  -0.000131
    28  H    0.000072   0.000087  -0.000131   0.531407
 Mulliken charges:
               1
     1  O   -0.469291
     2  C    0.118114
     3  C   -0.290629
     4  C    0.246998
     5  C   -0.232840
     6  C   -0.100525
     7  C   -0.136440
     8  C   -0.100599
     9  C   -0.254689
    10  C    0.082856
    11  C   -0.227167
    12  C   -0.094093
    13  C   -0.026477
    14  N   -0.259367
    15  C   -0.102287
    16  H    0.318702
    17  H    0.111066
    18  H    0.143363
    19  H    0.138660
    20  H    0.127462
    21  H    0.117282
    22  H    0.118731
    23  H    0.117782
    24  H    0.113873
    25  H    0.154149
    26  H    0.129905
    27  H    0.130241
    28  H    0.125219
 Sum of Mulliken charges =  -0.00000
 Mulliken charges with hydrogens summed into heavy atoms:
               1
     1  O   -0.150589
     2  C    0.229180
     3  C   -0.008606
     4  C    0.246998
     5  C   -0.105378
     6  C    0.016757
     7  C   -0.017709
     8  C    0.017183
     9  C   -0.140816
    10  C    0.082856
    11  C   -0.073018
    12  C    0.035812
    13  C    0.103764
    14  N   -0.259367
    15  C    0.022932
 Electronic spatial extent (au):  <R**2>=           4291.4214
 Charge=              0.0000 electrons
 Dipole moment (field-independent basis, Debye):
    X=              0.0740    Y=             -1.4542    Z=              0.5080  Tot=              1.5421
 Quadrupole moment (field-independent basis, Debye-Ang):
   XX=            -87.1152   YY=            -85.8965   ZZ=            -88.4260
   XY=              9.5155   XZ=              3.7546   YZ=             -0.3396
 Traceless Quadrupole moment (field-independent basis, Debye-Ang):
   XX=              0.0307   YY=              1.2494   ZZ=             -1.2801
   XY=              9.5155   XZ=              3.7546   YZ=             -0.3396
 Octapole moment (field-independent basis, Debye-Ang**2):
  XXX=             12.0857  YYY=            -14.4985  ZZZ=             15.1602  XYY=             18.6597
  XXY=            -39.5671  XXZ=             -8.5123  XZZ=            -13.0146  YZZ=             -9.6953
  YYZ=              2.5464  XYZ=              2.4791
 Hexadecapole moment (field-independent basis, Debye-Ang**3):
 XXXX=          -4665.8398 YYYY=           -664.6204 ZZZZ=           -219.1443 XXXY=            137.1384
 XXXZ=            163.4012 YYYX=             56.1515 YYYZ=             -7.3602 ZZZX=             -5.2692
 ZZZY=            -21.2477 XXYY=           -962.3635 XXZZ=           -950.9981 YYZZ=           -143.7236
 XXYZ=              5.9506 YYXZ=              9.9139 ZZXY=              4.4618
 N-N= 8.948461114037D+02 E-N=-3.262394065015D+03  KE= 6.298053800851D+02
 Breneman (CHELPG) radii used.
 Read replacement radii for each type of atom:
 Atom Element Radius
    1     8    1.70
    2     6    1.50
    3     6    1.50
    4     6    1.50
    5     6    1.50
    6     6    1.50
    7     6    1.50
    8     6    1.50
    9     6    1.50
   10     6    1.50
   11     6    1.50
   12     6    1.50
   13     6    1.50
   14     7    1.70
   15     6    1.50
   16     1    1.45
   17     1    1.45
   18     1    1.45
   19     1    1.45
   20     1    1.45
   21     1    1.45
   22     1    1.45
   23     1    1.45
   24     1    1.45
   25     1    1.45
   26     1    1.45
   27     1    1.45
   28     1    1.45
 Generate Potential Derived Charges using the Breneman model, NDens= 1.
 Grid spacing= 0.300 Box extension= 2.800
 NStep X,Y,Z=   57     35     31   Total possible points=       61845
 Number of Points to Fit=   17468

 **********************************************************************

            Electrostatic Properties Using The SCF Density.

 **********************************************************************

       Atomic Center    1 is at  -0.129609 -1.569130  0.879419
       Atomic Center    2 is at  -0.425409 -0.237540  0.534669
       Atomic Center    3 is at   0.412731  0.112890 -0.702611
       Atomic Center    4 is at   1.896451  0.139461 -0.430861
       Atomic Center    5 is at   2.632901 -1.048039 -0.340201
       Atomic Center    6 is at   3.996541 -1.019259 -0.057781
       Atomic Center    7 is at   4.648161  0.198251  0.140779
       Atomic Center    8 is at   3.925811  1.386631  0.054559
       Atomic Center    9 is at   2.560691  1.354101 -0.229061
       Atomic Center   10 is at  -1.904869 -0.042230  0.263469
       Atomic Center   11 is at  -2.687329 -1.073520 -0.257641
       Atomic Center   12 is at  -4.029869 -0.829271 -0.530951
       Atomic Center   13 is at  -4.541689  0.442089 -0.272051
       Atomic Center   14 is at  -3.809619  1.433760  0.231169
       Atomic Center   15 is at  -2.528669  1.188700  0.490009
       Atomic Center   16 is at  -0.527259 -1.761340  1.733509
       Atomic Center   17 is at  -0.124989  0.452900  1.347349
       Atomic Center   18 is at   0.081311  1.093820 -1.074621
       Atomic Center   19 is at   0.172281 -0.625440 -1.485041
       Atomic Center   20 is at   2.122431 -2.002249 -0.483051
       Atomic Center   21 is at   4.556181 -1.955249  0.007259
       Atomic Center   22 is at   5.718031  0.219951  0.359789
       Atomic Center   23 is at   4.426940  2.345601  0.204739
       Atomic Center   24 is at   2.001380  2.291541 -0.300341
       Atomic Center   25 is at  -2.237049 -2.053360 -0.432551
       Atomic Center   26 is at  -4.674149 -1.610651 -0.938381
       Atomic Center   27 is at  -5.594089  0.666689 -0.477231
       Atomic Center   28 is at  -1.949520  2.020930  0.911049
   17468 points will be used for fitting atomic charges
 Fitting point charges to electrostatic potential
 Charges from ESP fit, RMS=   0.00395 RRMS=   0.31848:
 ESP charges:
               1
     1  O   -0.583832
     2  C    0.455659
     3  C   -0.205980
     4  C    0.202004
     5  C   -0.215204
     6  C   -0.069739
     7  C   -0.098056
     8  C   -0.087285
     9  C   -0.189067
    10  C   -0.286770
    11  C    0.153159
    12  C   -0.376423
    13  C    0.415415
    14  N   -0.624003
    15  C    0.371622
    16  H    0.344087
    17  H   -0.058995
    18  H    0.041627
    19  H    0.064571
    20  H    0.136036
    21  H    0.087511
    22  H    0.087339
    23  H    0.090000
    24  H    0.110915
    25  H    0.068951
    26  H    0.133458
    27  H    0.010219
    28  H    0.022778
 Sum of ESP charges =  -0.00000
 ESP charges with hydrogens summed into heavy atoms:
               1
     1  O   -0.239745
     2  C    0.396664
     3  C   -0.099783
     4  C    0.202004
     5  C   -0.079168
     6  C    0.017772
     7  C   -0.010717
     8  C    0.002716
     9  C   -0.078151
    10  C   -0.286770
    11  C    0.222111
    12  C   -0.242965
    13  C    0.425635
    14  N   -0.624003
    15  C    0.394400
 Charge=  -0.00000 Dipole=     0.1081    -1.3776     0.4236 Tot=     1.4453
 -----------------------------------------------------------------

              Electrostatic Properties (Atomic Units)

 -----------------------------------------------------------------
    Center     Electric         -------- Electric Field --------
               Potential          X             Y             Z
 -----------------------------------------------------------------
    1 Atom    -22.346204
    2 Atom    -14.697201
    3 Atom    -14.759326
    4 Atom    -14.761816
    5 Atom    -14.775321
    6 Atom    -14.771983
    7 Atom    -14.772086
    8 Atom    -14.770831
    9 Atom    -14.771400
   10 Atom    -14.753682
   11 Atom    -14.750116
   12 Atom    -14.757095
   13 Atom    -14.734723
   14 Atom    -18.397258
   15 Atom    -14.733165
   16 Atom     -0.992375
   17 Atom     -1.110380
   18 Atom     -1.110193
   19 Atom     -1.112028
   20 Atom     -1.115025
   21 Atom     -1.110502
   22 Atom     -1.109571
   23 Atom     -1.108717
   24 Atom     -1.107118
   25 Atom     -1.091403
   26 Atom     -1.091508
   27 Atom     -1.104392
   28 Atom     -1.100625
 -----------------------------------------------------------------
 Unable to Open any file for archive entry.
 1\1\GINC-NOTCH319\SP\RwB97XD\def2TZVP\C13H13N1O1\U6053008\12-Jul-2024\
 0\\#N Guess=Read Geom=Check Integral(Ultrafine) Density Pop=(ChelpG,Re
 adRadii) NMR wB97XD def2TZVP\\12365813_18\\0,1\O,0,-0.12961,-1.56913,0
 .87942\C,0,-0.42541,-0.23754,0.53467\C,0,0.41273,0.11289,-0.70261\C,0,
 1.89645,0.13946,-0.43086\C,0,2.6329,-1.04804,-0.3402\C,0,3.99654,-1.01
 926,-0.05778\C,0,4.64816,0.19825,0.14078\C,0,3.92581,1.38663,0.05456\C
 ,0,2.56069,1.3541,-0.22906\C,0,-1.90487,-0.04223,0.26347\C,0,-2.68733,
 -1.07352,-0.25764\C,0,-4.02987,-0.82927,-0.53095\C,0,-4.54169,0.44209,
 -0.27205\N,0,-3.80962,1.43376,0.23117\C,0,-2.52867,1.1887,0.49001\H,0,
 -0.52726,-1.76134,1.73351\H,0,-0.12499,0.4529,1.34735\H,0,0.08131,1.09
 382,-1.07462\H,0,0.17228,-0.62544,-1.48504\H,0,2.12243,-2.00225,-0.483
 05\H,0,4.55618,-1.95525,0.00726\H,0,5.71803,0.21995,0.35979\H,0,4.4269
 4,2.3456,0.20474\H,0,2.00138,2.29154,-0.30034\H,0,-2.23705,-2.05336,-0
 .43255\H,0,-4.67415,-1.61065,-0.93838\H,0,-5.59409,0.66669,-0.47723\H,
 0,-1.94952,2.02093,0.91105\\Version=ES64L-G16RevC.01\State=1-A\HF=-633
 .1955172\RMSD=1.844e-09\Dipole=0.0291053,-0.5721086,0.1998725\Quadrupo
 le=0.0228299,0.9288972,-0.9517271,7.0745121,2.7914688,-0.2525025\PG=C0
 1 [X(C13H13N1O1)]\\@
 The archive entry for this job was punched.


 IT WAS AN ACT OF DESPARATION. FOR SIX YEARS I HAD STRUGGLED WITH THE
 BLACKBODY THEORY. I KNEW THE PROBLEM WAS FUNDAMENTAL, AND I KNEW
 THE ANSWER. I HAD TO FIND A THEORETICAL EXPLANATION AT ANY COST,
 EXCEPT FOR THE INVIOLABLITY OF THE TWO LAWS OF THERMODYNAMICS.
   -- MAX PLANCK, 1931
 Job cpu time:       0 days  1 hours 15 minutes 17.0 seconds.
 Elapsed time:       0 days  0 hours  4 minutes 55.7 seconds.
 File lengths (MBytes):  RWF=    183 Int=      0 D2E=      0 Chk=     27 Scr=      2
 Normal termination of Gaussian 16 at Fri Jul 12 13:31:13 2024.
