 Entering Gaussian System, Link 0=g16
 Input=12365813_11.com
 Output=12365813_11.log
 Initial command:
 /uufs/chpc.utah.edu/sys/installdir/gaussian16/C01/AVX/g16/l1.exe "/scratch/general/vast/u6053008/1287165-notchpeak.peaks/Gau-721193.inp" -scrdir="/scratch/general/vast/u6053008/1287165-notchpeak.peaks/"
 Entering Link 1 = /uufs/chpc.utah.edu/sys/installdir/gaussian16/C01/AVX/g16/l1.exe PID=    721195.
  
 Copyright (c) 1988-2019, Gaussian, Inc.  All Rights Reserved.
  
 This is part of the Gaussian(R) 16 program.  It is based on
 the Gaussian(R) 09 system (copyright 2009, Gaussian, Inc.),
 the Gaussian(R) 03 system (copyright 2003, Gaussian, Inc.),
 the Gaussian(R) 98 system (copyright 1998, Gaussian, Inc.),
 the Gaussian(R) 94 system (copyright 1995, Gaussian, Inc.),
 the Gaussian 92(TM) system (copyright 1992, Gaussian, Inc.),
 the Gaussian 90(TM) system (copyright 1990, Gaussian, Inc.),
 the Gaussian 88(TM) system (copyright 1988, Gaussian, Inc.),
 the Gaussian 86(TM) system (copyright 1986, Carnegie Mellon
 University), and the Gaussian 82(TM) system (copyright 1983,
 Carnegie Mellon University). Gaussian is a federally registered
 trademark of Gaussian, Inc.
  
 This software contains proprietary and confidential information,
 including trade secrets, belonging to Gaussian, Inc.
  
 This software is provided under written license and may be
 used, copied, transmitted, or stored only in accord with that
 written license.
  
 The following legend is applicable only to US Government
 contracts under FAR:
  
                    RESTRICTED RIGHTS LEGEND
  
 Use, reproduction and disclosure by the US Government is
 subject to restrictions as set forth in subparagraphs (a)
 and (c) of the Commercial Computer Software - Restricted
 Rights clause in FAR 52.227-19.
  
 Gaussian, Inc.
 340 Quinnipiac St., Bldg. 40, Wallingford CT 06492
  
  
 ---------------------------------------------------------------
 Warning -- This program may not be used in any manner that
 competes with the business of Gaussian, Inc. or will provide
 assistance to any competitor of Gaussian, Inc.  The licensee
 of this program is prohibited from giving any competitor of
 Gaussian, Inc. access to this program.  By using this program,
 the user acknowledges that Gaussian, Inc. is engaged in the
 business of creating and licensing software in the field of
 computational chemistry and represents and warrants to the
 licensee that it is not a competitor of Gaussian, Inc. and that
 it will not use this program in any manner prohibited above.
 ---------------------------------------------------------------
  

 Cite this work as:
 Gaussian 16, Revision C.01,
 M. J. Frisch, G. W. Trucks, H. B. Schlegel, G. E. Scuseria, 
 M. A. Robb, J. R. Cheeseman, G. Scalmani, V. Barone, 
 G. A. Petersson, H. Nakatsuji, X. Li, M. Caricato, A. V. Marenich, 
 J. Bloino, B. G. Janesko, R. Gomperts, B. Mennucci, H. P. Hratchian, 
 J. V. Ortiz, A. F. Izmaylov, J. L. Sonnenberg, D. Williams-Young, 
 F. Ding, F. Lipparini, F. Egidi, J. Goings, B. Peng, A. Petrone, 
 T. Henderson, D. Ranasinghe, V. G. Zakrzewski, J. Gao, N. Rega, 
 G. Zheng, W. Liang, M. Hada, M. Ehara, K. Toyota, R. Fukuda, 
 J. Hasegawa, M. Ishida, T. Nakajima, Y. Honda, O. Kitao, H. Nakai, 
 T. Vreven, K. Throssell, J. A. Montgomery, Jr., J. E. Peralta, 
 F. Ogliaro, M. J. Bearpark, J. J. Heyd, E. N. Brothers, K. N. Kudin, 
 V. N. Staroverov, T. A. Keith, R. Kobayashi, J. Normand, 
 K. Raghavachari, A. P. Rendell, J. C. Burant, S. S. Iyengar, 
 J. Tomasi, M. Cossi, J. M. Millam, M. Klene, C. Adamo, R. Cammi, 
 J. W. Ochterski, R. L. Martin, K. Morokuma, O. Farkas, 
 J. B. Foresman, and D. J. Fox, Gaussian, Inc., Wallingford CT, 2019.
 
 ******************************************
 Gaussian 16:  ES64L-G16RevC.01  3-Jul-2019
                12-Jul-2024 
 ******************************************
 %NProcShared=16
 Will use up to   16 processors via shared memory.
 %Mem=32GB
 %chk=12365813_11.chk
 ------------------------------------------------------
 #N OPT FREQ=NORAMAN Integral(Ultrafine) wB97XD def2SVP
 ------------------------------------------------------
 1/18=20,19=15,26=4,38=1/1,3;
 2/9=110,12=2,17=6,18=5,40=1/2;
 3/5=43,7=101,11=2,25=1,30=1,71=1,74=-58,75=-5/1,2,3;
 4//1;
 5/5=2,38=5/2;
 6/7=2,8=2,9=2,10=2,28=1/1;
 7//1,2,3,16;
 1/18=20,19=15,26=4/3(2);
 2/9=110/2;
 99//99;
 2/9=110/2;
 3/5=43,7=101,11=2,25=1,30=1,71=1,74=-58,75=-5/1,2,3;
 4/5=5,16=3,69=1/1;
 5/5=2,38=5/2;
 7//1,2,3,16;
 1/18=20,19=15,26=4/3(-5);
 2/9=110/2;
 6/7=2,8=2,9=2,10=2,19=2,28=1/1;
 99/9=1/99;
 -----------
 12365813_11
 -----------
 Symbolic Z-matrix:
 Charge =  0 Multiplicity = 1
 O                    -0.148     2.31285   1.14153 
 C                    -0.62218   1.88703  -0.11059 
 C                     0.53641   1.61316  -1.10038 
 C                     1.43484   0.48255  -0.67086 
 C                     1.21444  -0.81898  -1.13587 
 C                     1.99587  -1.88127  -0.68644 
 C                     3.01323  -1.65765   0.24008 
 C                     3.24412  -0.36561   0.71035 
 C                     2.46049   0.69375   0.2569 
 C                    -1.4646    0.65115   0.09556 
 C                    -1.25631  -0.2052    1.1764 
 C                    -2.01198  -1.37019   1.26269 
 C                    -2.9451   -1.63822   0.26204 
 N                    -3.15848  -0.82647  -0.77158 
 C                    -2.43559   0.2873   -0.84116 
 H                     0.39711   3.09356   1.01328 
 H                    -1.26396   2.66607  -0.5679 
 H                     1.11832   2.54481  -1.21089 
 H                     0.10054   1.3993   -2.0886 
 H                     0.40886  -1.00395  -1.85161 
 H                     1.80674  -2.88967  -1.06092 
 H                     3.62721  -2.48883   0.59376 
 H                     4.04076  -0.18061   1.43447 
 H                     2.64652   1.70196   0.63472 
 H                    -0.50744   0.04844   1.92805 
 H                    -1.87732  -2.06713   2.09187 
 H                    -3.55011  -2.55084   0.29956 
 H                    -2.63567   0.94245  -1.69939 
 

 GradGradGradGradGradGradGradGradGradGradGradGradGradGradGradGradGradGrad
 Berny optimization.
 Initialization pass.
                           ----------------------------
                           !    Initial Parameters    !
                           ! (Angstroms and Degrees)  !
 --------------------------                            --------------------------
 ! Name  Definition              Value          Derivative Info.                !
 --------------------------------------------------------------------------------
 ! R1    R(1,2)                  1.405          estimate D2E/DX2                !
 ! R2    R(1,16)                 0.9608         estimate D2E/DX2                !
 ! R3    R(2,3)                  1.5482         estimate D2E/DX2                !
 ! R4    R(2,10)                 1.5098         estimate D2E/DX2                !
 ! R5    R(2,17)                 1.1081         estimate D2E/DX2                !
 ! R6    R(3,4)                  1.5066         estimate D2E/DX2                !
 ! R7    R(3,18)                 1.104          estimate D2E/DX2                !
 ! R8    R(3,19)                 1.101          estimate D2E/DX2                !
 ! R9    R(4,5)                  1.3996         estimate D2E/DX2                !
 ! R10   R(4,9)                  1.399          estimate D2E/DX2                !
 ! R11   R(5,6)                  1.3932         estimate D2E/DX2                !
 ! R12   R(5,20)                 1.0934         estimate D2E/DX2                !
 ! R13   R(6,7)                  1.3941         estimate D2E/DX2                !
 ! R14   R(6,21)                 1.0922         estimate D2E/DX2                !
 ! R15   R(7,8)                  1.3942         estimate D2E/DX2                !
 ! R16   R(7,22)                 1.0922         estimate D2E/DX2                !
 ! R17   R(8,9)                  1.3935         estimate D2E/DX2                !
 ! R18   R(8,23)                 1.0923         estimate D2E/DX2                !
 ! R19   R(9,24)                 1.0926         estimate D2E/DX2                !
 ! R20   R(10,11)                1.3946         estimate D2E/DX2                !
 ! R21   R(10,15)                1.3974         estimate D2E/DX2                !
 ! R22   R(11,12)                1.3913         estimate D2E/DX2                !
 ! R23   R(11,25)                1.0909         estimate D2E/DX2                !
 ! R24   R(12,13)                1.3942         estimate D2E/DX2                !
 ! R25   R(12,26)                1.0915         estimate D2E/DX2                !
 ! R26   R(13,14)                1.3315         estimate D2E/DX2                !
 ! R27   R(13,27)                1.0956         estimate D2E/DX2                !
 ! R28   R(14,15)                1.3296         estimate D2E/DX2                !
 ! R29   R(15,28)                1.0981         estimate D2E/DX2                !
 ! A1    A(2,1,16)             108.5902         estimate D2E/DX2                !
 ! A2    A(1,2,3)              111.7649         estimate D2E/DX2                !
 ! A3    A(1,2,10)             108.3436         estimate D2E/DX2                !
 ! A4    A(1,2,17)             110.4986         estimate D2E/DX2                !
 ! A5    A(3,2,10)             111.1021         estimate D2E/DX2                !
 ! A6    A(3,2,17)             107.0935         estimate D2E/DX2                !
 ! A7    A(10,2,17)            107.9792         estimate D2E/DX2                !
 ! A8    A(2,3,4)              113.3739         estimate D2E/DX2                !
 ! A9    A(2,3,18)             108.0085         estimate D2E/DX2                !
 ! A10   A(2,3,19)             108.1744         estimate D2E/DX2                !
 ! A11   A(4,3,18)             110.3342         estimate D2E/DX2                !
 ! A12   A(4,3,19)             110.2538         estimate D2E/DX2                !
 ! A13   A(18,3,19)            106.4232         estimate D2E/DX2                !
 ! A14   A(3,4,5)              120.6125         estimate D2E/DX2                !
 ! A15   A(3,4,9)              120.8595         estimate D2E/DX2                !
 ! A16   A(5,4,9)              118.4353         estimate D2E/DX2                !
 ! A17   A(4,5,6)              120.9008         estimate D2E/DX2                !
 ! A18   A(4,5,20)             119.3964         estimate D2E/DX2                !
 ! A19   A(6,5,20)             119.6978         estimate D2E/DX2                !
 ! A20   A(5,6,7)              120.0925         estimate D2E/DX2                !
 ! A21   A(5,6,21)             119.7519         estimate D2E/DX2                !
 ! A22   A(7,6,21)             120.1554         estimate D2E/DX2                !
 ! A23   A(6,7,8)              119.5827         estimate D2E/DX2                !
 ! A24   A(6,7,22)             120.2239         estimate D2E/DX2                !
 ! A25   A(8,7,22)             120.1933         estimate D2E/DX2                !
 ! A26   A(7,8,9)              120.1062         estimate D2E/DX2                !
 ! A27   A(7,8,23)             120.0877         estimate D2E/DX2                !
 ! A28   A(9,8,23)             119.8061         estimate D2E/DX2                !
 ! A29   A(4,9,8)              120.8823         estimate D2E/DX2                !
 ! A30   A(4,9,24)             119.5658         estimate D2E/DX2                !
 ! A31   A(8,9,24)             119.5512         estimate D2E/DX2                !
 ! A32   A(2,10,11)            121.6761         estimate D2E/DX2                !
 ! A33   A(2,10,15)            120.6184         estimate D2E/DX2                !
 ! A34   A(11,10,15)           117.608          estimate D2E/DX2                !
 ! A35   A(10,11,12)           118.7581         estimate D2E/DX2                !
 ! A36   A(10,11,25)           119.587          estimate D2E/DX2                !
 ! A37   A(12,11,25)           121.6543         estimate D2E/DX2                !
 ! A38   A(11,12,13)           118.6837         estimate D2E/DX2                !
 ! A39   A(11,12,26)           120.9814         estimate D2E/DX2                !
 ! A40   A(13,12,26)           120.3339         estimate D2E/DX2                !
 ! A41   A(12,13,14)           123.1758         estimate D2E/DX2                !
 ! A42   A(12,13,27)           120.3412         estimate D2E/DX2                !
 ! A43   A(14,13,27)           116.4828         estimate D2E/DX2                !
 ! A44   A(13,14,15)           117.6573         estimate D2E/DX2                !
 ! A45   A(10,15,14)           124.1124         estimate D2E/DX2                !
 ! A46   A(10,15,28)           119.6813         estimate D2E/DX2                !
 ! A47   A(14,15,28)           116.2063         estimate D2E/DX2                !
 ! D1    D(16,1,2,3)            56.6141         estimate D2E/DX2                !
 ! D2    D(16,1,2,10)          179.3523         estimate D2E/DX2                !
 ! D3    D(16,1,2,17)          -62.5396         estimate D2E/DX2                !
 ! D4    D(1,2,3,4)             63.9039         estimate D2E/DX2                !
 ! D5    D(1,2,3,18)           -58.6819         estimate D2E/DX2                !
 ! D6    D(1,2,3,19)          -173.4929         estimate D2E/DX2                !
 ! D7    D(10,2,3,4)           -57.248          estimate D2E/DX2                !
 ! D8    D(10,2,3,18)         -179.8338         estimate D2E/DX2                !
 ! D9    D(10,2,3,19)           65.3551         estimate D2E/DX2                !
 ! D10   D(17,2,3,4)          -174.9468         estimate D2E/DX2                !
 ! D11   D(17,2,3,18)           62.4673         estimate D2E/DX2                !
 ! D12   D(17,2,3,19)          -52.3437         estimate D2E/DX2                !
 ! D13   D(1,2,10,11)          -26.9196         estimate D2E/DX2                !
 ! D14   D(1,2,10,15)          156.757          estimate D2E/DX2                !
 ! D15   D(3,2,10,11)           96.2201         estimate D2E/DX2                !
 ! D16   D(3,2,10,15)          -80.1033         estimate D2E/DX2                !
 ! D17   D(17,2,10,11)        -146.6203         estimate D2E/DX2                !
 ! D18   D(17,2,10,15)          37.0563         estimate D2E/DX2                !
 ! D19   D(2,3,4,5)             94.1405         estimate D2E/DX2                !
 ! D20   D(2,3,4,9)            -82.3029         estimate D2E/DX2                !
 ! D21   D(18,3,4,5)          -144.5709         estimate D2E/DX2                !
 ! D22   D(18,3,4,9)            38.9857         estimate D2E/DX2                !
 ! D23   D(19,3,4,5)           -27.3038         estimate D2E/DX2                !
 ! D24   D(19,3,4,9)           156.2528         estimate D2E/DX2                !
 ! D25   D(3,4,5,6)           -176.483          estimate D2E/DX2                !
 ! D26   D(3,4,5,20)             2.7072         estimate D2E/DX2                !
 ! D27   D(9,4,5,6)              0.0452         estimate D2E/DX2                !
 ! D28   D(9,4,5,20)           179.2353         estimate D2E/DX2                !
 ! D29   D(3,4,9,8)            176.4201         estimate D2E/DX2                !
 ! D30   D(3,4,9,24)            -3.2808         estimate D2E/DX2                !
 ! D31   D(5,4,9,8)             -0.0991         estimate D2E/DX2                !
 ! D32   D(5,4,9,24)          -179.8            estimate D2E/DX2                !
 ! D33   D(4,5,6,7)              0.0706         estimate D2E/DX2                !
 ! D34   D(4,5,6,21)           179.9259         estimate D2E/DX2                !
 ! D35   D(20,5,6,7)          -179.1171         estimate D2E/DX2                !
 ! D36   D(20,5,6,21)            0.7382         estimate D2E/DX2                !
 ! D37   D(5,6,7,8)             -0.133          estimate D2E/DX2                !
 ! D38   D(5,6,7,22)          -179.9918         estimate D2E/DX2                !
 ! D39   D(21,6,7,8)          -179.9877         estimate D2E/DX2                !
 ! D40   D(21,6,7,22)            0.1536         estimate D2E/DX2                !
 ! D41   D(6,7,8,9)              0.0796         estimate D2E/DX2                !
 ! D42   D(6,7,8,23)          -179.8433         estimate D2E/DX2                !
 ! D43   D(22,7,8,9)           179.9384         estimate D2E/DX2                !
 ! D44   D(22,7,8,23)            0.0155         estimate D2E/DX2                !
 ! D45   D(7,8,9,4)              0.0375         estimate D2E/DX2                !
 ! D46   D(7,8,9,24)           179.7384         estimate D2E/DX2                !
 ! D47   D(23,8,9,4)           179.9606         estimate D2E/DX2                !
 ! D48   D(23,8,9,24)           -0.3385         estimate D2E/DX2                !
 ! D49   D(2,10,11,12)        -176.0569         estimate D2E/DX2                !
 ! D50   D(2,10,11,25)           3.6912         estimate D2E/DX2                !
 ! D51   D(15,10,11,12)          0.3727         estimate D2E/DX2                !
 ! D52   D(15,10,11,25)       -179.8792         estimate D2E/DX2                !
 ! D53   D(2,10,15,14)         175.7372         estimate D2E/DX2                !
 ! D54   D(2,10,15,28)          -4.2353         estimate D2E/DX2                !
 ! D55   D(11,10,15,14)         -0.732          estimate D2E/DX2                !
 ! D56   D(11,10,15,28)        179.2955         estimate D2E/DX2                !
 ! D57   D(10,11,12,13)          0.2226         estimate D2E/DX2                !
 ! D58   D(10,11,12,26)        179.871          estimate D2E/DX2                !
 ! D59   D(25,11,12,13)       -179.52           estimate D2E/DX2                !
 ! D60   D(25,11,12,26)          0.1284         estimate D2E/DX2                !
 ! D61   D(11,12,13,14)         -0.5615         estimate D2E/DX2                !
 ! D62   D(11,12,13,27)        179.6047         estimate D2E/DX2                !
 ! D63   D(26,12,13,14)        179.7877         estimate D2E/DX2                !
 ! D64   D(26,12,13,27)         -0.0461         estimate D2E/DX2                !
 ! D65   D(12,13,14,15)          0.242          estimate D2E/DX2                !
 ! D66   D(27,13,14,15)       -179.9182         estimate D2E/DX2                !
 ! D67   D(13,14,15,10)          0.4237         estimate D2E/DX2                !
 ! D68   D(13,14,15,28)       -179.6029         estimate D2E/DX2                !
 --------------------------------------------------------------------------------
 Trust Radius=3.00D-01 FncErr=1.00D-07 GrdErr=1.00D-06 EigMax=2.50D+02 EigMin=1.00D-04
 Number of steps in this run=    154 maximum allowed number of steps=    168.
 GradGradGradGradGradGradGradGradGradGradGradGradGradGradGradGradGradGrad

                          Input orientation:                          
 ---------------------------------------------------------------------
 Center     Atomic      Atomic             Coordinates (Angstroms)
 Number     Number       Type             X           Y           Z
 ---------------------------------------------------------------------
      1          8           0       -0.148000    2.312850    1.141530
      2          6           0       -0.622180    1.887030   -0.110590
      3          6           0        0.536410    1.613160   -1.100380
      4          6           0        1.434840    0.482550   -0.670860
      5          6           0        1.214440   -0.818980   -1.135870
      6          6           0        1.995870   -1.881270   -0.686440
      7          6           0        3.013230   -1.657650    0.240080
      8          6           0        3.244120   -0.365610    0.710350
      9          6           0        2.460490    0.693750    0.256900
     10          6           0       -1.464600    0.651150    0.095560
     11          6           0       -1.256310   -0.205200    1.176400
     12          6           0       -2.011980   -1.370190    1.262690
     13          6           0       -2.945100   -1.638220    0.262040
     14          7           0       -3.158480   -0.826470   -0.771580
     15          6           0       -2.435590    0.287300   -0.841160
     16          1           0        0.397110    3.093560    1.013280
     17          1           0       -1.263960    2.666070   -0.567900
     18          1           0        1.118320    2.544810   -1.210890
     19          1           0        0.100540    1.399300   -2.088600
     20          1           0        0.408860   -1.003950   -1.851610
     21          1           0        1.806740   -2.889670   -1.060920
     22          1           0        3.627210   -2.488830    0.593760
     23          1           0        4.040760   -0.180610    1.434470
     24          1           0        2.646520    1.701960    0.634720
     25          1           0       -0.507440    0.048440    1.928050
     26          1           0       -1.877320   -2.067130    2.091870
     27          1           0       -3.550110   -2.550840    0.299560
     28          1           0       -2.635670    0.942450   -1.699390
 ---------------------------------------------------------------------
                    Distance matrix (angstroms):
                    1          2          3          4          5
     1  O    0.000000
     2  C    1.404982   0.000000
     3  C    2.446251   1.548231   0.000000
     4  C    3.023266   2.552998   1.506633   0.000000
     5  C    4.105016   3.427370   2.525132   1.399568   0.000000
     6  C    5.052553   4.624486   3.809516   2.429535   1.393227
     7  C    5.154693   5.089591   4.316210   2.810975   2.415005
     8  C    4.343563   4.549352   3.811295   2.429117   2.780948
     9  C    3.195039   3.325932   2.527767   1.399036   2.404330
    10  C    2.364051   1.509824   2.521860   3.003761   3.294686
    11  C    2.751389   2.536906   3.421112   3.335814   3.439175
    12  C    4.129635   3.798279   4.580259   4.364840   4.057919
    13  C    4.920185   4.238183   4.954652   4.954982   4.463976
    14  N    4.751664   3.772639   4.439833   4.777266   4.388074
    15  C    3.642387   2.526128   3.264641   3.879092   3.825366
    16  H    0.960781   1.938492   2.584289   3.275757   4.538154
    17  H    2.071782   1.108114   2.152553   3.473022   4.314004
    18  H    2.681651   2.161637   1.103994   2.155164   3.365999
    19  H    3.366019   2.161649   1.101044   2.151923   2.658803
    20  H    4.502237   3.528733   2.725781   2.157890   1.093369
    21  H    5.978128   5.442393   4.678758   3.415015   2.155039
    22  H    6.132568   6.140161   5.408279   3.903184   3.406094
    23  H    4.883530   5.329667   4.682258   3.415116   3.873274
    24  H    2.905062   3.357698   2.733317   2.158626   3.397202
    25  H    2.423915   2.747659   3.565019   3.273414   3.620068
    26  H    4.803948   4.696976   5.437011   5.010384   4.640600
    27  H    5.994893   5.332512   5.999864   5.915479   5.268846
    28  H    4.017129   2.733251   3.297083   4.223557   4.271245
                    6          7          8          9         10
     6  C    0.000000
     7  C    1.394083   0.000000
     8  C    2.409642   1.394214   0.000000
     9  C    2.781455   2.415551   1.393534   0.000000
    10  C    4.358845   5.040080   4.856317   3.928635   0.000000
    11  C    4.105613   4.606005   4.527340   3.932962   1.394609
    12  C    4.485886   5.136253   5.379670   5.027370   2.397422
    13  C    5.037050   5.958402   6.334585   5.887148   2.731448
    14  N    5.261860   6.309067   6.588004   5.911147   2.409258
    15  C    4.936038   5.885707   5.923899   5.034137   1.397374
    16  H    5.494908   5.478679   4.490333   3.254034   3.205236
    17  H    5.596324   6.135287   5.581021   4.294400   2.130807
    18  H    4.542612   4.832874   4.084205   2.717030   3.458936
    19  H    4.039860   4.821976   4.564113   3.401255   2.789256
    20  H    2.155438   3.403709   3.874250   3.396643   3.168703
    21  H    1.092189   2.160114   3.402108   3.873621   4.957471
    22  H    2.160859   1.092209   2.160651   3.406395   6.002850
    23  H    3.401776   2.159637   1.092342   2.156022   5.726560
    24  H    3.874061   3.402528   2.153530   1.092631   4.277406
    25  H    4.101939   4.260881   3.965909   3.466666   2.153470
    26  H    4.770236   5.245406   5.570719   5.459503   3.397740
    27  H    5.672602   6.624104   7.148814   6.830556   3.826710
    28  H    5.518209   6.513995   6.487665   5.464409   2.162893
                   11         12         13         14         15
    11  C    0.000000
    12  C    1.391289   0.000000
    13  C    2.396166   1.394221   0.000000
    14  N    2.792643   2.397571   1.331480   0.000000
    15  C    2.388264   2.711624   2.276901   1.329622   0.000000
    16  H    3.693538   5.078482   5.841615   5.585211   4.397526
    17  H    3.359588   4.494662   4.694885   3.978508   2.665696
    18  H    4.347479   5.589687   6.014869   5.463473   4.226503
    19  H    3.882742   4.833628   4.901832   4.160505   3.037204
    20  H    3.546778   3.961498   4.014830   3.731471   3.283174
    21  H    4.646962   4.721293   5.088844   5.384600   5.304601
    22  H    5.422472   5.787857   6.635423   7.118510   6.820809
    23  H    5.303410   6.170921   7.231975   7.557304   6.880446
    24  H    4.377529   5.615521   6.523949   6.486036   5.477894
    25  H    1.090925   2.172293   3.400382   3.883488   3.382801
    26  H    2.165761   1.091512   2.161573   3.373419   3.802324
    27  H    3.395938   2.165040   1.095591   2.067406   3.255524
    28  H    3.389676   3.809358   3.256196   2.064761   1.098095
                   16         17         18         19         20
    16  H    0.000000
    17  H    2.332816   0.000000
    18  H    2.401708   2.470506   0.000000
    19  H    3.546848   2.403975   1.765912   0.000000
    20  H    4.999732   4.232645   3.675262   2.434509   0.000000
    21  H    6.487558   6.366986   5.479962   4.728901   2.476933
    22  H    6.463174   7.200416   5.906676   5.894914   4.306098
    23  H    4.916683   6.344535   4.792338   5.516654   4.966579
    24  H    2.672022   4.203291   2.540092   3.740333   4.302430
    25  H    3.305718   3.695142   4.327575   4.281114   4.029015
    26  H    5.741873   5.463860   6.414988   5.779654   4.680599
    27  H    6.924536   5.761521   7.073991   5.885079   4.763806
    28  H    4.602565   2.476434   4.110794   2.801257   3.616740
                   21         22         23         24         25
    21  H    0.000000
    22  H    2.492539   0.000000
    23  H    4.307763   2.491124   0.000000
    24  H    4.966235   4.304202   2.475394   0.000000
    25  H    4.787678   5.031242   4.580634   3.788706   0.000000
    26  H    4.918227   5.720316   6.246183   6.065843   2.525677
    27  H    5.537288   7.183615   8.032890   7.523089   4.320426
    28  H    5.901508   7.500392   7.460366   5.824642   4.299644
                   26         27         28
    26  H    0.000000
    27  H    2.498915   0.000000
    28  H    4.899624   4.127357   0.000000
 Stoichiometry    C13H13NO
 Framework group  C1[X(C13H13NO)]
 Deg. of freedom    78
 Full point group                 C1      NOp   1
 Largest Abelian subgroup         C1      NOp   1
 Largest concise Abelian subgroup C1      NOp   1
                         Standard orientation:                         
 ---------------------------------------------------------------------
 Center     Atomic      Atomic             Coordinates (Angstroms)
 Number     Number       Type             X           Y           Z
 ---------------------------------------------------------------------
      1          8           0       -0.148001    2.312850    1.141531
      2          6           0       -0.622181    1.887030   -0.110589
      3          6           0        0.536409    1.613160   -1.100379
      4          6           0        1.434839    0.482551   -0.670859
      5          6           0        1.214440   -0.818980   -1.135869
      6          6           0        1.995870   -1.881269   -0.686439
      7          6           0        3.013230   -1.657649    0.240081
      8          6           0        3.244120   -0.365609    0.710351
      9          6           0        2.460489    0.693751    0.256901
     10          6           0       -1.464601    0.651150    0.095561
     11          6           0       -1.256310   -0.205200    1.176401
     12          6           0       -2.011980   -1.370191    1.262691
     13          6           0       -2.945100   -1.638221    0.262041
     14          7           0       -3.158480   -0.826471   -0.771579
     15          6           0       -2.435590    0.287299   -0.841159
     16          1           0        0.397109    3.093560    1.013281
     17          1           0       -1.263961    2.666070   -0.567899
     18          1           0        1.118319    2.544810   -1.210889
     19          1           0        0.100539    1.399300   -2.088599
     20          1           0        0.408860   -1.003950   -1.851609
     21          1           0        1.806740   -2.889669   -1.060919
     22          1           0        3.627210   -2.488829    0.593761
     23          1           0        4.040760   -0.180609    1.434471
     24          1           0        2.646519    1.701961    0.634721
     25          1           0       -0.507440    0.048440    1.928051
     26          1           0       -1.877320   -2.067130    2.091871
     27          1           0       -3.550110   -2.550841    0.299561
     28          1           0       -2.635671    0.942449   -1.699389
 ---------------------------------------------------------------------
 Rotational constants (GHZ):           0.9560079           0.4905718           0.4006349
 Standard basis: def2SVP (5D, 7F)
 There are   290 symmetry adapted cartesian basis functions of A   symmetry.
 There are   275 symmetry adapted basis functions of A   symmetry.
   275 basis functions,   466 primitive gaussians,   290 cartesian basis functions
    53 alpha electrons       53 beta electrons
       nuclear repulsion energy       945.3422784415 Hartrees.
 NAtoms=   28 NActive=   28 NUniq=   28 SFac= 1.00D+00 NAtFMM=   60 NAOKFM=F Big=F
 Integral buffers will be    131072 words long.
 Raffenetti 2 integral format.
 Two-electron integral symmetry is turned on.
 Nuclear repulsion after empirical dispersion term =      945.3217059496 Hartrees.
 One-electron integrals computed using PRISM.
   1 Symmetry operations used in ECPInt.
 ECPInt:  NShTT=    8385 NPrTT=   30369 LenC2=    8129 LenP2D=   21901.
 LDataN:  DoStor=T MaxTD1= 4 Len=   56
 NBasis=   275 RedAO= T EigKep=  2.75D-04  NBF=   275
 NBsUse=   275 1.00D-06 EigRej= -1.00D+00 NBFU=   275
 ExpMin= 1.22D-01 ExpMax= 2.27D+03 ExpMxC= 3.41D+02 IAcc=3 IRadAn=         5 AccDes= 0.00D+00
 Harris functional with IExCor= 4639 and IRadAn=       5 diagonalized for initial guess.
 HarFok:  IExCor= 4639 AccDes= 0.00D+00 IRadAn=         5 IDoV= 1 UseB2=F ITyADJ=14
 ICtDFT=  3500011 ScaDFX=  1.000000  1.000000  1.000000  1.000000
 FoFCou: FMM=F IPFlag=           0 FMFlag=      100000 FMFlg1=           0
         NFxFlg=           0 DoJE=T BraDBF=F KetDBF=T FulRan=T
         wScrn=  0.000000 ICntrl=       500 IOpCl=  0 I1Cent=   200000004 NGrid=           0
         NMat0=    1 NMatS0=      1 NMatT0=    0 NMatD0=    1 NMtDS0=    0 NMtDT0=    0
 Petite list used in FoFCou.
 Requested convergence on RMS density matrix=1.00D-08 within 128 cycles.
 Requested convergence on MAX density matrix=1.00D-06.
 Requested convergence on             energy=1.00D-06.
 No special actions if energy rises.
 Integral accuracy reduced to 1.0D-05 until final iterations.
 Initial convergence to 1.0D-05 achieved.  Increase integral accuracy.
 SCF Done:  E(RwB97XD) =  -632.519561207     A.U. after   15 cycles
            NFock= 15  Conv=0.53D-08     -V/T= 2.0108

 **********************************************************************

            Population analysis using the SCF Density.

 **********************************************************************

 Orbital symmetries:
       Occupied  (A) (A) (A) (A) (A) (A) (A) (A) (A) (A) (A) (A)
                 (A) (A) (A) (A) (A) (A) (A) (A) (A) (A) (A) (A)
                 (A) (A) (A) (A) (A) (A) (A) (A) (A) (A) (A) (A)
                 (A) (A) (A) (A) (A) (A) (A) (A) (A) (A) (A) (A)
                 (A) (A) (A) (A) (A)
       Virtual   (A) (A) (A) (A) (A) (A) (A) (A) (A) (A) (A) (A)
                 (A) (A) (A) (A) (A) (A) (A) (A) (A) (A) (A) (A)
                 (A) (A) (A) (A) (A) (A) (A) (A) (A) (A) (A) (A)
                 (A) (A) (A) (A) (A) (A) (A) (A) (A) (A) (A) (A)
                 (A) (A) (A) (A) (A) (A) (A) (A) (A) (A) (A) (A)
                 (A) (A) (A) (A) (A) (A) (A) (A) (A) (A) (A) (A)
                 (A) (A) (A) (A) (A) (A) (A) (A) (A) (A) (A) (A)
                 (A) (A) (A) (A) (A) (A) (A) (A) (A) (A) (A) (A)
                 (A) (A) (A) (A) (A) (A) (A) (A) (A) (A) (A) (A)
                 (A) (A) (A) (A) (A) (A) (A) (A) (A) (A) (A) (A)
                 (A) (A) (A) (A) (A) (A) (A) (A) (A) (A) (A) (A)
                 (A) (A) (A) (A) (A) (A) (A) (A) (A) (A) (A) (A)
                 (A) (A) (A) (A) (A) (A) (A) (A) (A) (A) (A) (A)
                 (A) (A) (A) (A) (A) (A) (A) (A) (A) (A) (A) (A)
                 (A) (A) (A) (A) (A) (A) (A) (A) (A) (A) (A) (A)
                 (A) (A) (A) (A) (A) (A) (A) (A) (A) (A) (A) (A)
                 (A) (A) (A) (A) (A) (A) (A) (A) (A) (A) (A) (A)
                 (A) (A) (A) (A) (A) (A) (A) (A) (A) (A) (A) (A)
                 (A) (A) (A) (A) (A) (A)
 The electronic state is 1-A.
 Alpha  occ. eigenvalues --  -19.26738 -14.43525 -10.36475 -10.33173 -10.32925
 Alpha  occ. eigenvalues --  -10.31237 -10.31226 -10.31028 -10.30993 -10.30561
 Alpha  occ. eigenvalues --  -10.30347 -10.30290 -10.30247 -10.30200 -10.30142
 Alpha  occ. eigenvalues --   -1.13099  -1.03566  -0.95611  -0.90935  -0.87995
 Alpha  occ. eigenvalues --   -0.85672  -0.83799  -0.80803  -0.74846  -0.71947
 Alpha  occ. eigenvalues --   -0.69671  -0.69034  -0.67224  -0.62135  -0.60796
 Alpha  occ. eigenvalues --   -0.59290  -0.56514  -0.56041  -0.55349  -0.53715
 Alpha  occ. eigenvalues --   -0.53538  -0.51870  -0.50667  -0.49350  -0.48453
 Alpha  occ. eigenvalues --   -0.48117  -0.47358  -0.45514  -0.44981  -0.43164
 Alpha  occ. eigenvalues --   -0.42269  -0.41665  -0.37679  -0.36126  -0.33355
 Alpha  occ. eigenvalues --   -0.33291  -0.32904  -0.32229
 Alpha virt. eigenvalues --    0.04588   0.05169   0.05874   0.06363   0.11724
 Alpha virt. eigenvalues --    0.14824   0.15333   0.16257   0.18052   0.19293
 Alpha virt. eigenvalues --    0.19612   0.20928   0.20984   0.21687   0.22590
 Alpha virt. eigenvalues --    0.23331   0.23888   0.24156   0.25099   0.27987
 Alpha virt. eigenvalues --    0.29150   0.29964   0.32357   0.35183   0.36107
 Alpha virt. eigenvalues --    0.36997   0.37822   0.38865   0.39477   0.40743
 Alpha virt. eigenvalues --    0.41539   0.41883   0.45652   0.46214   0.47130
 Alpha virt. eigenvalues --    0.48552   0.50465   0.51148   0.51801   0.52691
 Alpha virt. eigenvalues --    0.53383   0.55010   0.55897   0.56750   0.58184
 Alpha virt. eigenvalues --    0.58384   0.58803   0.59967   0.61138   0.61636
 Alpha virt. eigenvalues --    0.62249   0.63725   0.65702   0.66219   0.67414
 Alpha virt. eigenvalues --    0.68177   0.69241   0.69941   0.71358   0.71969
 Alpha virt. eigenvalues --    0.72439   0.73176   0.73632   0.74303   0.75065
 Alpha virt. eigenvalues --    0.75559   0.76214   0.76795   0.77268   0.77666
 Alpha virt. eigenvalues --    0.78400   0.79577   0.81258   0.81527   0.82220
 Alpha virt. eigenvalues --    0.83249   0.83715   0.84714   0.85007   0.87425
 Alpha virt. eigenvalues --    0.88105   0.88407   0.91321   0.91990   0.92888
 Alpha virt. eigenvalues --    0.93560   0.98101   0.99917   1.00536   1.02793
 Alpha virt. eigenvalues --    1.03181   1.06864   1.11177   1.12791   1.14556
 Alpha virt. eigenvalues --    1.16620   1.17385   1.18597   1.22533   1.26391
 Alpha virt. eigenvalues --    1.27861   1.29023   1.30027   1.32905   1.33466
 Alpha virt. eigenvalues --    1.34293   1.35749   1.36191   1.37370   1.38177
 Alpha virt. eigenvalues --    1.40459   1.41678   1.41994   1.43197   1.44695
 Alpha virt. eigenvalues --    1.46461   1.50993   1.51501   1.58365   1.61082
 Alpha virt. eigenvalues --    1.61449   1.64809   1.72276   1.73965   1.74978
 Alpha virt. eigenvalues --    1.76165   1.77335   1.79030   1.79355   1.81249
 Alpha virt. eigenvalues --    1.81652   1.81889   1.83253   1.83732   1.83857
 Alpha virt. eigenvalues --    1.85173   1.85932   1.86898   1.87671   1.88491
 Alpha virt. eigenvalues --    1.89398   1.90216   1.90465   1.92795   1.94164
 Alpha virt. eigenvalues --    1.96131   1.97064   1.98085   1.99495   2.01322
 Alpha virt. eigenvalues --    2.03348   2.03681   2.04828   2.05726   2.06404
 Alpha virt. eigenvalues --    2.07131   2.08064   2.08758   2.11442   2.12059
 Alpha virt. eigenvalues --    2.16833   2.18502   2.19366   2.20669   2.21615
 Alpha virt. eigenvalues --    2.23155   2.23958   2.25755   2.26753   2.28880
 Alpha virt. eigenvalues --    2.31663   2.31992   2.35974   2.38102   2.38837
 Alpha virt. eigenvalues --    2.39065   2.39853   2.41620   2.43400   2.45739
 Alpha virt. eigenvalues --    2.47795   2.49592   2.49881   2.52711   2.55832
 Alpha virt. eigenvalues --    2.58185   2.60995   2.62657   2.65834   2.70233
 Alpha virt. eigenvalues --    2.70881   2.71867   2.72128   2.73315   2.77610
 Alpha virt. eigenvalues --    2.80617   2.81511   2.81605   2.82359   2.91351
 Alpha virt. eigenvalues --    2.91698   2.94418   2.95323   2.96703   2.97887
 Alpha virt. eigenvalues --    2.98471   3.03226   3.04649   3.08345   3.10481
 Alpha virt. eigenvalues --    3.14017   3.16698   3.18337   3.21847   3.23693
 Alpha virt. eigenvalues --    3.26844   3.33810   3.43168   3.47847   3.72367
 Alpha virt. eigenvalues --    3.72716   3.87271
          Condensed to atoms (all electrons):
               1          2          3          4          5          6
     1  O    7.742090   0.366647  -0.055619  -0.018426  -0.000596   0.000009
     2  C    0.366647   4.683750   0.421634  -0.059519  -0.016431   0.000205
     3  C   -0.055619   0.421634   4.787620   0.353460  -0.059632   0.008941
     4  C   -0.018426  -0.059519   0.353460   5.305608   0.338073   0.065286
     5  C   -0.000596  -0.016431  -0.059632   0.338073   5.031458   0.346595
     6  C    0.000009   0.000205   0.008941   0.065286   0.346595   4.991369
     7  C    0.000037   0.000082  -0.000142  -0.139691   0.063178   0.322212
     8  C   -0.000420   0.000321   0.009094   0.068679  -0.115441   0.059128
     9  C    0.020487  -0.004771  -0.083702   0.293484   0.028095  -0.114211
    10  C   -0.085027   0.191684  -0.049398  -0.018091   0.005278  -0.000362
    11  C    0.006441  -0.063093  -0.018977   0.007138  -0.002931   0.001171
    12  C    0.001039   0.013569  -0.000353  -0.000573   0.000709   0.000300
    13  C   -0.000027   0.000012   0.000097   0.000091  -0.000213   0.000013
    14  N   -0.000021   0.005310  -0.000037  -0.000035  -0.000175  -0.000025
    15  C    0.002063  -0.043955  -0.009498  -0.000280   0.000524   0.000013
    16  H    0.322825  -0.027121  -0.000502  -0.003119  -0.000068  -0.000004
    17  H   -0.028399   0.400137  -0.052012   0.011621  -0.000073   0.000008
    18  H   -0.004542  -0.031500   0.376585  -0.020883   0.006521  -0.000455
    19  H    0.004484  -0.000397   0.347246  -0.017139  -0.012410   0.000890
    20  H    0.000024  -0.001900  -0.011842  -0.067997   0.445926  -0.058364
    21  H    0.000000  -0.000013  -0.000227   0.014722  -0.063156   0.446286
    22  H    0.000000   0.000002   0.000016  -0.001461   0.012604  -0.063377
    23  H   -0.000024  -0.000006  -0.000227   0.014916  -0.001678   0.012610
    24  H    0.005706  -0.002366  -0.010695  -0.075457   0.012186  -0.001520
    25  H    0.014658  -0.014344  -0.001522   0.001456  -0.000672   0.000009
    26  H   -0.000018  -0.000141  -0.000004  -0.000023   0.000048  -0.000004
    27  H   -0.000000   0.000064   0.000001  -0.000001   0.000003  -0.000002
    28  H    0.000003  -0.003627  -0.002055   0.000262   0.000064  -0.000002
               7          8          9         10         11         12
     1  O    0.000037  -0.000420   0.020487  -0.085027   0.006441   0.001039
     2  C    0.000082   0.000321  -0.004771   0.191684  -0.063093   0.013569
     3  C   -0.000142   0.009094  -0.083702  -0.049398  -0.018977  -0.000353
     4  C   -0.139691   0.068679   0.293484  -0.018091   0.007138  -0.000573
     5  C    0.063178  -0.115441   0.028095   0.005278  -0.002931   0.000709
     6  C    0.322212   0.059128  -0.114211  -0.000362   0.001171   0.000300
     7  C    5.053033   0.324115   0.063278  -0.000101  -0.000472   0.000040
     8  C    0.324115   4.991651   0.346664   0.000291   0.000196  -0.000071
     9  C    0.063278   0.346664   5.081058  -0.006926   0.001070   0.000221
    10  C   -0.000101   0.000291  -0.006926   5.528928   0.408599   0.006352
    11  C   -0.000472   0.000196   0.001070   0.408599   4.867806   0.408697
    12  C    0.000040  -0.000071   0.000221   0.006352   0.408697   4.975298
    13  C   -0.000006   0.000001  -0.000003  -0.070713  -0.000966   0.434826
    14  N    0.000000  -0.000000   0.000002  -0.038757  -0.048890  -0.037248
    15  C    0.000004  -0.000009   0.000101   0.425267  -0.032768  -0.060883
    16  H   -0.000007   0.000143   0.000912   0.012834  -0.000105  -0.000035
    17  H    0.000002  -0.000002   0.000872  -0.052593   0.010657  -0.000144
    18  H   -0.000012   0.000740  -0.011516   0.013518  -0.000240   0.000004
    19  H    0.000001  -0.000409   0.010941  -0.010458   0.000155   0.000064
    20  H    0.012908  -0.001673   0.012839   0.000815  -0.000836  -0.000090
    21  H   -0.068243   0.012738  -0.001772  -0.000013   0.000047   0.000018
    22  H    0.444100  -0.063544   0.012633  -0.000001  -0.000004  -0.000001
    23  H   -0.067236   0.444797  -0.063561   0.000004  -0.000007  -0.000000
    24  H    0.013330  -0.056878   0.443968  -0.000126   0.000118   0.000010
    25  H    0.000101   0.000451   0.001013  -0.057144   0.445695  -0.055189
    26  H    0.000015  -0.000003  -0.000000   0.012387  -0.057502   0.424178
    27  H   -0.000000  -0.000000   0.000000   0.001121   0.006093  -0.065841
    28  H    0.000000  -0.000000   0.000003  -0.078536   0.005771   0.000848
              13         14         15         16         17         18
     1  O   -0.000027  -0.000021   0.002063   0.322825  -0.028399  -0.004542
     2  C    0.000012   0.005310  -0.043955  -0.027121   0.400137  -0.031500
     3  C    0.000097  -0.000037  -0.009498  -0.000502  -0.052012   0.376585
     4  C    0.000091  -0.000035  -0.000280  -0.003119   0.011621  -0.020883
     5  C   -0.000213  -0.000175   0.000524  -0.000068  -0.000073   0.006521
     6  C    0.000013  -0.000025   0.000013  -0.000004   0.000008  -0.000455
     7  C   -0.000006   0.000000   0.000004  -0.000007   0.000002  -0.000012
     8  C    0.000001  -0.000000  -0.000009   0.000143  -0.000002   0.000740
     9  C   -0.000003   0.000002   0.000101   0.000912   0.000872  -0.011516
    10  C   -0.070713  -0.038757   0.425267   0.012834  -0.052593   0.013518
    11  C   -0.000966  -0.048890  -0.032768  -0.000105   0.010657  -0.000240
    12  C    0.434826  -0.037248  -0.060883  -0.000035  -0.000144   0.000004
    13  C    4.765300   0.523180  -0.066419   0.000004   0.000005  -0.000001
    14  N    0.523180   6.257946   0.548128   0.000004   0.000228   0.000003
    15  C   -0.066419   0.548128   4.782546  -0.000298  -0.003560   0.000121
    16  H    0.000004   0.000004  -0.000298   0.518477  -0.006220   0.004877
    17  H    0.000005   0.000228  -0.003560  -0.006220   0.702694  -0.007558
    18  H   -0.000001   0.000003   0.000121   0.004877  -0.007558   0.664741
    19  H   -0.000044  -0.000101   0.003664   0.000026  -0.002572  -0.022566
    20  H    0.000277   0.000478   0.001581  -0.000004  -0.000006   0.000124
    21  H    0.000016  -0.000001  -0.000001   0.000000  -0.000000   0.000008
    22  H   -0.000000   0.000000  -0.000000  -0.000000   0.000000  -0.000001
    23  H    0.000000  -0.000000  -0.000000   0.000002  -0.000001  -0.000001
    24  H   -0.000000   0.000000   0.000004   0.001333   0.000127   0.003609
    25  H    0.008807  -0.000337   0.009037  -0.000943   0.000806  -0.000088
    26  H   -0.046589   0.005598   0.000104   0.000000   0.000006  -0.000000
    27  H    0.422321  -0.039018   0.004543   0.000000  -0.000000   0.000000
    28  H    0.004847  -0.034925   0.428870  -0.000001   0.005388  -0.000046
              19         20         21         22         23         24
     1  O    0.004484   0.000024   0.000000   0.000000  -0.000024   0.005706
     2  C   -0.000397  -0.001900  -0.000013   0.000002  -0.000006  -0.002366
     3  C    0.347246  -0.011842  -0.000227   0.000016  -0.000227  -0.010695
     4  C   -0.017139  -0.067997   0.014722  -0.001461   0.014916  -0.075457
     5  C   -0.012410   0.445926  -0.063156   0.012604  -0.001678   0.012186
     6  C    0.000890  -0.058364   0.446286  -0.063377   0.012610  -0.001520
     7  C    0.000001   0.012908  -0.068243   0.444100  -0.067236   0.013330
     8  C   -0.000409  -0.001673   0.012738  -0.063544   0.444797  -0.056878
     9  C    0.010941   0.012839  -0.001772   0.012633  -0.063561   0.443968
    10  C   -0.010458   0.000815  -0.000013  -0.000001   0.000004  -0.000126
    11  C    0.000155  -0.000836   0.000047  -0.000004  -0.000007   0.000118
    12  C    0.000064  -0.000090   0.000018  -0.000001  -0.000000   0.000010
    13  C   -0.000044   0.000277   0.000016  -0.000000   0.000000  -0.000000
    14  N   -0.000101   0.000478  -0.000001   0.000000  -0.000000   0.000000
    15  C    0.003664   0.001581  -0.000001  -0.000000  -0.000000   0.000004
    16  H    0.000026  -0.000004   0.000000  -0.000000   0.000002   0.001333
    17  H   -0.002572  -0.000006  -0.000000   0.000000  -0.000001   0.000127
    18  H   -0.022566   0.000124   0.000008  -0.000001  -0.000001   0.003609
    19  H    0.662166   0.004283  -0.000005  -0.000001   0.000006   0.000360
    20  H    0.004283   0.661531  -0.011861  -0.000214   0.000023  -0.000216
    21  H   -0.000005  -0.011861   0.662252  -0.011106  -0.000222   0.000025
    22  H   -0.000001  -0.000214  -0.011106   0.660694  -0.011149  -0.000230
    23  H    0.000006   0.000023  -0.000222  -0.011149   0.665392  -0.012485
    24  H    0.000360  -0.000216   0.000025  -0.000230  -0.012485   0.687600
    25  H   -0.000082  -0.000020  -0.000001  -0.000001   0.000006   0.000045
    26  H    0.000001  -0.000008  -0.000001   0.000000  -0.000000   0.000000
    27  H   -0.000000  -0.000005   0.000000   0.000000   0.000000   0.000000
    28  H    0.001788  -0.000072   0.000000   0.000000   0.000000   0.000000
              25         26         27         28
     1  O    0.014658  -0.000018  -0.000000   0.000003
     2  C   -0.014344  -0.000141   0.000064  -0.003627
     3  C   -0.001522  -0.000004   0.000001  -0.002055
     4  C    0.001456  -0.000023  -0.000001   0.000262
     5  C   -0.000672   0.000048   0.000003   0.000064
     6  C    0.000009  -0.000004  -0.000002  -0.000002
     7  C    0.000101   0.000015  -0.000000   0.000000
     8  C    0.000451  -0.000003  -0.000000  -0.000000
     9  C    0.001013  -0.000000   0.000000   0.000003
    10  C   -0.057144   0.012387   0.001121  -0.078536
    11  C    0.445695  -0.057502   0.006093   0.005771
    12  C   -0.055189   0.424178  -0.065841   0.000848
    13  C    0.008807  -0.046589   0.422321   0.004847
    14  N   -0.000337   0.005598  -0.039018  -0.034925
    15  C    0.009037   0.000104   0.004543   0.428870
    16  H   -0.000943   0.000000   0.000000  -0.000001
    17  H    0.000806   0.000006  -0.000000   0.005388
    18  H   -0.000088  -0.000000   0.000000  -0.000046
    19  H   -0.000082   0.000001  -0.000000   0.001788
    20  H   -0.000020  -0.000008  -0.000005  -0.000072
    21  H   -0.000001  -0.000001   0.000000   0.000000
    22  H   -0.000001   0.000000   0.000000   0.000000
    23  H    0.000006  -0.000000   0.000000   0.000000
    24  H    0.000045   0.000000   0.000000   0.000000
    25  H    0.617457  -0.009609  -0.000222  -0.000206
    26  H   -0.009609   0.649099  -0.006179   0.000065
    27  H   -0.000222  -0.006179   0.643171  -0.000275
    28  H   -0.000206   0.000065  -0.000275   0.650752
 Mulliken charges:
               1
     1  O   -0.293393
     2  C    0.185767
     3  C    0.051751
     4  C   -0.052105
     5  C   -0.017784
     6  C   -0.016723
     7  C   -0.020527
     8  C   -0.020561
     9  C   -0.031181
    10  C   -0.138835
    11  C    0.057138
    12  C   -0.045744
    13  C    0.025184
    14  N   -0.141308
    15  C    0.011099
    16  H    0.176989
    17  H    0.020588
    18  H    0.028559
    19  H    0.030111
    20  H    0.014298
    21  H    0.020510
    22  H    0.021040
    23  H    0.018844
    24  H   -0.008447
    25  H    0.040839
    26  H    0.028579
    27  H    0.034228
    28  H    0.021084
 Sum of Mulliken charges =  -0.00000
 Mulliken charges with hydrogens summed into heavy atoms:
               1
     1  O   -0.116404
     2  C    0.206356
     3  C    0.110421
     4  C   -0.052105
     5  C   -0.003486
     6  C    0.003787
     7  C    0.000513
     8  C   -0.001717
     9  C   -0.039628
    10  C   -0.138835
    11  C    0.097977
    12  C   -0.017165
    13  C    0.059412
    14  N   -0.141308
    15  C    0.032183
 Electronic spatial extent (au):  <R**2>=           2970.9980
 Charge=              0.0000 electrons
 Dipole moment (field-independent basis, Debye):
    X=              2.1139    Y=              1.4591    Z=              0.4120  Tot=              2.6014
 Quadrupole moment (field-independent basis, Debye-Ang):
   XX=            -95.3771   YY=            -74.9294   ZZ=            -88.3458
   XY=              0.8366   XZ=              0.9781   YZ=             -4.4719
 Traceless Quadrupole moment (field-independent basis, Debye-Ang):
   XX=             -9.1597   YY=             11.2880   ZZ=             -2.1283
   XY=              0.8366   XZ=              0.9781   YZ=             -4.4719
 Octapole moment (field-independent basis, Debye-Ang**2):
  XXX=             34.9079  YYY=             27.5485  ZZZ=              5.6009  XYY=              7.1836
  XXY=              3.4181  XXZ=             30.5843  XZZ=              0.9891  YZZ=              1.4616
  YYZ=              3.7027  XYZ=             13.6158
 Hexadecapole moment (field-independent basis, Debye-Ang**3):
 XXXX=          -2589.3040 YYYY=           -941.6311 ZZZZ=           -500.9633 XXXY=            -20.9239
 XXXZ=             18.8661 YYYX=             31.7195 YYYZ=             22.8200 ZZZX=             11.1619
 ZZZY=             -4.2239 XXYY=           -538.0698 XXZZ=           -515.3931 YYZZ=           -263.0429
 XXYZ=            -31.9329 YYXZ=              4.4999 ZZXY=              1.9063
 N-N= 9.453217059496D+02 E-N=-3.358146942243D+03  KE= 6.257803346335D+02
   1 Symmetry operations used in ECPInt.
 ECPInt:  NShTT=    8385 NPrTT=   30369 LenC2=    8129 LenP2D=   21901.
 LDataN:  DoStor=T MaxTD1= 5 Len=  102
 Calling FoFJK, ICntrl=      2127 FMM=F ISym2X=0 I1Cent= 0 IOpClX= 0 NMat=1 NMatS=1 NMatT=0.
 ***** Axes restored to original set *****
 -------------------------------------------------------------------
 Center     Atomic                   Forces (Hartrees/Bohr)
 Number     Number              X              Y              Z
 -------------------------------------------------------------------
      1        8          -0.000002998    0.000003527    0.000005399
      2        6           0.000005806   -0.000003614   -0.000003644
      3        6          -0.000009442   -0.000009084    0.000007988
      4        6           0.000001481    0.000007057    0.000002639
      5        6           0.000000946   -0.000004592   -0.000004181
      6        6          -0.000008123    0.000000269   -0.000006721
      7        6           0.000008588   -0.000004846    0.000005771
      8        6          -0.000001585    0.000006730   -0.000000826
      9        6          -0.000002341   -0.000005662   -0.000001755
     10        6          -0.000015879    0.000000932   -0.000027707
     11        6          -0.000003273   -0.000015080    0.000011418
     12        6           0.000017961    0.000012671    0.000008866
     13        6          -0.000010960    0.000008994   -0.000013412
     14        7          -0.000005251   -0.000020851    0.000013282
     15        6           0.000017381    0.000009750    0.000011766
     16        1           0.000003255    0.000004408   -0.000001976
     17        1           0.000000338   -0.000001617   -0.000001118
     18        1           0.000002348    0.000001894   -0.000008978
     19        1          -0.000000700    0.000000625   -0.000001075
     20        1           0.000000404    0.000000053    0.000002080
     21        1           0.000001297    0.000000620    0.000002459
     22        1          -0.000001392    0.000003712   -0.000000529
     23        1           0.000001134   -0.000000038   -0.000001180
     24        1           0.000001774    0.000003417   -0.000002047
     25        1           0.000002216    0.000002697    0.000000479
     26        1          -0.000001851   -0.000001474    0.000000662
     27        1           0.000002403   -0.000000834    0.000002951
     28        1          -0.000003539    0.000000334   -0.000000612
 -------------------------------------------------------------------
 Cartesian Forces:  Max     0.000027707 RMS     0.000007326

 GradGradGradGradGradGradGradGradGradGradGradGradGradGradGradGradGradGrad
 Berny optimization.
 FormGI is forming the generalized inverse of G from B-inverse, IUseBI=4.
 Internal  Forces:  Max     0.000014433 RMS     0.000003260
 Search for a local minimum.
 Step number   1 out of a maximum of  154
 All quantities printed in internal units (Hartrees-Bohrs-Radians)
 Mixed Optimization -- En-DIIS/RFO-DIIS
 Second derivative matrix not updated -- first step.
 ITU=  0
     Eigenvalues ---    0.00230   0.00636   0.00678   0.01527   0.01528
     Eigenvalues ---    0.01626   0.02107   0.02133   0.02140   0.02157
     Eigenvalues ---    0.02158   0.02166   0.02169   0.02170   0.02173
     Eigenvalues ---    0.02177   0.02188   0.02210   0.02275   0.02316
     Eigenvalues ---    0.02510   0.03972   0.05041   0.05346   0.05422
     Eigenvalues ---    0.07897   0.09410   0.12914   0.15998   0.16000
     Eigenvalues ---    0.16000   0.16000   0.16000   0.16000   0.16000
     Eigenvalues ---    0.16000   0.16000   0.16000   0.17687   0.20127
     Eigenvalues ---    0.21952   0.22000   0.22000   0.22000   0.23200
     Eigenvalues ---    0.23429   0.23456   0.24948   0.24950   0.27802
     Eigenvalues ---    0.31368   0.31691   0.32800   0.33244   0.33567
     Eigenvalues ---    0.33894   0.34174   0.34426   0.34510   0.34543
     Eigenvalues ---    0.34559   0.34561   0.34639   0.34706   0.42076
     Eigenvalues ---    0.42112   0.42423   0.44532   0.44805   0.45930
     Eigenvalues ---    0.46208   0.46318   0.46631   0.46737   0.46768
     Eigenvalues ---    0.55306   0.56999   0.58469
 RFO step:  Lambda= 0.00000000D+00 EMin= 2.30000000D-03
 Linear search not attempted -- first point.
 Iteration  1 RMS(Cart)=  0.00025227 RMS(Int)=  0.00000001
 Iteration  2 RMS(Cart)=  0.00000002 RMS(Int)=  0.00000000
 Variable       Old X    -DE/DX   Delta X   Delta X   Delta X     New X
                                 (Linear)    (Quad)   (Total)
    R1        2.65503   0.00001   0.00000   0.00002   0.00002   2.65505
    R2        1.81561   0.00000   0.00000   0.00001   0.00001   1.81562
    R3        2.92573  -0.00000   0.00000  -0.00002  -0.00002   2.92572
    R4        2.85315   0.00000   0.00000   0.00001   0.00001   2.85316
    R5        2.09403  -0.00000   0.00000  -0.00000  -0.00000   2.09403
    R6        2.84712  -0.00000   0.00000  -0.00001  -0.00001   2.84712
    R7        2.08625   0.00000   0.00000   0.00001   0.00001   2.08626
    R8        2.08067  -0.00000   0.00000  -0.00000  -0.00000   2.08067
    R9        2.64480   0.00000   0.00000   0.00001   0.00001   2.64481
   R10        2.64380  -0.00000   0.00000  -0.00000  -0.00000   2.64379
   R11        2.63282  -0.00000   0.00000  -0.00001  -0.00001   2.63281
   R12        2.06617  -0.00000   0.00000  -0.00001  -0.00001   2.06616
   R13        2.63443   0.00001   0.00000   0.00002   0.00002   2.63445
   R14        2.06394  -0.00000   0.00000  -0.00000  -0.00000   2.06393
   R15        2.63468   0.00000   0.00000   0.00001   0.00001   2.63469
   R16        2.06398  -0.00000   0.00000  -0.00001  -0.00001   2.06397
   R17        2.63340  -0.00000   0.00000  -0.00000  -0.00000   2.63339
   R18        2.06423   0.00000   0.00000   0.00000   0.00000   2.06423
   R19        2.06477   0.00000   0.00000   0.00001   0.00001   2.06478
   R20        2.63543   0.00001   0.00000   0.00003   0.00003   2.63546
   R21        2.64065  -0.00001   0.00000  -0.00003  -0.00003   2.64062
   R22        2.62915  -0.00001   0.00000  -0.00002  -0.00002   2.62913
   R23        2.06155   0.00000   0.00000   0.00000   0.00000   2.06155
   R24        2.63470   0.00001   0.00000   0.00002   0.00002   2.63472
   R25        2.06266   0.00000   0.00000   0.00000   0.00000   2.06266
   R26        2.51613  -0.00001   0.00000  -0.00002  -0.00002   2.51611
   R27        2.07037  -0.00000   0.00000  -0.00000  -0.00000   2.07037
   R28        2.51262   0.00001   0.00000   0.00002   0.00002   2.51264
   R29        2.07510   0.00000   0.00000   0.00001   0.00001   2.07511
    A1        1.89526   0.00000   0.00000   0.00001   0.00001   1.89527
    A2        1.95067   0.00000   0.00000   0.00002   0.00002   1.95069
    A3        1.89095   0.00000   0.00000   0.00002   0.00002   1.89097
    A4        1.92856  -0.00000   0.00000  -0.00002  -0.00002   1.92855
    A5        1.93910  -0.00000   0.00000  -0.00002  -0.00002   1.93908
    A6        1.86913   0.00000   0.00000  -0.00000  -0.00000   1.86913
    A7        1.88459   0.00000   0.00000  -0.00000  -0.00000   1.88459
    A8        1.97875   0.00000   0.00000   0.00001   0.00001   1.97876
    A9        1.88510   0.00000   0.00000   0.00003   0.00003   1.88514
   A10        1.88800  -0.00000   0.00000  -0.00000  -0.00000   1.88800
   A11        1.92569  -0.00000   0.00000   0.00001   0.00001   1.92570
   A12        1.92429   0.00000   0.00000  -0.00001  -0.00001   1.92429
   A13        1.85744  -0.00000   0.00000  -0.00004  -0.00004   1.85739
   A14        2.10508  -0.00001   0.00000  -0.00002  -0.00002   2.10506
   A15        2.10940   0.00001   0.00000   0.00002   0.00002   2.10942
   A16        2.06709   0.00000   0.00000  -0.00000  -0.00000   2.06708
   A17        2.11012   0.00000   0.00000   0.00000   0.00000   2.11012
   A18        2.08386  -0.00000   0.00000  -0.00001  -0.00001   2.08385
   A19        2.08912   0.00000   0.00000   0.00001   0.00001   2.08913
   A20        2.09601  -0.00000   0.00000  -0.00000  -0.00000   2.09601
   A21        2.09006   0.00000   0.00000   0.00001   0.00001   2.09007
   A22        2.09711  -0.00000   0.00000  -0.00001  -0.00001   2.09710
   A23        2.08711  -0.00000   0.00000  -0.00001  -0.00001   2.08711
   A24        2.09830   0.00000   0.00000   0.00000   0.00000   2.09831
   A25        2.09777   0.00000   0.00000   0.00000   0.00000   2.09777
   A26        2.09625   0.00000   0.00000   0.00000   0.00000   2.09625
   A27        2.09592  -0.00000   0.00000  -0.00001  -0.00001   2.09591
   A28        2.09101   0.00000   0.00000   0.00001   0.00001   2.09102
   A29        2.10979   0.00000   0.00000   0.00000   0.00000   2.10980
   A30        2.08682   0.00000   0.00000   0.00000   0.00000   2.08682
   A31        2.08656  -0.00000   0.00000  -0.00000  -0.00000   2.08656
   A32        2.12365  -0.00001   0.00000  -0.00003  -0.00003   2.12361
   A33        2.10519   0.00001   0.00000   0.00003   0.00003   2.10522
   A34        2.05265   0.00000   0.00000   0.00000   0.00000   2.05265
   A35        2.07272  -0.00000   0.00000  -0.00000  -0.00000   2.07272
   A36        2.08719  -0.00000   0.00000  -0.00001  -0.00001   2.08718
   A37        2.12327   0.00000   0.00000   0.00001   0.00001   2.12328
   A38        2.07142  -0.00000   0.00000  -0.00000  -0.00000   2.07142
   A39        2.11152   0.00000   0.00000   0.00003   0.00003   2.11155
   A40        2.10022  -0.00000   0.00000  -0.00003  -0.00003   2.10020
   A41        2.14982   0.00000   0.00000   0.00001   0.00001   2.14983
   A42        2.10035  -0.00000   0.00000  -0.00001  -0.00001   2.10034
   A43        2.03301  -0.00000   0.00000   0.00000   0.00000   2.03301
   A44        2.05351  -0.00000   0.00000  -0.00000  -0.00000   2.05350
   A45        2.16617  -0.00000   0.00000  -0.00000  -0.00000   2.16617
   A46        2.08883   0.00000   0.00000   0.00001   0.00001   2.08884
   A47        2.02818  -0.00000   0.00000  -0.00001  -0.00001   2.02818
    D1        0.98810   0.00000   0.00000  -0.00002  -0.00002   0.98808
    D2        3.13029  -0.00000   0.00000  -0.00002  -0.00002   3.13027
    D3       -1.09152  -0.00000   0.00000  -0.00002  -0.00002  -1.09154
    D4        1.11533   0.00000   0.00000   0.00012   0.00012   1.11545
    D5       -1.02419   0.00000   0.00000   0.00008   0.00008  -1.02411
    D6       -3.02802   0.00000   0.00000   0.00011   0.00011  -3.02791
    D7       -0.99917  -0.00000   0.00000   0.00009   0.00009  -0.99907
    D8       -3.13869  -0.00000   0.00000   0.00006   0.00006  -3.13864
    D9        1.14066  -0.00000   0.00000   0.00009   0.00009   1.14075
   D10       -3.05340   0.00000   0.00000   0.00011   0.00011  -3.05329
   D11        1.09026  -0.00000   0.00000   0.00007   0.00007   1.09033
   D12       -0.91357   0.00000   0.00000   0.00010   0.00010  -0.91347
   D13       -0.46984  -0.00000   0.00000  -0.00024  -0.00024  -0.47008
   D14        2.73593  -0.00000   0.00000  -0.00026  -0.00026   2.73566
   D15        1.67936  -0.00000   0.00000  -0.00021  -0.00021   1.67915
   D16       -1.39807  -0.00000   0.00000  -0.00023  -0.00023  -1.39830
   D17       -2.55901  -0.00000   0.00000  -0.00023  -0.00023  -2.55923
   D18        0.64675  -0.00000   0.00000  -0.00025  -0.00025   0.64651
   D19        1.64306   0.00000   0.00000   0.00020   0.00020   1.64326
   D20       -1.43646   0.00000   0.00000   0.00020   0.00020  -1.43626
   D21       -2.52324   0.00000   0.00000   0.00026   0.00026  -2.52298
   D22        0.68043   0.00000   0.00000   0.00025   0.00025   0.68068
   D23       -0.47654   0.00000   0.00000   0.00021   0.00021  -0.47634
   D24        2.72712   0.00000   0.00000   0.00020   0.00020   2.72733
   D25       -3.08021   0.00000   0.00000   0.00002   0.00002  -3.08019
   D26        0.04725  -0.00000   0.00000  -0.00000  -0.00000   0.04725
   D27        0.00079   0.00000   0.00000   0.00003   0.00003   0.00081
   D28        3.12825   0.00000   0.00000   0.00001   0.00001   3.12825
   D29        3.07911  -0.00000   0.00000  -0.00003  -0.00003   3.07908
   D30       -0.05726  -0.00000   0.00000  -0.00004  -0.00004  -0.05730
   D31       -0.00173  -0.00000   0.00000  -0.00003  -0.00003  -0.00176
   D32       -3.13810  -0.00000   0.00000  -0.00004  -0.00004  -3.13814
   D33        0.00123  -0.00000   0.00000  -0.00000  -0.00000   0.00123
   D34        3.14030  -0.00000   0.00000  -0.00001  -0.00001   3.14029
   D35       -3.12618   0.00000   0.00000   0.00002   0.00002  -3.12616
   D36        0.01288   0.00000   0.00000   0.00001   0.00001   0.01289
   D37       -0.00232  -0.00000   0.00000  -0.00002  -0.00002  -0.00234
   D38       -3.14145  -0.00000   0.00000  -0.00001  -0.00001  -3.14146
   D39       -3.14138  -0.00000   0.00000  -0.00001  -0.00001  -3.14138
   D40        0.00268  -0.00000   0.00000  -0.00000  -0.00000   0.00268
   D41        0.00139   0.00000   0.00000   0.00001   0.00001   0.00140
   D42       -3.13886   0.00000   0.00000   0.00001   0.00001  -3.13885
   D43        3.14052   0.00000   0.00000   0.00000   0.00000   3.14052
   D44        0.00027   0.00000   0.00000   0.00001   0.00001   0.00028
   D45        0.00065   0.00000   0.00000   0.00002   0.00002   0.00067
   D46        3.13703   0.00000   0.00000   0.00003   0.00003   3.13705
   D47        3.14090   0.00000   0.00000   0.00001   0.00001   3.14092
   D48       -0.00591   0.00000   0.00000   0.00002   0.00002  -0.00589
   D49       -3.07277  -0.00000   0.00000   0.00001   0.00001  -3.07276
   D50        0.06442  -0.00000   0.00000  -0.00002  -0.00002   0.06440
   D51        0.00651   0.00000   0.00000   0.00003   0.00003   0.00653
   D52       -3.13948  -0.00000   0.00000  -0.00000  -0.00000  -3.13949
   D53        3.06719   0.00000   0.00000   0.00002   0.00002   3.06721
   D54       -0.07392  -0.00000   0.00000  -0.00005  -0.00005  -0.07397
   D55       -0.01278   0.00000   0.00000   0.00000   0.00000  -0.01277
   D56        3.12930  -0.00000   0.00000  -0.00007  -0.00007   3.12923
   D57        0.00389  -0.00000   0.00000  -0.00005  -0.00005   0.00384
   D58        3.13934  -0.00000   0.00000  -0.00003  -0.00003   3.13931
   D59       -3.13322  -0.00000   0.00000  -0.00002  -0.00002  -3.13323
   D60        0.00224   0.00000   0.00000   0.00000   0.00000   0.00224
   D61       -0.00980   0.00000   0.00000   0.00004   0.00004  -0.00977
   D62        3.13469  -0.00000   0.00000  -0.00003  -0.00003   3.13467
   D63        3.13789   0.00000   0.00000   0.00002   0.00002   3.13790
   D64       -0.00080  -0.00000   0.00000  -0.00005  -0.00005  -0.00085
   D65        0.00422  -0.00000   0.00000  -0.00001  -0.00001   0.00422
   D66       -3.14017   0.00000   0.00000   0.00005   0.00005  -3.14011
   D67        0.00740  -0.00000   0.00000  -0.00001  -0.00001   0.00738
   D68       -3.13466   0.00000   0.00000   0.00006   0.00006  -3.13461
         Item               Value     Threshold  Converged?
 Maximum Force            0.000014     0.000450     YES
 RMS     Force            0.000003     0.000300     YES
 Maximum Displacement     0.000866     0.001800     YES
 RMS     Displacement     0.000252     0.001200     YES
 Predicted change in Energy=-4.713891D-09
 Optimization completed.
    -- Stationary point found.
                           ----------------------------
                           !   Optimized Parameters   !
                           ! (Angstroms and Degrees)  !
 --------------------------                            --------------------------
 ! Name  Definition              Value          Derivative Info.                !
 --------------------------------------------------------------------------------
 ! R1    R(1,2)                  1.405          -DE/DX =    0.0                 !
 ! R2    R(1,16)                 0.9608         -DE/DX =    0.0                 !
 ! R3    R(2,3)                  1.5482         -DE/DX =    0.0                 !
 ! R4    R(2,10)                 1.5098         -DE/DX =    0.0                 !
 ! R5    R(2,17)                 1.1081         -DE/DX =    0.0                 !
 ! R6    R(3,4)                  1.5066         -DE/DX =    0.0                 !
 ! R7    R(3,18)                 1.104          -DE/DX =    0.0                 !
 ! R8    R(3,19)                 1.101          -DE/DX =    0.0                 !
 ! R9    R(4,5)                  1.3996         -DE/DX =    0.0                 !
 ! R10   R(4,9)                  1.399          -DE/DX =    0.0                 !
 ! R11   R(5,6)                  1.3932         -DE/DX =    0.0                 !
 ! R12   R(5,20)                 1.0934         -DE/DX =    0.0                 !
 ! R13   R(6,7)                  1.3941         -DE/DX =    0.0                 !
 ! R14   R(6,21)                 1.0922         -DE/DX =    0.0                 !
 ! R15   R(7,8)                  1.3942         -DE/DX =    0.0                 !
 ! R16   R(7,22)                 1.0922         -DE/DX =    0.0                 !
 ! R17   R(8,9)                  1.3935         -DE/DX =    0.0                 !
 ! R18   R(8,23)                 1.0923         -DE/DX =    0.0                 !
 ! R19   R(9,24)                 1.0926         -DE/DX =    0.0                 !
 ! R20   R(10,11)                1.3946         -DE/DX =    0.0                 !
 ! R21   R(10,15)                1.3974         -DE/DX =    0.0                 !
 ! R22   R(11,12)                1.3913         -DE/DX =    0.0                 !
 ! R23   R(11,25)                1.0909         -DE/DX =    0.0                 !
 ! R24   R(12,13)                1.3942         -DE/DX =    0.0                 !
 ! R25   R(12,26)                1.0915         -DE/DX =    0.0                 !
 ! R26   R(13,14)                1.3315         -DE/DX =    0.0                 !
 ! R27   R(13,27)                1.0956         -DE/DX =    0.0                 !
 ! R28   R(14,15)                1.3296         -DE/DX =    0.0                 !
 ! R29   R(15,28)                1.0981         -DE/DX =    0.0                 !
 ! A1    A(2,1,16)             108.5902         -DE/DX =    0.0                 !
 ! A2    A(1,2,3)              111.7649         -DE/DX =    0.0                 !
 ! A3    A(1,2,10)             108.3436         -DE/DX =    0.0                 !
 ! A4    A(1,2,17)             110.4986         -DE/DX =    0.0                 !
 ! A5    A(3,2,10)             111.1021         -DE/DX =    0.0                 !
 ! A6    A(3,2,17)             107.0935         -DE/DX =    0.0                 !
 ! A7    A(10,2,17)            107.9792         -DE/DX =    0.0                 !
 ! A8    A(2,3,4)              113.3739         -DE/DX =    0.0                 !
 ! A9    A(2,3,18)             108.0085         -DE/DX =    0.0                 !
 ! A10   A(2,3,19)             108.1744         -DE/DX =    0.0                 !
 ! A11   A(4,3,18)             110.3342         -DE/DX =    0.0                 !
 ! A12   A(4,3,19)             110.2538         -DE/DX =    0.0                 !
 ! A13   A(18,3,19)            106.4232         -DE/DX =    0.0                 !
 ! A14   A(3,4,5)              120.6125         -DE/DX =    0.0                 !
 ! A15   A(3,4,9)              120.8595         -DE/DX =    0.0                 !
 ! A16   A(5,4,9)              118.4353         -DE/DX =    0.0                 !
 ! A17   A(4,5,6)              120.9008         -DE/DX =    0.0                 !
 ! A18   A(4,5,20)             119.3964         -DE/DX =    0.0                 !
 ! A19   A(6,5,20)             119.6978         -DE/DX =    0.0                 !
 ! A20   A(5,6,7)              120.0925         -DE/DX =    0.0                 !
 ! A21   A(5,6,21)             119.7519         -DE/DX =    0.0                 !
 ! A22   A(7,6,21)             120.1554         -DE/DX =    0.0                 !
 ! A23   A(6,7,8)              119.5827         -DE/DX =    0.0                 !
 ! A24   A(6,7,22)             120.2239         -DE/DX =    0.0                 !
 ! A25   A(8,7,22)             120.1933         -DE/DX =    0.0                 !
 ! A26   A(7,8,9)              120.1062         -DE/DX =    0.0                 !
 ! A27   A(7,8,23)             120.0877         -DE/DX =    0.0                 !
 ! A28   A(9,8,23)             119.8061         -DE/DX =    0.0                 !
 ! A29   A(4,9,8)              120.8823         -DE/DX =    0.0                 !
 ! A30   A(4,9,24)             119.5658         -DE/DX =    0.0                 !
 ! A31   A(8,9,24)             119.5512         -DE/DX =    0.0                 !
 ! A32   A(2,10,11)            121.6761         -DE/DX =    0.0                 !
 ! A33   A(2,10,15)            120.6184         -DE/DX =    0.0                 !
 ! A34   A(11,10,15)           117.608          -DE/DX =    0.0                 !
 ! A35   A(10,11,12)           118.7581         -DE/DX =    0.0                 !
 ! A36   A(10,11,25)           119.587          -DE/DX =    0.0                 !
 ! A37   A(12,11,25)           121.6543         -DE/DX =    0.0                 !
 ! A38   A(11,12,13)           118.6837         -DE/DX =    0.0                 !
 ! A39   A(11,12,26)           120.9814         -DE/DX =    0.0                 !
 ! A40   A(13,12,26)           120.3339         -DE/DX =    0.0                 !
 ! A41   A(12,13,14)           123.1758         -DE/DX =    0.0                 !
 ! A42   A(12,13,27)           120.3412         -DE/DX =    0.0                 !
 ! A43   A(14,13,27)           116.4828         -DE/DX =    0.0                 !
 ! A44   A(13,14,15)           117.6573         -DE/DX =    0.0                 !
 ! A45   A(10,15,14)           124.1124         -DE/DX =    0.0                 !
 ! A46   A(10,15,28)           119.6813         -DE/DX =    0.0                 !
 ! A47   A(14,15,28)           116.2063         -DE/DX =    0.0                 !
 ! D1    D(16,1,2,3)            56.6141         -DE/DX =    0.0                 !
 ! D2    D(16,1,2,10)          179.3523         -DE/DX =    0.0                 !
 ! D3    D(16,1,2,17)          -62.5396         -DE/DX =    0.0                 !
 ! D4    D(1,2,3,4)             63.9039         -DE/DX =    0.0                 !
 ! D5    D(1,2,3,18)           -58.6819         -DE/DX =    0.0                 !
 ! D6    D(1,2,3,19)          -173.4929         -DE/DX =    0.0                 !
 ! D7    D(10,2,3,4)           -57.248          -DE/DX =    0.0                 !
 ! D8    D(10,2,3,18)         -179.8338         -DE/DX =    0.0                 !
 ! D9    D(10,2,3,19)           65.3551         -DE/DX =    0.0                 !
 ! D10   D(17,2,3,4)          -174.9468         -DE/DX =    0.0                 !
 ! D11   D(17,2,3,18)           62.4673         -DE/DX =    0.0                 !
 ! D12   D(17,2,3,19)          -52.3437         -DE/DX =    0.0                 !
 ! D13   D(1,2,10,11)          -26.9196         -DE/DX =    0.0                 !
 ! D14   D(1,2,10,15)          156.757          -DE/DX =    0.0                 !
 ! D15   D(3,2,10,11)           96.2201         -DE/DX =    0.0                 !
 ! D16   D(3,2,10,15)          -80.1033         -DE/DX =    0.0                 !
 ! D17   D(17,2,10,11)        -146.6203         -DE/DX =    0.0                 !
 ! D18   D(17,2,10,15)          37.0563         -DE/DX =    0.0                 !
 ! D19   D(2,3,4,5)             94.1405         -DE/DX =    0.0                 !
 ! D20   D(2,3,4,9)            -82.3029         -DE/DX =    0.0                 !
 ! D21   D(18,3,4,5)          -144.5709         -DE/DX =    0.0                 !
 ! D22   D(18,3,4,9)            38.9857         -DE/DX =    0.0                 !
 ! D23   D(19,3,4,5)           -27.3038         -DE/DX =    0.0                 !
 ! D24   D(19,3,4,9)           156.2528         -DE/DX =    0.0                 !
 ! D25   D(3,4,5,6)           -176.483          -DE/DX =    0.0                 !
 ! D26   D(3,4,5,20)             2.7072         -DE/DX =    0.0                 !
 ! D27   D(9,4,5,6)              0.0452         -DE/DX =    0.0                 !
 ! D28   D(9,4,5,20)           179.2353         -DE/DX =    0.0                 !
 ! D29   D(3,4,9,8)            176.4201         -DE/DX =    0.0                 !
 ! D30   D(3,4,9,24)            -3.2808         -DE/DX =    0.0                 !
 ! D31   D(5,4,9,8)             -0.0991         -DE/DX =    0.0                 !
 ! D32   D(5,4,9,24)          -179.8            -DE/DX =    0.0                 !
 ! D33   D(4,5,6,7)              0.0706         -DE/DX =    0.0                 !
 ! D34   D(4,5,6,21)           179.9259         -DE/DX =    0.0                 !
 ! D35   D(20,5,6,7)          -179.1171         -DE/DX =    0.0                 !
 ! D36   D(20,5,6,21)            0.7382         -DE/DX =    0.0                 !
 ! D37   D(5,6,7,8)             -0.133          -DE/DX =    0.0                 !
 ! D38   D(5,6,7,22)          -179.9918         -DE/DX =    0.0                 !
 ! D39   D(21,6,7,8)          -179.9877         -DE/DX =    0.0                 !
 ! D40   D(21,6,7,22)            0.1536         -DE/DX =    0.0                 !
 ! D41   D(6,7,8,9)              0.0796         -DE/DX =    0.0                 !
 ! D42   D(6,7,8,23)          -179.8433         -DE/DX =    0.0                 !
 ! D43   D(22,7,8,9)           179.9384         -DE/DX =    0.0                 !
 ! D44   D(22,7,8,23)            0.0155         -DE/DX =    0.0                 !
 ! D45   D(7,8,9,4)              0.0375         -DE/DX =    0.0                 !
 ! D46   D(7,8,9,24)           179.7384         -DE/DX =    0.0                 !
 ! D47   D(23,8,9,4)           179.9606         -DE/DX =    0.0                 !
 ! D48   D(23,8,9,24)           -0.3385         -DE/DX =    0.0                 !
 ! D49   D(2,10,11,12)        -176.0569         -DE/DX =    0.0                 !
 ! D50   D(2,10,11,25)           3.6912         -DE/DX =    0.0                 !
 ! D51   D(15,10,11,12)          0.3727         -DE/DX =    0.0                 !
 ! D52   D(15,10,11,25)       -179.8792         -DE/DX =    0.0                 !
 ! D53   D(2,10,15,14)         175.7372         -DE/DX =    0.0                 !
 ! D54   D(2,10,15,28)          -4.2353         -DE/DX =    0.0                 !
 ! D55   D(11,10,15,14)         -0.732          -DE/DX =    0.0                 !
 ! D56   D(11,10,15,28)        179.2955         -DE/DX =    0.0                 !
 ! D57   D(10,11,12,13)          0.2226         -DE/DX =    0.0                 !
 ! D58   D(10,11,12,26)        179.871          -DE/DX =    0.0                 !
 ! D59   D(25,11,12,13)       -179.52           -DE/DX =    0.0                 !
 ! D60   D(25,11,12,26)          0.1284         -DE/DX =    0.0                 !
 ! D61   D(11,12,13,14)         -0.5615         -DE/DX =    0.0                 !
 ! D62   D(11,12,13,27)        179.6047         -DE/DX =    0.0                 !
 ! D63   D(26,12,13,14)        179.7877         -DE/DX =    0.0                 !
 ! D64   D(26,12,13,27)         -0.0461         -DE/DX =    0.0                 !
 ! D65   D(12,13,14,15)          0.242          -DE/DX =    0.0                 !
 ! D66   D(27,13,14,15)       -179.9182         -DE/DX =    0.0                 !
 ! D67   D(13,14,15,10)          0.4237         -DE/DX =    0.0                 !
 ! D68   D(13,14,15,28)       -179.6029         -DE/DX =    0.0                 !
 --------------------------------------------------------------------------------
 GradGradGradGradGradGradGradGradGradGradGradGradGradGradGradGradGradGrad

                          Input orientation:                          
 ---------------------------------------------------------------------
 Center     Atomic      Atomic             Coordinates (Angstroms)
 Number     Number       Type             X           Y           Z
 ---------------------------------------------------------------------
      1          8           0       -0.148000    2.312850    1.141530
      2          6           0       -0.622180    1.887030   -0.110590
      3          6           0        0.536410    1.613160   -1.100380
      4          6           0        1.434840    0.482550   -0.670860
      5          6           0        1.214440   -0.818980   -1.135870
      6          6           0        1.995870   -1.881270   -0.686440
      7          6           0        3.013230   -1.657650    0.240080
      8          6           0        3.244120   -0.365610    0.710350
      9          6           0        2.460490    0.693750    0.256900
[...]
     2  C    0.324209   4.836864   0.299462   0.002515  -0.008577   0.002590
     3  C   -0.019136   0.299462   5.235061   0.190726  -0.068589   0.012277
     4  C   -0.079039   0.002515   0.190726   5.183176   0.396768   0.028590
     5  C   -0.004018  -0.008577  -0.068589   0.396768   5.160396   0.392121
     6  C    0.000311   0.002590   0.012277   0.028590   0.392121   4.948773
     7  C    0.000253  -0.000883  -0.003068  -0.101129   0.038900   0.429597
     8  C   -0.000425   0.003635   0.008602   0.016803  -0.074965   0.016883
     9  C    0.049455  -0.010824  -0.037921   0.272564   0.002330  -0.075116
    10  C   -0.083353   0.153578  -0.010878   0.013657   0.003432  -0.000364
    11  C    0.007088  -0.059762  -0.014242   0.012224  -0.012724   0.000990
    12  C   -0.000564   0.005567   0.001633   0.001255  -0.000306   0.001077
    13  C    0.000125  -0.002339  -0.000035   0.000914  -0.000479   0.000379
    14  N   -0.000226   0.007767   0.000217   0.000088  -0.000647  -0.000148
    15  C   -0.000832  -0.007068  -0.000117  -0.009589   0.004277  -0.000945
    16  H    0.293926  -0.036681   0.009363  -0.006738  -0.000965   0.000053
    17  H   -0.037245   0.452681  -0.084383   0.005360  -0.000021  -0.000041
    18  H   -0.009402  -0.053916   0.427736  -0.042918   0.001729  -0.000862
    19  H    0.005428  -0.025855   0.409664  -0.054351  -0.007487   0.001476
    20  H   -0.000029  -0.003856  -0.001147  -0.065666   0.442346  -0.044516
    21  H   -0.000001   0.000030  -0.000138   0.013105  -0.056405   0.444177
    22  H   -0.000002   0.000003   0.000008  -0.002985   0.011266  -0.056190
    23  H   -0.000147   0.000053  -0.000449   0.016250  -0.003143   0.010377
    24  H    0.007073  -0.006776   0.011464  -0.093873   0.008052  -0.002815
    25  H    0.012366  -0.006548  -0.002326  -0.000445  -0.002891   0.000377
    26  H   -0.000065   0.000161   0.000016  -0.000009  -0.000111   0.000050
    27  H   -0.000002   0.000098   0.000009   0.000000   0.000041  -0.000004
    28  H   -0.000011   0.007224  -0.001972  -0.000178   0.000332  -0.000023
               7          8          9         10         11         12
     1  O    0.000253  -0.000425   0.049455  -0.083353   0.007088  -0.000564
     2  C   -0.000883   0.003635  -0.010824   0.153578  -0.059762   0.005567
     3  C   -0.003068   0.008602  -0.037921  -0.010878  -0.014242   0.001633
     4  C   -0.101129   0.016803   0.272564   0.013657   0.012224   0.001255
     5  C    0.038900  -0.074965   0.002330   0.003432  -0.012724  -0.000306
     6  C    0.429597   0.016883  -0.075116  -0.000364   0.000990   0.001077
     7  C    4.945321   0.437055   0.038930   0.000113  -0.000681   0.000133
     8  C    0.437055   4.918511   0.431131   0.000090   0.000653   0.000051
     9  C    0.038930   0.431131   5.177286  -0.014617  -0.000725  -0.001774
    10  C    0.000113   0.000090  -0.014617   5.304916   0.428073  -0.021052
    11  C   -0.000681   0.000653  -0.000725   0.428073   5.074805   0.440725
    12  C    0.000133   0.000051  -0.001774  -0.021052   0.440725   4.912940
    13  C   -0.000011   0.000004  -0.000082  -0.046306   0.022877   0.486687
    14  N   -0.000019   0.000011  -0.000038  -0.038591  -0.077199  -0.036664
    15  C    0.000167  -0.000291   0.002452   0.362729  -0.001180  -0.023202
    16  H   -0.000054   0.000320   0.000924   0.017526  -0.002099   0.000045
    17  H    0.000037  -0.000105   0.004402  -0.079348   0.007798  -0.000691
    18  H    0.000140  -0.000019  -0.005793   0.013670  -0.000229   0.000034
    19  H   -0.000062  -0.000189   0.011086  -0.005623   0.001418  -0.000356
    20  H    0.009858  -0.003423   0.011171  -0.001243  -0.001819  -0.000495
    21  H   -0.057280   0.010622  -0.003618   0.000010  -0.000116   0.000126
    22  H    0.441699  -0.055075   0.010514   0.000010  -0.000019  -0.000001
    23  H   -0.057499   0.443447  -0.059927   0.000004  -0.000012   0.000004
    24  H    0.010239  -0.039338   0.450287  -0.000365  -0.000208  -0.000016
    25  H    0.000189   0.000467   0.000461  -0.039878   0.440225  -0.052256
    26  H   -0.000008   0.000030  -0.000039   0.013007  -0.067147   0.428862
    27  H   -0.000002   0.000000  -0.000001   0.000662   0.000699  -0.062104
    28  H    0.000002  -0.000003   0.000034  -0.100113   0.004730  -0.000255
              13         14         15         16         17         18
     1  O    0.000125  -0.000226  -0.000832   0.293926  -0.037245  -0.009402
     2  C   -0.002339   0.007767  -0.007068  -0.036681   0.452681  -0.053916
     3  C   -0.000035   0.000217  -0.000117   0.009363  -0.084383   0.427736
     4  C    0.000914   0.000088  -0.009589  -0.006738   0.005360  -0.042918
     5  C   -0.000479  -0.000647   0.004277  -0.000965  -0.000021   0.001729
     6  C    0.000379  -0.000148  -0.000945   0.000053  -0.000041  -0.000862
     7  C   -0.000011  -0.000019   0.000167  -0.000054   0.000037   0.000140
     8  C    0.000004   0.000011  -0.000291   0.000320  -0.000105  -0.000019
     9  C   -0.000082  -0.000038   0.002452   0.000924   0.004402  -0.005793
    10  C   -0.046306  -0.038591   0.362729   0.017526  -0.079348   0.013670
    11  C    0.022877  -0.077199  -0.001180  -0.002099   0.007798  -0.000229
    12  C    0.486687  -0.036664  -0.023202   0.000045  -0.000691   0.000034
    13  C    4.774182   0.501412  -0.102377  -0.000004  -0.000164  -0.000011
    14  N    0.501412   6.433778   0.518294   0.000033   0.000050   0.000001
    15  C   -0.102377   0.518294   4.919017  -0.000858   0.012427  -0.000262
    16  H   -0.000004   0.000033  -0.000858   0.417736  -0.006926   0.001768
    17  H   -0.000164   0.000050   0.012427  -0.006926   0.636676  -0.005823
    18  H   -0.000011   0.000001  -0.000262   0.001768  -0.005823   0.551922
    19  H    0.000085   0.000106  -0.001641   0.000662   0.002968  -0.014466
    20  H    0.000687   0.000736  -0.000664  -0.000015   0.000002   0.000165
    21  H    0.000036   0.000007  -0.000061   0.000000  -0.000002   0.000010
    22  H   -0.000002   0.000000   0.000001  -0.000000   0.000000  -0.000000
    23  H    0.000000   0.000000  -0.000002  -0.000002  -0.000003  -0.000002
    24  H   -0.000001   0.000000   0.000058   0.000942   0.000276  -0.000768
    25  H    0.004998  -0.001939   0.006423  -0.001052   0.001010  -0.000114
    26  H   -0.040953   0.007832  -0.002001   0.000002   0.000012  -0.000001
    27  H    0.429930  -0.028311   0.002696   0.000000  -0.000001   0.000000
    28  H    0.004939  -0.027165   0.452195  -0.000025   0.003569  -0.000042
              19         20         21         22         23         24
     1  O    0.005428  -0.000029  -0.000001  -0.000002  -0.000147   0.007073
     2  C   -0.025855  -0.003856   0.000030   0.000003   0.000053  -0.006776
     3  C    0.409664  -0.001147  -0.000138   0.000008  -0.000449   0.011464
     4  C   -0.054351  -0.065666   0.013105  -0.002985   0.016250  -0.093873
     5  C   -0.007487   0.442346  -0.056405   0.011266  -0.003143   0.008052
     6  C    0.001476  -0.044516   0.444177  -0.056190   0.010377  -0.002815
     7  C   -0.000062   0.009858  -0.057280   0.441699  -0.057499   0.010239
     8  C   -0.000189  -0.003423   0.010622  -0.055075   0.443447  -0.039338
     9  C    0.011086   0.011171  -0.003618   0.010514  -0.059927   0.450287
    10  C   -0.005623  -0.001243   0.000010   0.000010   0.000004  -0.000365
    11  C    0.001418  -0.001819  -0.000116  -0.000019  -0.000012  -0.000208
    12  C   -0.000356  -0.000495   0.000126  -0.000001   0.000004  -0.000016
    13  C    0.000085   0.000687   0.000036  -0.000002   0.000000  -0.000001
    14  N    0.000106   0.000736   0.000007   0.000000   0.000000   0.000000
    15  C   -0.001641  -0.000664  -0.000061   0.000001  -0.000002   0.000058
    16  H    0.000662  -0.000015   0.000000  -0.000000  -0.000002   0.000942
    17  H    0.002968   0.000002  -0.000002   0.000000  -0.000003   0.000276
    18  H   -0.014466   0.000165   0.000010  -0.000000  -0.000002  -0.000768
    19  H    0.539941   0.000415  -0.000039  -0.000004  -0.000001   0.000728
    20  H    0.000415   0.530533  -0.006694  -0.000121   0.000037  -0.000109
    21  H   -0.000039  -0.006694   0.543207  -0.007009  -0.000123   0.000040
    22  H   -0.000004  -0.000121  -0.007009   0.545357  -0.006877  -0.000189
    23  H   -0.000001   0.000037  -0.000123  -0.006877   0.548561  -0.008171
    24  H    0.000728  -0.000109   0.000040  -0.000189  -0.008171   0.567532
    25  H   -0.000088  -0.000009  -0.000006  -0.000003  -0.000019  -0.000023
    26  H    0.000003  -0.000041   0.000006   0.000000   0.000000  -0.000000
    27  H   -0.000000  -0.000023   0.000001  -0.000000   0.000000   0.000000
    28  H    0.001144  -0.000203  -0.000001   0.000000  -0.000000   0.000000
              25         26         27         28
     1  O    0.012366  -0.000065  -0.000002  -0.000011
     2  C   -0.006548   0.000161   0.000098   0.007224
     3  C   -0.002326   0.000016   0.000009  -0.001972
     4  C   -0.000445  -0.000009   0.000000  -0.000178
     5  C   -0.002891  -0.000111   0.000041   0.000332
     6  C    0.000377   0.000050  -0.000004  -0.000023
     7  C    0.000189  -0.000008  -0.000002   0.000002
     8  C    0.000467   0.000030   0.000000  -0.000003
     9  C    0.000461  -0.000039  -0.000001   0.000034
    10  C   -0.039878   0.013007   0.000662  -0.100113
    11  C    0.440225  -0.067147   0.000699   0.004730
    12  C   -0.052256   0.428862  -0.062104  -0.000255
    13  C    0.004998  -0.040953   0.429930   0.004939
    14  N   -0.001939   0.007832  -0.028311  -0.027165
    15  C    0.006423  -0.002001   0.002696   0.452195
    16  H   -0.001052   0.000002   0.000000  -0.000025
    17  H    0.001010   0.000012  -0.000001   0.003569
    18  H   -0.000114  -0.000001   0.000000  -0.000042
    19  H   -0.000088   0.000003  -0.000000   0.001144
    20  H   -0.000009  -0.000041  -0.000023  -0.000203
    21  H   -0.000006   0.000006   0.000001  -0.000001
    22  H   -0.000003   0.000000  -0.000000   0.000000
    23  H   -0.000019   0.000000   0.000000  -0.000000
    24  H   -0.000023  -0.000000   0.000000   0.000000
    25  H    0.489556  -0.006062  -0.000192  -0.000133
    26  H   -0.006062   0.541781  -0.001765   0.000098
    27  H   -0.000192  -0.001765   0.531698  -0.000166
    28  H   -0.000133   0.000098  -0.000166   0.533898
 Mulliken charges:
               1
     1  O   -0.454895
     2  C    0.126648
     3  C   -0.361835
     4  C    0.302926
     5  C   -0.220663
     6  C   -0.109075
     7  C   -0.131937
     8  C   -0.114480
     9  C   -0.252553
    10  C    0.130255
    11  C   -0.204143
    12  C   -0.079405
    13  C   -0.034489
    14  N   -0.259384
    15  C   -0.129647
    16  H    0.312121
    17  H    0.087487
    18  H    0.137456
    19  H    0.135039
    20  H    0.134124
    21  H    0.120117
    22  H    0.119617
    23  H    0.117642
    24  H    0.095963
    25  H    0.157912
    26  H    0.126340
    27  H    0.126735
    28  H    0.122124
 Sum of Mulliken charges =  -0.00000
 Mulliken charges with hydrogens summed into heavy atoms:
               1
     1  O   -0.142774
     2  C    0.214135
     3  C   -0.089340
     4  C    0.302926
     5  C   -0.086539
     6  C    0.011042
     7  C   -0.012320
     8  C    0.003162
     9  C   -0.156590
    10  C    0.130255
    11  C   -0.046231
    12  C    0.046936
    13  C    0.092246
    14  N   -0.259384
    15  C   -0.007523
 Electronic spatial extent (au):  <R**2>=           2971.9960
 Charge=              0.0000 electrons
 Dipole moment (field-independent basis, Debye):
    X=              2.1509    Y=              1.4090    Z=              0.4098  Tot=              2.6038
 Quadrupole moment (field-independent basis, Debye-Ang):
   XX=            -96.0576   YY=            -75.1842   ZZ=            -88.7528
   XY=              0.9845   XZ=              1.1802   YZ=             -4.8079
 Traceless Quadrupole moment (field-independent basis, Debye-Ang):
   XX=             -9.3927   YY=             11.4807   ZZ=             -2.0879
   XY=              0.9845   XZ=              1.1802   YZ=             -4.8079
 Octapole moment (field-independent basis, Debye-Ang**2):
  XXX=             36.3488  YYY=             25.8239  ZZZ=              5.2188  XYY=              7.3528
  XXY=              2.8372  XXZ=             31.7352  XZZ=              1.2795  YZZ=              1.4316
  YYZ=              3.3409  XYZ=             14.2378
 Hexadecapole moment (field-independent basis, Debye-Ang**3):
 XXXX=          -2618.4302 YYYY=           -951.2758 ZZZZ=           -510.4268 XXXY=            -20.4314
 XXXZ=             22.3785 YYYX=             33.6347 YYYZ=             19.9151 ZZZX=             11.3518
 ZZZY=             -7.5450 XXYY=           -538.3995 XXZZ=           -521.5843 YYZZ=           -267.1447
 XXYZ=            -35.1011 YYXZ=              4.6463 ZZXY=              2.1087
 N-N= 9.453217059496D+02 E-N=-3.363466778105D+03  KE= 6.298109402092D+02
 Breneman (CHELPG) radii used.
 Read replacement radii for each type of atom:
 Atom Element Radius
    1     8    1.70
    2     6    1.50
    3     6    1.50
    4     6    1.50
    5     6    1.50
    6     6    1.50
    7     6    1.50
    8     6    1.50
    9     6    1.50
   10     6    1.50
   11     6    1.50
   12     6    1.50
   13     6    1.50
   14     7    1.70
   15     6    1.50
   16     1    1.45
   17     1    1.45
   18     1    1.45
   19     1    1.45
   20     1    1.45
   21     1    1.45
   22     1    1.45
   23     1    1.45
   24     1    1.45
   25     1    1.45
   26     1    1.45
   27     1    1.45
   28     1    1.45
 Generate Potential Derived Charges using the Breneman model, NDens= 1.
 Grid spacing= 0.300 Box extension= 2.800
 NStep X,Y,Z=   45     40     34   Total possible points=       61200
 Number of Points to Fit=   16820

 **********************************************************************

            Electrostatic Properties Using The SCF Density.

 **********************************************************************

       Atomic Center    1 is at  -0.148001  2.312850  1.141531
       Atomic Center    2 is at  -0.622181  1.887030 -0.110589
       Atomic Center    3 is at   0.536409  1.613160 -1.100379
       Atomic Center    4 is at   1.434839  0.482551 -0.670859
       Atomic Center    5 is at   1.214440 -0.818980 -1.135869
       Atomic Center    6 is at   1.995870 -1.881269 -0.686439
       Atomic Center    7 is at   3.013230 -1.657649  0.240081
       Atomic Center    8 is at   3.244120 -0.365609  0.710351
       Atomic Center    9 is at   2.460489  0.693751  0.256901
       Atomic Center   10 is at  -1.464601  0.651150  0.095561
       Atomic Center   11 is at  -1.256310 -0.205200  1.176401
       Atomic Center   12 is at  -2.011980 -1.370191  1.262691
       Atomic Center   13 is at  -2.945100 -1.638221  0.262041
       Atomic Center   14 is at  -3.158480 -0.826471 -0.771579
       Atomic Center   15 is at  -2.435590  0.287299 -0.841159
       Atomic Center   16 is at   0.397109  3.093560  1.013281
       Atomic Center   17 is at  -1.263961  2.666070 -0.567899
       Atomic Center   18 is at   1.118319  2.544810 -1.210889
       Atomic Center   19 is at   0.100539  1.399300 -2.088599
       Atomic Center   20 is at   0.408860 -1.003950 -1.851609
       Atomic Center   21 is at   1.806740 -2.889669 -1.060919
       Atomic Center   22 is at   3.627210 -2.488829  0.593761
       Atomic Center   23 is at   4.040760 -0.180609  1.434471
       Atomic Center   24 is at   2.646519  1.701961  0.634721
       Atomic Center   25 is at  -0.507440  0.048440  1.928051
       Atomic Center   26 is at  -1.877320 -2.067130  2.091871
       Atomic Center   27 is at  -3.550110 -2.550841  0.299561
       Atomic Center   28 is at  -2.635671  0.942449 -1.699389
   16820 points will be used for fitting atomic charges
 Fitting point charges to electrostatic potential
 Charges from ESP fit, RMS=   0.00392 RRMS=   0.27521:
 ESP charges:
               1
     1  O   -0.729296
     2  C    0.520133
     3  C   -0.134758
     4  C    0.130784
     5  C   -0.161260
     6  C   -0.106725
     7  C   -0.095561
     8  C   -0.086564
     9  C   -0.145502
    10  C   -0.203350
    11  C    0.199038
    12  C   -0.422051
    13  C    0.426319
    14  N   -0.622312
    15  C    0.316209
    16  H    0.437687
    17  H   -0.080830
    18  H    0.008625
    19  H    0.025745
    20  H    0.105783
    21  H    0.098751
    22  H    0.092294
    23  H    0.089958
    24  H    0.091018
    25  H    0.070693
    26  H    0.138901
    27  H    0.008934
    28  H    0.027338
 Sum of ESP charges =   0.00000
 ESP charges with hydrogens summed into heavy atoms:
               1
     1  O   -0.291609
     2  C    0.439303
     3  C   -0.100388
     4  C    0.130784
     5  C   -0.055478
     6  C   -0.007974
     7  C   -0.003267
     8  C    0.003394
     9  C   -0.054484
    10  C   -0.203350
    11  C    0.269731
    12  C   -0.283150
    13  C    0.435252
    14  N   -0.622312
    15  C    0.343547
 Charge=   0.00000 Dipole=     2.1589     1.4765     0.2981 Tot=     2.6325
 -----------------------------------------------------------------

              Electrostatic Properties (Atomic Units)

 -----------------------------------------------------------------
    Center     Electric         -------- Electric Field --------
               Potential          X             Y             Z
 -----------------------------------------------------------------
    1 Atom    -22.346237
    2 Atom    -14.696228
    3 Atom    -14.753773
    4 Atom    -14.758534
    5 Atom    -14.770278
    6 Atom    -14.769069
    7 Atom    -14.769215
    8 Atom    -14.768043
    9 Atom    -14.768642
   10 Atom    -14.758808
   11 Atom    -14.759889
   12 Atom    -14.765868
   13 Atom    -14.742024
   14 Atom    -18.403952
   15 Atom    -14.739530
   16 Atom     -0.991251
   17 Atom     -1.111294
   18 Atom     -1.103279
   19 Atom     -1.104790
   20 Atom     -1.107827
   21 Atom     -1.107651
   22 Atom     -1.106949
   23 Atom     -1.106218
   24 Atom     -1.105104
   25 Atom     -1.103910
   26 Atom     -1.100171
   27 Atom     -1.111047
   28 Atom     -1.105733
 -----------------------------------------------------------------
 Unable to Open any file for archive entry.
 1\1\GINC-NOTCH404\SP\RwB97XD\def2TZVP\C13H13N1O1\U6053008\12-Jul-2024\
 0\\#N Guess=Read Geom=Check Integral(Ultrafine) Density Pop=(ChelpG,Re
 adRadii) NMR wB97XD def2TZVP\\12365813_11\\0,1\O,0,-0.148,2.31285,1.14
 153\C,0,-0.62218,1.88703,-0.11059\C,0,0.53641,1.61316,-1.10038\C,0,1.4
 3484,0.48255,-0.67086\C,0,1.21444,-0.81898,-1.13587\C,0,1.99587,-1.881
 27,-0.68644\C,0,3.01323,-1.65765,0.24008\C,0,3.24412,-0.36561,0.71035\
 C,0,2.46049,0.69375,0.2569\C,0,-1.4646,0.65115,0.09556\C,0,-1.25631,-0
 .2052,1.1764\C,0,-2.01198,-1.37019,1.26269\C,0,-2.9451,-1.63822,0.2620
 4\N,0,-3.15848,-0.82647,-0.77158\C,0,-2.43559,0.2873,-0.84116\H,0,0.39
 711,3.09356,1.01328\H,0,-1.26396,2.66607,-0.5679\H,0,1.11832,2.54481,-
 1.21089\H,0,0.10054,1.3993,-2.0886\H,0,0.40886,-1.00395,-1.85161\H,0,1
 .80674,-2.88967,-1.06092\H,0,3.62721,-2.48883,0.59376\H,0,4.04076,-0.1
 8061,1.43447\H,0,2.64652,1.70196,0.63472\H,0,-0.50744,0.04844,1.92805\
 H,0,-1.87732,-2.06713,2.09187\H,0,-3.55011,-2.55084,0.29956\H,0,-2.635
 67,0.94245,-1.69939\\Version=ES64L-G16RevC.01\State=1-A\HF=-633.195620
 4\RMSD=2.433e-09\Dipole=0.8462376,0.5543459,0.1612404\Quadrupole=-6.98
 32603,8.5355957,-1.5523355,0.7319721,0.8774198,-3.5745888\PG=C01 [X(C1
 3H13N1O1)]\\@
 The archive entry for this job was punched.


 Cherishing children is the mark of a civilized society.
 -- Joan Ganz Cooney
 Job cpu time:       0 days  1 hours  6 minutes  8.6 seconds.
 Elapsed time:       0 days  0 hours  4 minutes 19.5 seconds.
 File lengths (MBytes):  RWF=    183 Int=      0 D2E=      0 Chk=     27 Scr=      2
 Normal termination of Gaussian 16 at Fri Jul 12 13:32:52 2024.
