 Entering Gaussian System, Link 0=g16
 Input=12365813_17.com
 Output=12365813_17.log
 Initial command:
 /uufs/chpc.utah.edu/sys/installdir/gaussian16/C01/AVX/g16/l1.exe "/scratch/general/vast/u6053008/1287171-notchpeak.peaks/Gau-3356333.inp" -scrdir="/scratch/general/vast/u6053008/1287171-notchpeak.peaks/"
 Entering Link 1 = /uufs/chpc.utah.edu/sys/installdir/gaussian16/C01/AVX/g16/l1.exe PID=   3356334.
  
 Copyright (c) 1988-2019, Gaussian, Inc.  All Rights Reserved.
  
 This is part of the Gaussian(R) 16 program.  It is based on
 the Gaussian(R) 09 system (copyright 2009, Gaussian, Inc.),
 the Gaussian(R) 03 system (copyright 2003, Gaussian, Inc.),
 the Gaussian(R) 98 system (copyright 1998, Gaussian, Inc.),
 the Gaussian(R) 94 system (copyright 1995, Gaussian, Inc.),
 the Gaussian 92(TM) system (copyright 1992, Gaussian, Inc.),
 the Gaussian 90(TM) system (copyright 1990, Gaussian, Inc.),
 the Gaussian 88(TM) system (copyright 1988, Gaussian, Inc.),
 the Gaussian 86(TM) system (copyright 1986, Carnegie Mellon
 University), and the Gaussian 82(TM) system (copyright 1983,
 Carnegie Mellon University). Gaussian is a federally registered
 trademark of Gaussian, Inc.
  
 This software contains proprietary and confidential information,
 including trade secrets, belonging to Gaussian, Inc.
  
 This software is provided under written license and may be
 used, copied, transmitted, or stored only in accord with that
 written license.
  
 The following legend is applicable only to US Government
 contracts under FAR:
  
                    RESTRICTED RIGHTS LEGEND
  
 Use, reproduction and disclosure by the US Government is
 subject to restrictions as set forth in subparagraphs (a)
 and (c) of the Commercial Computer Software - Restricted
 Rights clause in FAR 52.227-19.
  
 Gaussian, Inc.
 340 Quinnipiac St., Bldg. 40, Wallingford CT 06492
  
  
 ---------------------------------------------------------------
 Warning -- This program may not be used in any manner that
 competes with the business of Gaussian, Inc. or will provide
 assistance to any competitor of Gaussian, Inc.  The licensee
 of this program is prohibited from giving any competitor of
 Gaussian, Inc. access to this program.  By using this program,
 the user acknowledges that Gaussian, Inc. is engaged in the
 business of creating and licensing software in the field of
 computational chemistry and represents and warrants to the
 licensee that it is not a competitor of Gaussian, Inc. and that
 it will not use this program in any manner prohibited above.
 ---------------------------------------------------------------
  

 Cite this work as:
 Gaussian 16, Revision C.01,
 M. J. Frisch, G. W. Trucks, H. B. Schlegel, G. E. Scuseria, 
 M. A. Robb, J. R. Cheeseman, G. Scalmani, V. Barone, 
 G. A. Petersson, H. Nakatsuji, X. Li, M. Caricato, A. V. Marenich, 
 J. Bloino, B. G. Janesko, R. Gomperts, B. Mennucci, H. P. Hratchian, 
 J. V. Ortiz, A. F. Izmaylov, J. L. Sonnenberg, D. Williams-Young, 
 F. Ding, F. Lipparini, F. Egidi, J. Goings, B. Peng, A. Petrone, 
 T. Henderson, D. Ranasinghe, V. G. Zakrzewski, J. Gao, N. Rega, 
 G. Zheng, W. Liang, M. Hada, M. Ehara, K. Toyota, R. Fukuda, 
 J. Hasegawa, M. Ishida, T. Nakajima, Y. Honda, O. Kitao, H. Nakai, 
 T. Vreven, K. Throssell, J. A. Montgomery, Jr., J. E. Peralta, 
 F. Ogliaro, M. J. Bearpark, J. J. Heyd, E. N. Brothers, K. N. Kudin, 
 V. N. Staroverov, T. A. Keith, R. Kobayashi, J. Normand, 
 K. Raghavachari, A. P. Rendell, J. C. Burant, S. S. Iyengar, 
 J. Tomasi, M. Cossi, J. M. Millam, M. Klene, C. Adamo, R. Cammi, 
 J. W. Ochterski, R. L. Martin, K. Morokuma, O. Farkas, 
 J. B. Foresman, and D. J. Fox, Gaussian, Inc., Wallingford CT, 2019.
 
 ******************************************
 Gaussian 16:  ES64L-G16RevC.01  3-Jul-2019
                12-Jul-2024 
 ******************************************
 %NProcShared=16
 Will use up to   16 processors via shared memory.
 %Mem=32GB
 %chk=12365813_17.chk
 ------------------------------------------------------
 #N OPT FREQ=NORAMAN Integral(Ultrafine) wB97XD def2SVP
 ------------------------------------------------------
 1/18=20,19=15,26=4,38=1/1,3;
 2/9=110,12=2,17=6,18=5,40=1/2;
 3/5=43,7=101,11=2,25=1,30=1,71=1,74=-58,75=-5/1,2,3;
 4//1;
 5/5=2,38=5/2;
 6/7=2,8=2,9=2,10=2,28=1/1;
 7//1,2,3,16;
 1/18=20,19=15,26=4/3(2);
 2/9=110/2;
 99//99;
 2/9=110/2;
 3/5=43,7=101,11=2,25=1,30=1,71=1,74=-58,75=-5/1,2,3;
 4/5=5,16=3,69=1/1;
 5/5=2,38=5/2;
 7//1,2,3,16;
 1/18=20,19=15,26=4/3(-5);
 2/9=110/2;
 6/7=2,8=2,9=2,10=2,19=2,28=1/1;
 99/9=1/99;
 -----------
 12365813_17
 -----------
 Symbolic Z-matrix:
 Charge =  0 Multiplicity = 1
 O                    -0.10533   1.30545  -1.06744 
 C                    -0.42013   0.03668  -0.56062 
 C                     0.39073  -0.27545   0.71714 
 C                     1.87562  -0.20501   0.46876 
 C                     2.57294  -1.31454  -0.02644 
 C                     3.93081  -1.23093  -0.32524 
 C                     4.61661  -0.03036  -0.13858 
 C                     3.93567   1.08218   0.35133 
 C                     2.57613   0.99431   0.65248 
 C                    -1.90335  -0.01475  -0.27802 
 C                    -2.65602   1.14458  -0.09467 
 C                    -4.00981   1.02478   0.20775 
 C                    -4.5605   -0.2511    0.31661 
 N                    -3.85484  -1.36623   0.13708 
 C                    -2.56445  -1.24114  -0.15443 
 H                     0.84803   1.34851  -1.19823 
 H                    -0.1856   -0.74892  -1.30786 
 H                     0.10943  -1.27661   1.07797 
 H                     0.09378   0.44814   1.49217 
 H                     2.04248  -2.25947  -0.1746 
 H                     4.45838  -2.10883  -0.70472 
 H                     5.68147   0.03569  -0.37156 
 H                     4.46573   2.02462   0.50597 
 H                     2.04822   1.86786   1.0447 
 H                    -2.17574   2.11829  -0.20233 
 H                    -4.63354   1.90853   0.35504 
 H                    -5.62222  -0.37747   0.55519 
 H                    -2.00927  -2.17587  -0.30829 
 

 GradGradGradGradGradGradGradGradGradGradGradGradGradGradGradGradGradGrad
 Berny optimization.
 Initialization pass.
                           ----------------------------
                           !    Initial Parameters    !
                           ! (Angstroms and Degrees)  !
 --------------------------                            --------------------------
 ! Name  Definition              Value          Derivative Info.                !
 --------------------------------------------------------------------------------
 ! R1    R(1,2)                  1.402          estimate D2E/DX2                !
 ! R2    R(1,16)                 0.9633         estimate D2E/DX2                !
 ! R3    R(2,3)                  1.5452         estimate D2E/DX2                !
 ! R4    R(2,10)                 1.5108         estimate D2E/DX2                !
 ! R5    R(2,17)                 1.1093         estimate D2E/DX2                !
 ! R6    R(3,4)                  1.5072         estimate D2E/DX2                !
 ! R7    R(3,18)                 1.1007         estimate D2E/DX2                !
 ! R8    R(3,19)                 1.1011         estimate D2E/DX2                !
 ! R9    R(4,5)                  1.4009         estimate D2E/DX2                !
 ! R10   R(4,9)                  1.401          estimate D2E/DX2                !
 ! R11   R(5,6)                  1.3929         estimate D2E/DX2                !
 ! R12   R(5,20)                 1.0937         estimate D2E/DX2                !
 ! R13   R(6,7)                  1.3952         estimate D2E/DX2                !
 ! R14   R(6,21)                 1.0923         estimate D2E/DX2                !
 ! R15   R(7,8)                  1.3934         estimate D2E/DX2                !
 ! R16   R(7,22)                 1.092          estimate D2E/DX2                !
 ! R17   R(8,9)                  1.3953         estimate D2E/DX2                !
 ! R18   R(8,23)                 1.0923         estimate D2E/DX2                !
 ! R19   R(9,24)                 1.0934         estimate D2E/DX2                !
 ! R20   R(10,11)                1.3943         estimate D2E/DX2                !
 ! R21   R(10,15)                1.3987         estimate D2E/DX2                !
 ! R22   R(11,12)                1.3923         estimate D2E/DX2                !
 ! R23   R(11,25)                1.091          estimate D2E/DX2                !
 ! R24   R(12,13)                1.3939         estimate D2E/DX2                !
 ! R25   R(12,26)                1.0917         estimate D2E/DX2                !
 ! R26   R(13,14)                1.3318         estimate D2E/DX2                !
 ! R27   R(13,27)                1.0955         estimate D2E/DX2                !
 ! R28   R(14,15)                1.3288         estimate D2E/DX2                !
 ! R29   R(15,28)                1.098          estimate D2E/DX2                !
 ! A1    A(2,1,16)             108.1652         estimate D2E/DX2                !
 ! A2    A(1,2,3)              111.3398         estimate D2E/DX2                !
 ! A3    A(1,2,10)             108.5938         estimate D2E/DX2                !
 ! A4    A(1,2,17)             110.4814         estimate D2E/DX2                !
 ! A5    A(3,2,10)             110.7098         estimate D2E/DX2                !
 ! A6    A(3,2,17)             107.6397         estimate D2E/DX2                !
 ! A7    A(10,2,17)            108.0268         estimate D2E/DX2                !
 ! A8    A(2,3,4)              111.7953         estimate D2E/DX2                !
 ! A9    A(2,3,18)             108.7048         estimate D2E/DX2                !
 ! A10   A(2,3,19)             107.9256         estimate D2E/DX2                !
 ! A11   A(4,3,18)             110.3837         estimate D2E/DX2                !
 ! A12   A(4,3,19)             110.5473         estimate D2E/DX2                !
 ! A13   A(18,3,19)            107.3402         estimate D2E/DX2                !
 ! A14   A(3,4,5)              120.7735         estimate D2E/DX2                !
 ! A15   A(3,4,9)              120.7311         estimate D2E/DX2                !
 ! A16   A(5,4,9)              118.3894         estimate D2E/DX2                !
 ! A17   A(4,5,6)              120.9002         estimate D2E/DX2                !
 ! A18   A(4,5,20)             119.3885         estimate D2E/DX2                !
 ! A19   A(6,5,20)             119.7105         estimate D2E/DX2                !
 ! A20   A(5,6,7)              120.1424         estimate D2E/DX2                !
 ! A21   A(5,6,21)             119.8118         estimate D2E/DX2                !
 ! A22   A(7,6,21)             120.0457         estimate D2E/DX2                !
 ! A23   A(6,7,8)              119.5975         estimate D2E/DX2                !
 ! A24   A(6,7,22)             120.1864         estimate D2E/DX2                !
 ! A25   A(8,7,22)             120.2158         estimate D2E/DX2                !
 ! A26   A(7,8,9)              120.119          estimate D2E/DX2                !
 ! A27   A(7,8,23)             120.1026         estimate D2E/DX2                !
 ! A28   A(9,8,23)             119.7777         estimate D2E/DX2                !
 ! A29   A(4,9,8)              120.8511         estimate D2E/DX2                !
 ! A30   A(4,9,24)             119.3095         estimate D2E/DX2                !
 ! A31   A(8,9,24)             119.8376         estimate D2E/DX2                !
 ! A32   A(2,10,11)            121.7525         estimate D2E/DX2                !
 ! A33   A(2,10,15)            120.691          estimate D2E/DX2                !
 ! A34   A(11,10,15)           117.5335         estimate D2E/DX2                !
 ! A35   A(10,11,12)           118.8087         estimate D2E/DX2                !
 ! A36   A(10,11,25)           119.4354         estimate D2E/DX2                !
 ! A37   A(12,11,25)           121.7521         estimate D2E/DX2                !
 ! A38   A(11,12,13)           118.6761         estimate D2E/DX2                !
 ! A39   A(11,12,26)           121.0103         estimate D2E/DX2                !
 ! A40   A(13,12,26)           120.3134         estimate D2E/DX2                !
 ! A41   A(12,13,14)           123.1309         estimate D2E/DX2                !
 ! A42   A(12,13,27)           120.363          estimate D2E/DX2                !
 ! A43   A(14,13,27)           116.5054         estimate D2E/DX2                !
 ! A44   A(13,14,15)           117.7286         estimate D2E/DX2                !
 ! A45   A(10,15,14)           124.1189         estimate D2E/DX2                !
 ! A46   A(10,15,28)           119.6735         estimate D2E/DX2                !
 ! A47   A(14,15,28)           116.2066         estimate D2E/DX2                !
 ! D1    D(16,1,2,3)            54.692          estimate D2E/DX2                !
 ! D2    D(16,1,2,10)          176.8332         estimate D2E/DX2                !
 ! D3    D(16,1,2,17)          -64.8601         estimate D2E/DX2                !
 ! D4    D(1,2,3,4)            -58.009          estimate D2E/DX2                !
 ! D5    D(1,2,3,18)           179.8891         estimate D2E/DX2                !
 ! D6    D(1,2,3,19)            63.7698         estimate D2E/DX2                !
 ! D7    D(10,2,3,4)          -178.9182         estimate D2E/DX2                !
 ! D8    D(10,2,3,18)           58.9799         estimate D2E/DX2                !
 ! D9    D(10,2,3,19)          -57.1394         estimate D2E/DX2                !
 ! D10   D(17,2,3,4)            63.2175         estimate D2E/DX2                !
 ! D11   D(17,2,3,18)          -58.8844         estimate D2E/DX2                !
 ! D12   D(17,2,3,19)         -175.0037         estimate D2E/DX2                !
 ! D13   D(1,2,10,11)          -21.1843         estimate D2E/DX2                !
 ! D14   D(1,2,10,15)          160.6012         estimate D2E/DX2                !
 ! D15   D(3,2,10,11)          101.3394         estimate D2E/DX2                !
 ! D16   D(3,2,10,15)          -76.8751         estimate D2E/DX2                !
 ! D17   D(17,2,10,11)        -141.0331         estimate D2E/DX2                !
 ! D18   D(17,2,10,15)          40.7525         estimate D2E/DX2                !
 ! D19   D(2,3,4,5)            -85.609          estimate D2E/DX2                !
 ! D20   D(2,3,4,9)             90.5864         estimate D2E/DX2                !
 ! D21   D(18,3,4,5)            35.5247         estimate D2E/DX2                !
 ! D22   D(18,3,4,9)          -148.28           estimate D2E/DX2                !
 ! D23   D(19,3,4,5)           154.1339         estimate D2E/DX2                !
 ! D24   D(19,3,4,9)           -29.6708         estimate D2E/DX2                !
 ! D25   D(3,4,5,6)            176.4995         estimate D2E/DX2                !
 ! D26   D(3,4,5,20)            -3.8173         estimate D2E/DX2                !
 ! D27   D(9,4,5,6)              0.2168         estimate D2E/DX2                !
 ! D28   D(9,4,5,20)           179.9            estimate D2E/DX2                !
 ! D29   D(3,4,9,8)           -176.3576         estimate D2E/DX2                !
 ! D30   D(3,4,9,24)             4.1336         estimate D2E/DX2                !
 ! D31   D(5,4,9,8)             -0.0733         estimate D2E/DX2                !
 ! D32   D(5,4,9,24)          -179.5821         estimate D2E/DX2                !
 ! D33   D(4,5,6,7)             -0.263          estimate D2E/DX2                !
 ! D34   D(4,5,6,21)           179.6282         estimate D2E/DX2                !
 ! D35   D(20,5,6,7)          -179.9452         estimate D2E/DX2                !
 ! D36   D(20,5,6,21)           -0.054          estimate D2E/DX2                !
 ! D37   D(5,6,7,8)              0.1605         estimate D2E/DX2                !
 ! D38   D(5,6,7,22)           179.9317         estimate D2E/DX2                !
 ! D39   D(21,6,7,8)          -179.7305         estimate D2E/DX2                !
 ! D40   D(21,6,7,22)            0.0407         estimate D2E/DX2                !
 ! D41   D(6,7,8,9)             -0.0184         estimate D2E/DX2                !
 ! D42   D(6,7,8,23)           179.6532         estimate D2E/DX2                !
 ! D43   D(22,7,8,9)          -179.7894         estimate D2E/DX2                !
 ! D44   D(22,7,8,23)           -0.1179         estimate D2E/DX2                !
 ! D45   D(7,8,9,4)             -0.0244         estimate D2E/DX2                !
 ! D46   D(7,8,9,24)           179.4818         estimate D2E/DX2                !
 ! D47   D(23,8,9,4)          -179.697          estimate D2E/DX2                !
 ! D48   D(23,8,9,24)           -0.1908         estimate D2E/DX2                !
 ! D49   D(2,10,11,12)        -177.8358         estimate D2E/DX2                !
 ! D50   D(2,10,11,25)           2.8659         estimate D2E/DX2                !
 ! D51   D(15,10,11,12)          0.4326         estimate D2E/DX2                !
 ! D52   D(15,10,11,25)       -178.8657         estimate D2E/DX2                !
 ! D53   D(2,10,15,14)         177.6557         estimate D2E/DX2                !
 ! D54   D(2,10,15,28)          -2.7267         estimate D2E/DX2                !
 ! D55   D(11,10,15,14)         -0.6321         estimate D2E/DX2                !
 ! D56   D(11,10,15,28)        178.9855         estimate D2E/DX2                !
 ! D57   D(10,11,12,13)          0.0489         estimate D2E/DX2                !
 ! D58   D(10,11,12,26)       -179.7792         estimate D2E/DX2                !
 ! D59   D(25,11,12,13)        179.3303         estimate D2E/DX2                !
 ! D60   D(25,11,12,26)         -0.4979         estimate D2E/DX2                !
 ! D61   D(11,12,13,14)         -0.4165         estimate D2E/DX2                !
 ! D62   D(11,12,13,27)        179.8948         estimate D2E/DX2                !
 ! D63   D(26,12,13,14)        179.4129         estimate D2E/DX2                !
 ! D64   D(26,12,13,27)         -0.2758         estimate D2E/DX2                !
 ! D65   D(12,13,14,15)          0.2504         estimate D2E/DX2                !
 ! D66   D(27,13,14,15)        179.9503         estimate D2E/DX2                !
 ! D67   D(13,14,15,10)          0.2896         estimate D2E/DX2                !
 ! D68   D(13,14,15,28)       -179.34           estimate D2E/DX2                !
 --------------------------------------------------------------------------------
 Trust Radius=3.00D-01 FncErr=1.00D-07 GrdErr=1.00D-06 EigMax=2.50D+02 EigMin=1.00D-04
 Number of steps in this run=    154 maximum allowed number of steps=    168.
 GradGradGradGradGradGradGradGradGradGradGradGradGradGradGradGradGradGrad

                          Input orientation:                          
 ---------------------------------------------------------------------
 Center     Atomic      Atomic             Coordinates (Angstroms)
 Number     Number       Type             X           Y           Z
 ---------------------------------------------------------------------
      1          8           0       -0.105330    1.305450   -1.067440
      2          6           0       -0.420130    0.036680   -0.560620
      3          6           0        0.390730   -0.275450    0.717140
      4          6           0        1.875620   -0.205010    0.468760
      5          6           0        2.572940   -1.314540   -0.026440
      6          6           0        3.930810   -1.230930   -0.325240
      7          6           0        4.616610   -0.030360   -0.138580
      8          6           0        3.935670    1.082180    0.351330
      9          6           0        2.576130    0.994310    0.652480
     10          6           0       -1.903350   -0.014750   -0.278020
     11          6           0       -2.656020    1.144580   -0.094670
     12          6           0       -4.009810    1.024780    0.207750
     13          6           0       -4.560500   -0.251100    0.316610
     14          7           0       -3.854840   -1.366230    0.137080
     15          6           0       -2.564450   -1.241140   -0.154430
     16          1           0        0.848030    1.348510   -1.198230
     17          1           0       -0.185600   -0.748920   -1.307860
     18          1           0        0.109430   -1.276610    1.077970
     19          1           0        0.093780    0.448140    1.492170
     20          1           0        2.042480   -2.259470   -0.174600
     21          1           0        4.458380   -2.108830   -0.704720
     22          1           0        5.681470    0.035690   -0.371560
     23          1           0        4.465730    2.024620    0.505970
     24          1           0        2.048220    1.867860    1.044700
     25          1           0       -2.175740    2.118290   -0.202330
     26          1           0       -4.633540    1.908530    0.355040
     27          1           0       -5.622220   -0.377470    0.555190
     28          1           0       -2.009270   -2.175870   -0.308290
 ---------------------------------------------------------------------
                    Distance matrix (angstroms):
                    1          2          3          4          5
     1  O    0.000000
     2  C    1.402050   0.000000
     3  C    2.435169   1.545183   0.000000
     4  C    2.926698   2.527549   1.507167   0.000000
     5  C    3.888593   3.327103   2.528766   1.400905   0.000000
     6  C    4.824366   4.537942   3.812042   2.430381   1.392869
     7  C    4.994386   5.054836   4.318609   2.812897   2.416253
     8  C    4.288641   4.571402   3.813604   2.431965   2.782806
     9  C    3.200806   3.371386   2.528328   1.401012   2.406602
    10  C    2.366218   1.510778   2.514182   3.856746   4.667967
    11  C    2.734626   2.538455   3.458064   4.761786   5.778750
    12  C    4.117019   3.801649   4.616799   6.018205   6.989983
    13  C    4.918026   4.242053   4.967464   6.438083   7.220426
    14  N    4.758946   3.775205   4.421667   5.856331   6.430067
    15  C    3.655951   2.529016   3.228820   4.601755   5.139508
    16  H    0.963253   1.932789   2.552452   2.499644   3.382343
    17  H    2.069947   1.109297   2.157998   2.775040   3.093785
    18  H    3.363917   2.165673   1.100749   2.153808   2.700008
    19  H    2.706701   2.155771   1.101105   2.156137   3.399919
    20  H    4.256631   3.389065   2.731266   2.159296   1.093724
    21  H    5.711070   5.331401   4.682814   3.416465   2.155422
    22  H    5.965199   6.104528   5.410546   3.904942   3.406639
    23  H    4.887475   5.381556   4.684073   3.417792   3.875062
    24  H    3.068423   3.467423   2.729166   2.158307   3.398579
    25  H    2.386571   2.746568   3.627973   4.718220   5.862186
    26  H    4.784542   4.700540   5.490371   6.844644   7.903611
    27  H    5.991763   5.336506   6.015996   7.500321   8.269041
    28  H    4.039912   2.735766   3.228483   4.424982   4.670972
                    6          7          8          9         10
     6  C    0.000000
     7  C    1.395182   0.000000
     8  C    2.410031   1.393354   0.000000
     9  C    2.782586   2.416461   1.395264   0.000000
    10  C    5.959761   6.521470   5.974403   4.685059   0.000000
    11  C    7.005893   7.367059   6.607056   5.287363   1.394337
    12  C    8.271986   8.697608   7.946984   6.601009   2.398701
    13  C    8.571720   9.191043   8.600218   7.252265   2.733110
    14  N    7.800538   8.580560   8.169006   6.869873   2.409797
    15  C    6.497514   7.282435   6.921356   5.663383   1.398699
    16  H    4.113290   4.150462   3.464908   2.556739   3.205520
    17  H    4.259426   4.994473   4.805279   3.809060   2.133129
    18  H    4.071121   4.831957   4.553242   3.379753   2.735376
    19  H    4.565638   4.831594   4.057541   2.676834   2.708573
    20  H    2.155546   3.405345   3.876518   3.399401   4.540819
    21  H    1.092265   2.159997   3.401619   3.874834   6.711099
    22  H    2.161315   1.092048   2.159984   3.407455   7.585564
    23  H    3.402301   2.158970   1.092278   2.157219   6.733413
    24  H    3.876001   3.405880   2.158824   1.093442   4.572605
    25  H    6.965797   7.124379   6.223295   4.957247   2.151694
    26  H    9.146971   9.464049   8.608962   7.273487   3.399075
    27  H    9.631403  10.268176   9.670853   8.312893   3.828289
    28  H    6.014794   6.966656   6.811189   5.656767   2.163926
                   11         12         13         14         15
    11  C    0.000000
    12  C    1.392321   0.000000
    13  C    2.396689   1.393908   0.000000
    14  N    2.791961   2.397069   1.331804   0.000000
    15  C    2.388224   2.711943   2.277339   1.328808   0.000000
    16  H    3.679375   5.067563   5.840008   5.591945   4.409175
    17  H    3.340681   4.479695   4.693237   3.991522   2.689165
    18  H    3.858103   4.798106   4.841445   4.075382   2.944436
    19  H    3.250306   4.338398   4.851103   4.551902   3.554032
    20  H    5.802572   6.896572   6.919117   5.972722   4.718178
    21  H    7.846753   9.075371   9.264690   8.388665   7.097594
    22  H    8.415465   9.758832  10.269069   9.652218   8.347014
    23  H    7.201011   8.539520   9.310617   8.992543   7.779765
    24  H    4.893993   6.173410   6.978201   6.791850   5.690388
    25  H    1.091041   2.174337   3.401527   3.882841   3.382183
    26  H    2.167128   1.091672   2.161206   3.373119   3.802777
    27  H    3.396660   2.164922   1.095509   2.067872   3.255679
    28  H    3.389588   3.809543   3.256381   2.063977   1.098006
                   16         17         18         19         20
    16  H    0.000000
    17  H    2.340859   0.000000
    18  H    3.552164   2.461236   0.000000
    19  H    2.935611   3.057969   1.773857   0.000000
    20  H    3.935994   2.920681   2.504322   3.729170   0.000000
    21  H    5.023085   4.876442   4.773253   5.514903   2.477961
    22  H    5.076320   5.992894   5.905159   5.904734   4.306832
    23  H    4.055758   5.711162   5.495694   4.750982   4.968777
    24  H    2.596327   4.167976   3.694280   2.456760   4.303670
    25  H    3.275296   3.661113   4.287950   3.288077   6.079386
    26  H    5.724848   5.441640   5.758777   5.076747   7.888091
    27  H    6.922256   5.758973   5.825252   5.850831   7.926042
    28  H    4.623571   2.522122   2.686871   3.814434   4.054817
                   21         22         23         24         25
    21  H    0.000000
    22  H    2.491167   0.000000
    23  H    4.307114   2.490768   0.000000
    24  H    4.968240   4.308497   2.481765   0.000000
    25  H    7.882416   8.130290   6.679789   4.411308   0.000000
    26  H    9.996263  10.508801   9.101262   6.717381   2.528921
    27  H   10.305507  11.349140  10.370111   8.007295   4.322138
    28  H    6.480135   8.002655   7.760977   5.886048   4.298692
                   26         27         28
    26  H    0.000000
    27  H    2.498668   0.000000
    28  H    4.899911   4.127136   0.000000
 Stoichiometry    C13H13NO
 Framework group  C1[X(C13H13NO)]
 Deg. of freedom    78
 Full point group                 C1      NOp   1
 Largest Abelian subgroup         C1      NOp   1
 Largest concise Abelian subgroup C1      NOp   1
                         Standard orientation:                         
 ---------------------------------------------------------------------
 Center     Atomic      Atomic             Coordinates (Angstroms)
 Number     Number       Type             X           Y           Z
 ---------------------------------------------------------------------
      1          8           0       -0.105332   -1.305450    1.067439
      2          6           0       -0.420131   -0.036680    0.560619
      3          6           0        0.390729    0.275450   -0.717141
      4          6           0        1.875619    0.205009   -0.468761
      5          6           0        2.572939    1.314539    0.026439
      6          6           0        3.930809    1.230929    0.325239
      7          6           0        4.616609    0.030358    0.138579
      8          6           0        3.935668   -1.082181   -0.351331
      9          6           0        2.576128   -0.994311   -0.652481
     10          6           0       -1.903351    0.014750    0.278019
     11          6           0       -2.656022   -1.144580    0.094669
     12          6           0       -4.009812   -1.024779   -0.207751
     13          6           0       -4.560501    0.251101   -0.316611
     14          7           0       -3.854841    1.366231   -0.137081
     15          6           0       -2.564451    1.241140    0.154429
     16          1           0        0.848028   -1.348511    1.198229
     17          1           0       -0.185601    0.748920    1.307859
     18          1           0        0.109429    1.276610   -1.077971
     19          1           0        0.093779   -0.448140   -1.492171
     20          1           0        2.042479    2.259469    0.174599
     21          1           0        4.458379    2.108828    0.704719
     22          1           0        5.681469   -0.035692    0.371559
     23          1           0        4.465728   -2.024622   -0.505971
     24          1           0        2.048218   -1.867861   -1.044701
     25          1           0       -2.175742   -2.118290    0.202329
     26          1           0       -4.633542   -1.908529   -0.355041
     27          1           0       -5.622221    0.377471   -0.555191
     28          1           0       -2.009271    2.175870    0.308289
 ---------------------------------------------------------------------
 Rotational constants (GHZ):           1.9958398           0.2680347           0.2481982
 Standard basis: def2SVP (5D, 7F)
 There are   290 symmetry adapted cartesian basis functions of A   symmetry.
 There are   275 symmetry adapted basis functions of A   symmetry.
   275 basis functions,   466 primitive gaussians,   290 cartesian basis functions
    53 alpha electrons       53 beta electrons
       nuclear repulsion energy       897.9874936278 Hartrees.
 NAtoms=   28 NActive=   28 NUniq=   28 SFac= 1.00D+00 NAtFMM=   60 NAOKFM=F Big=F
 Integral buffers will be    131072 words long.
 Raffenetti 2 integral format.
 Two-electron integral symmetry is turned on.
 Nuclear repulsion after empirical dispersion term =      897.9694613276 Hartrees.
 One-electron integrals computed using PRISM.
   1 Symmetry operations used in ECPInt.
 ECPInt:  NShTT=    8385 NPrTT=   30369 LenC2=    7748 LenP2D=   20573.
 LDataN:  DoStor=T MaxTD1= 4 Len=   56
 NBasis=   275 RedAO= T EigKep=  2.83D-04  NBF=   275
 NBsUse=   275 1.00D-06 EigRej= -1.00D+00 NBFU=   275
 ExpMin= 1.22D-01 ExpMax= 2.27D+03 ExpMxC= 3.41D+02 IAcc=3 IRadAn=         5 AccDes= 0.00D+00
 Harris functional with IExCor= 4639 and IRadAn=       5 diagonalized for initial guess.
 HarFok:  IExCor= 4639 AccDes= 0.00D+00 IRadAn=         5 IDoV= 1 UseB2=F ITyADJ=14
 ICtDFT=  3500011 ScaDFX=  1.000000  1.000000  1.000000  1.000000
 FoFCou: FMM=F IPFlag=           0 FMFlag=      100000 FMFlg1=           0
         NFxFlg=           0 DoJE=T BraDBF=F KetDBF=T FulRan=T
         wScrn=  0.000000 ICntrl=       500 IOpCl=  0 I1Cent=   200000004 NGrid=           0
         NMat0=    1 NMatS0=      1 NMatT0=    0 NMatD0=    1 NMtDS0=    0 NMtDT0=    0
 Petite list used in FoFCou.
 Requested convergence on RMS density matrix=1.00D-08 within 128 cycles.
 Requested convergence on MAX density matrix=1.00D-06.
 Requested convergence on             energy=1.00D-06.
 No special actions if energy rises.
 Integral accuracy reduced to 1.0D-05 until final iterations.
 Initial convergence to 1.0D-05 achieved.  Increase integral accuracy.
 SCF Done:  E(RwB97XD) =  -632.520863210     A.U. after   15 cycles
            NFock= 15  Conv=0.35D-08     -V/T= 2.0108

 **********************************************************************

            Population analysis using the SCF Density.

 **********************************************************************

 Orbital symmetries:
       Occupied  (A) (A) (A) (A) (A) (A) (A) (A) (A) (A) (A) (A)
                 (A) (A) (A) (A) (A) (A) (A) (A) (A) (A) (A) (A)
                 (A) (A) (A) (A) (A) (A) (A) (A) (A) (A) (A) (A)
                 (A) (A) (A) (A) (A) (A) (A) (A) (A) (A) (A) (A)
                 (A) (A) (A) (A) (A)
       Virtual   (A) (A) (A) (A) (A) (A) (A) (A) (A) (A) (A) (A)
                 (A) (A) (A) (A) (A) (A) (A) (A) (A) (A) (A) (A)
                 (A) (A) (A) (A) (A) (A) (A) (A) (A) (A) (A) (A)
                 (A) (A) (A) (A) (A) (A) (A) (A) (A) (A) (A) (A)
                 (A) (A) (A) (A) (A) (A) (A) (A) (A) (A) (A) (A)
                 (A) (A) (A) (A) (A) (A) (A) (A) (A) (A) (A) (A)
                 (A) (A) (A) (A) (A) (A) (A) (A) (A) (A) (A) (A)
                 (A) (A) (A) (A) (A) (A) (A) (A) (A) (A) (A) (A)
                 (A) (A) (A) (A) (A) (A) (A) (A) (A) (A) (A) (A)
                 (A) (A) (A) (A) (A) (A) (A) (A) (A) (A) (A) (A)
                 (A) (A) (A) (A) (A) (A) (A) (A) (A) (A) (A) (A)
                 (A) (A) (A) (A) (A) (A) (A) (A) (A) (A) (A) (A)
                 (A) (A) (A) (A) (A) (A) (A) (A) (A) (A) (A) (A)
                 (A) (A) (A) (A) (A) (A) (A) (A) (A) (A) (A) (A)
                 (A) (A) (A) (A) (A) (A) (A) (A) (A) (A) (A) (A)
                 (A) (A) (A) (A) (A) (A) (A) (A) (A) (A) (A) (A)
                 (A) (A) (A) (A) (A) (A) (A) (A) (A) (A) (A) (A)
                 (A) (A) (A) (A) (A) (A) (A) (A) (A) (A) (A) (A)
                 (A) (A) (A) (A) (A) (A)
 The electronic state is 1-A.
 Alpha  occ. eigenvalues --  -19.26214 -14.43657 -10.36247 -10.33310 -10.33052
 Alpha  occ. eigenvalues --  -10.32066 -10.31443 -10.31428 -10.31401 -10.31307
 Alpha  occ. eigenvalues --  -10.31285 -10.31242 -10.31222 -10.31023 -10.30795
 Alpha  occ. eigenvalues --   -1.12724  -1.03704  -0.96573  -0.90983  -0.88512
 Alpha  occ. eigenvalues --   -0.86223  -0.84888  -0.81069  -0.74959  -0.72078
 Alpha  occ. eigenvalues --   -0.70671  -0.69070  -0.67702  -0.61958  -0.61370
 Alpha  occ. eigenvalues --   -0.60793  -0.56613  -0.56102  -0.55824  -0.54170
 Alpha  occ. eigenvalues --   -0.53592  -0.52158  -0.51617  -0.49539  -0.48764
 Alpha  occ. eigenvalues --   -0.48370  -0.47268  -0.46348  -0.45507  -0.43800
 Alpha  occ. eigenvalues --   -0.43152  -0.41609  -0.37371  -0.36422  -0.34410
 Alpha  occ. eigenvalues --   -0.34037  -0.33400  -0.32540
 Alpha virt. eigenvalues --    0.04164   0.04588   0.04790   0.05971   0.12950
 Alpha virt. eigenvalues --    0.14588   0.15581   0.16081   0.16715   0.18677
 Alpha virt. eigenvalues --    0.19811   0.20671   0.20830   0.21806   0.22480
 Alpha virt. eigenvalues --    0.23097   0.23534   0.23803   0.24257   0.27137
 Alpha virt. eigenvalues --    0.29384   0.30524   0.32493   0.33935   0.35998
 Alpha virt. eigenvalues --    0.36061   0.37130   0.38349   0.39662   0.39825
 Alpha virt. eigenvalues --    0.40997   0.43513   0.44570   0.47112   0.47933
 Alpha virt. eigenvalues --    0.48678   0.49229   0.50038   0.50507   0.52677
 Alpha virt. eigenvalues --    0.53504   0.55445   0.55732   0.56173   0.56679
 Alpha virt. eigenvalues --    0.57516   0.57667   0.58663   0.60442   0.60835
 Alpha virt. eigenvalues --    0.62502   0.63363   0.63705   0.65172   0.66766
 Alpha virt. eigenvalues --    0.67046   0.67936   0.69176   0.70160   0.70986
 Alpha virt. eigenvalues --    0.71890   0.72680   0.73113   0.73765   0.74945
 Alpha virt. eigenvalues --    0.75338   0.75562   0.75748   0.76130   0.77264
 Alpha virt. eigenvalues --    0.78232   0.79495   0.79700   0.81179   0.81558
 Alpha virt. eigenvalues --    0.82210   0.82637   0.83641   0.84342   0.84719
 Alpha virt. eigenvalues --    0.86579   0.86819   0.89418   0.89728   0.90389
 Alpha virt. eigenvalues --    0.95907   0.97421   0.99294   1.01096   1.01716
 Alpha virt. eigenvalues --    1.02195   1.06535   1.10720   1.12744   1.15053
 Alpha virt. eigenvalues --    1.17352   1.18581   1.22215   1.23726   1.26910
 Alpha virt. eigenvalues --    1.27499   1.29456   1.30813   1.31751   1.32421
 Alpha virt. eigenvalues --    1.32762   1.33955   1.35816   1.36070   1.37792
 Alpha virt. eigenvalues --    1.38263   1.40394   1.41439   1.42174   1.43604
 Alpha virt. eigenvalues --    1.46020   1.51079   1.53339   1.55906   1.59020
 Alpha virt. eigenvalues --    1.60323   1.63943   1.70263   1.72522   1.74154
 Alpha virt. eigenvalues --    1.75085   1.76903   1.78700   1.79104   1.79850
 Alpha virt. eigenvalues --    1.81142   1.81666   1.82079   1.82720   1.83154
 Alpha virt. eigenvalues --    1.83839   1.84699   1.85278   1.86375   1.87573
 Alpha virt. eigenvalues --    1.88324   1.88679   1.90144   1.91968   1.94639
 Alpha virt. eigenvalues --    1.94912   1.95104   1.95688   1.97954   2.01510
 Alpha virt. eigenvalues --    2.02430   2.03075   2.03760   2.05048   2.05611
 Alpha virt. eigenvalues --    2.06391   2.06804   2.08950   2.11333   2.12842
 Alpha virt. eigenvalues --    2.17247   2.17879   2.18939   2.20321   2.21346
 Alpha virt. eigenvalues --    2.22124   2.23187   2.23966   2.26249   2.29804
 Alpha virt. eigenvalues --    2.30938   2.33145   2.36228   2.36621   2.37476
 Alpha virt. eigenvalues --    2.38095   2.38859   2.41964   2.42399   2.45215
 Alpha virt. eigenvalues --    2.46368   2.49407   2.51327   2.53260   2.54464
 Alpha virt. eigenvalues --    2.56156   2.60430   2.63069   2.66403   2.69042
 Alpha virt. eigenvalues --    2.69924   2.70164   2.71664   2.72344   2.79751
 Alpha virt. eigenvalues --    2.80189   2.80505   2.80793   2.83623   2.88023
 Alpha virt. eigenvalues --    2.91645   2.94129   2.94762   2.96773   2.97079
 Alpha virt. eigenvalues --    2.98312   3.03825   3.04688   3.08533   3.11987
 Alpha virt. eigenvalues --    3.13791   3.14939   3.18094   3.20296   3.23555
 Alpha virt. eigenvalues --    3.28093   3.33072   3.43219   3.48199   3.71139
 Alpha virt. eigenvalues --    3.72359   3.89155
          Condensed to atoms (all electrons):
               1          2          3          4          5          6
     1  O    7.755075   0.345372  -0.046291  -0.017632  -0.001040   0.000029
     2  C    0.345372   4.662813   0.408221  -0.058487  -0.006103   0.000083
     3  C   -0.046291   0.408221   4.796313   0.350220  -0.070801   0.008715
     4  C   -0.017632  -0.058487   0.350220   5.347682   0.318137   0.067946
     5  C   -0.001040  -0.006103  -0.070801   0.318137   5.066351   0.345694
     6  C    0.000029   0.000083   0.008715   0.067946   0.345694   4.985929
     7  C    0.000022   0.000022   0.000147  -0.136388   0.060252   0.323535
     8  C   -0.000334   0.000129   0.009974   0.063274  -0.110481   0.058645
     9  C    0.011127  -0.011849  -0.073180   0.291218   0.019462  -0.114025
    10  C   -0.079457   0.256539  -0.074788   0.014750  -0.000078   0.000020
    11  C    0.005689  -0.071819  -0.007180  -0.000680   0.000009  -0.000000
    12  C    0.001258   0.013382  -0.000125   0.000004  -0.000001   0.000000
    13  C   -0.000029   0.000230   0.000070  -0.000000   0.000000  -0.000000
    14  N   -0.000020   0.005211  -0.000067   0.000003  -0.000000   0.000000
    15  C    0.002779  -0.043114  -0.008400   0.000299  -0.000031   0.000001
    16  H    0.332063  -0.017948  -0.014152   0.009789  -0.000015  -0.000134
    17  H   -0.030256   0.381224  -0.036332  -0.016474   0.006472  -0.000675
    18  H    0.004683  -0.005855   0.340956  -0.007706  -0.013977   0.000704
    19  H   -0.000923  -0.008263   0.358534  -0.026340   0.009191  -0.000568
    20  H    0.000022  -0.000721  -0.011812  -0.067222   0.443664  -0.057851
    21  H    0.000000  -0.000002  -0.000254   0.014018  -0.062468   0.445366
    22  H    0.000000   0.000001   0.000020  -0.001468   0.012399  -0.062434
    23  H   -0.000011  -0.000001  -0.000254   0.014642  -0.001785   0.012669
    24  H    0.002471  -0.000783  -0.010287  -0.071685   0.012541  -0.001686
    25  H    0.019938  -0.018058   0.000586  -0.000303   0.000004  -0.000000
    26  H   -0.000021  -0.000163  -0.000000  -0.000000  -0.000000   0.000000
    27  H   -0.000000   0.000067   0.000000   0.000000  -0.000000  -0.000000
    28  H    0.000004  -0.003857  -0.001229  -0.000104  -0.000024  -0.000001
               7          8          9         10         11         12
     1  O    0.000022  -0.000334   0.011127  -0.079457   0.005689   0.001258
     2  C    0.000022   0.000129  -0.011849   0.256539  -0.071819   0.013382
     3  C    0.000147   0.009974  -0.073180  -0.074788  -0.007180  -0.000125
     4  C   -0.136388   0.063274   0.291218   0.014750  -0.000680   0.000004
     5  C    0.060252  -0.110481   0.019462  -0.000078   0.000009  -0.000001
     6  C    0.323535   0.058645  -0.114025   0.000020  -0.000000   0.000000
     7  C    5.045776   0.325117   0.062851  -0.000001   0.000000   0.000000
     8  C    0.325117   4.999896   0.325671   0.000002   0.000000  -0.000000
     9  C    0.062851   0.325671   5.130944  -0.000555   0.000075   0.000002
    10  C   -0.000001   0.000002  -0.000555   5.426769   0.432576   0.000436
    11  C    0.000000   0.000000   0.000075   0.432576   4.880288   0.401207
    12  C    0.000000  -0.000000   0.000002   0.000436   0.401207   4.983264
    13  C   -0.000000   0.000000  -0.000000  -0.067015  -0.004650   0.439462
    14  N    0.000000   0.000000   0.000000  -0.037908  -0.049232  -0.037514
    15  C    0.000000  -0.000000   0.000017   0.418236  -0.031735  -0.059094
    16  H   -0.000083  -0.000242   0.012847   0.010042   0.000061  -0.000034
    17  H    0.000002   0.000025   0.001239  -0.043910   0.009144  -0.000158
    18  H    0.000041  -0.000600   0.010775  -0.007839  -0.000440   0.000089
    19  H    0.000038   0.000893  -0.008303  -0.007405   0.005104  -0.000376
    20  H    0.012484  -0.001632   0.012732  -0.000208   0.000002   0.000000
    21  H   -0.065792   0.012511  -0.001681  -0.000000  -0.000000  -0.000000
    22  H    0.444941  -0.062830   0.012512   0.000000  -0.000000   0.000000
    23  H   -0.066420   0.447075  -0.064571  -0.000000  -0.000000  -0.000000
    24  H    0.012543  -0.058411   0.449066  -0.000343   0.000025   0.000001
    25  H    0.000000   0.000001   0.000017  -0.057980   0.442681  -0.054810
    26  H   -0.000000  -0.000000  -0.000000   0.012102  -0.056866   0.422791
    27  H   -0.000000   0.000000   0.000000   0.001134   0.006047  -0.065863
    28  H    0.000000  -0.000000   0.000000  -0.078815   0.005816   0.000819
              13         14         15         16         17         18
     1  O   -0.000029  -0.000020   0.002779   0.332063  -0.030256   0.004683
     2  C    0.000230   0.005211  -0.043114  -0.017948   0.381224  -0.005855
     3  C    0.000070  -0.000067  -0.008400  -0.014152  -0.036332   0.340956
     4  C   -0.000000   0.000003   0.000299   0.009789  -0.016474  -0.007706
     5  C    0.000000  -0.000000  -0.000031  -0.000015   0.006472  -0.013977
     6  C   -0.000000   0.000000   0.000001  -0.000134  -0.000675   0.000704
     7  C   -0.000000   0.000000   0.000000  -0.000083   0.000002   0.000041
     8  C    0.000000   0.000000  -0.000000  -0.000242   0.000025  -0.000600
     9  C   -0.000000   0.000000   0.000017   0.012847   0.001239   0.010775
    10  C   -0.067015  -0.037908   0.418236   0.010042  -0.043910  -0.007839
    11  C   -0.004650  -0.049232  -0.031735   0.000061   0.009144  -0.000440
    12  C    0.439462  -0.037514  -0.059094  -0.000034  -0.000158   0.000089
    13  C    4.757452   0.523740  -0.068007   0.000003   0.000010  -0.000058
    14  N    0.523740   6.253458   0.550584   0.000004   0.000165  -0.000073
    15  C   -0.068007   0.550584   4.777154  -0.000303  -0.002769   0.005845
    16  H    0.000003   0.000004  -0.000303   0.490890  -0.005040   0.000136
    17  H    0.000010   0.000165  -0.002769  -0.005040   0.708837  -0.004268
    18  H   -0.000058  -0.000073   0.005845   0.000136  -0.004268   0.663791
    19  H   -0.000012  -0.000037  -0.001117  -0.001111   0.009552  -0.024050
    20  H    0.000000  -0.000000  -0.000006  -0.000011   0.001463   0.004435
    21  H    0.000000  -0.000000  -0.000000  -0.000002   0.000007  -0.000003
    22  H   -0.000000   0.000000   0.000000  -0.000004  -0.000000  -0.000000
    23  H    0.000000  -0.000000  -0.000000   0.000022  -0.000001   0.000005
    24  H   -0.000000  -0.000000   0.000004   0.000433   0.000174   0.000260
    25  H    0.008584  -0.000370   0.009459  -0.000953   0.001161  -0.000074
    26  H   -0.045439   0.005570   0.000107   0.000000   0.000005   0.000001
    27  H    0.422654  -0.038716   0.004507   0.000000  -0.000000  -0.000001
    28  H    0.004840  -0.034373   0.427981  -0.000001   0.004909   0.002101
              19         20         21         22         23         24
     1  O   -0.000923   0.000022   0.000000   0.000000  -0.000011   0.002471
     2  C   -0.008263  -0.000721  -0.000002   0.000001  -0.000001  -0.000783
     3  C    0.358534  -0.011812  -0.000254   0.000020  -0.000254  -0.010287
     4  C   -0.026340  -0.067222   0.014018  -0.001468   0.014642  -0.071685
     5  C    0.009191   0.443664  -0.062468   0.012399  -0.001785   0.012541
     6  C   -0.000568  -0.057851   0.445366  -0.062434   0.012669  -0.001686
     7  C    0.000038   0.012484  -0.065792   0.444941  -0.066420   0.012543
     8  C    0.000893  -0.001632   0.012511  -0.062830   0.447075  -0.058411
     9  C   -0.008303   0.012732  -0.001681   0.012512  -0.064571   0.449066
    10  C   -0.007405  -0.000208  -0.000000   0.000000  -0.000000  -0.000343
    11  C    0.005104   0.000002  -0.000000  -0.000000  -0.000000   0.000025
    12  C   -0.000376   0.000000  -0.000000   0.000000  -0.000000   0.000001
    13  C   -0.000012   0.000000   0.000000  -0.000000   0.000000  -0.000000
    14  N   -0.000037  -0.000000  -0.000000   0.000000  -0.000000  -0.000000
    15  C   -0.001117  -0.000006  -0.000000   0.000000  -0.000000   0.000004
    16  H   -0.001111  -0.000011  -0.000002  -0.000004   0.000022   0.000433
    17  H    0.009552   0.001463   0.000007  -0.000000  -0.000001   0.000174
    18  H   -0.024050   0.004435  -0.000003  -0.000000   0.000005   0.000260
    19  H    0.661922   0.000157   0.000007  -0.000001  -0.000008   0.005048
    20  H    0.000157   0.663400  -0.011444  -0.000214   0.000024  -0.000202
    21  H    0.000007  -0.011444   0.655489  -0.010926  -0.000213   0.000023
    22  H   -0.000001  -0.000214  -0.010926   0.652944  -0.011042  -0.000202
    23  H   -0.000008   0.000024  -0.000213  -0.011042   0.655634  -0.011239
    24  H    0.005048  -0.000202   0.000023  -0.000202  -0.011239   0.651265
    25  H    0.001063  -0.000000  -0.000000  -0.000000  -0.000000   0.000055
    26  H    0.000002   0.000000  -0.000000   0.000000   0.000000  -0.000000
    27  H   -0.000000   0.000000  -0.000000   0.000000  -0.000000  -0.000000
    28  H    0.000119   0.000045  -0.000000  -0.000000   0.000000  -0.000000
              25         26         27         28
     1  O    0.019938  -0.000021  -0.000000   0.000004
     2  C   -0.018058  -0.000163   0.000067  -0.003857
     3  C    0.000586  -0.000000   0.000000  -0.001229
     4  C   -0.000303  -0.000000   0.000000  -0.000104
     5  C    0.000004  -0.000000  -0.000000  -0.000024
     6  C   -0.000000   0.000000  -0.000000  -0.000001
     7  C    0.000000  -0.000000  -0.000000   0.000000
     8  C    0.000001  -0.000000   0.000000  -0.000000
     9  C    0.000017  -0.000000   0.000000   0.000000
    10  C   -0.057980   0.012102   0.001134  -0.078815
    11  C    0.442681  -0.056866   0.006047   0.005816
    12  C   -0.054810   0.422791  -0.065863   0.000819
    13  C    0.008584  -0.045439   0.422654   0.004840
    14  N   -0.000370   0.005570  -0.038716  -0.034373
    15  C    0.009459   0.000107   0.004507   0.427981
    16  H   -0.000953   0.000000   0.000000  -0.000001
    17  H    0.001161   0.000005  -0.000000   0.004909
    18  H   -0.000074   0.000001  -0.000001   0.002101
    19  H    0.001063   0.000002  -0.000000   0.000119
    20  H   -0.000000   0.000000   0.000000   0.000045
    21  H   -0.000000  -0.000000  -0.000000  -0.000000
    22  H   -0.000000   0.000000   0.000000  -0.000000
    23  H   -0.000000   0.000000  -0.000000   0.000000
    24  H    0.000055  -0.000000  -0.000000  -0.000000
    25  H    0.621625  -0.009396  -0.000224  -0.000195
    26  H   -0.009396   0.648069  -0.006154   0.000065
    27  H   -0.000224  -0.006154   0.641509  -0.000274
    28  H   -0.000195   0.000065  -0.000274   0.650013
 Mulliken charges:
               1
     1  O   -0.304518
     2  C    0.173730
     3  C    0.081399
     4  C   -0.087495
     5  C   -0.027374
     6  C   -0.011961
     7  C   -0.019086
     8  C   -0.008682
     9  C   -0.066392
    10  C   -0.116303
    11  C    0.033878
    12  C   -0.044740
    13  C    0.028164
    14  N   -0.140425
    15  C    0.017602
    16  H    0.183741
    17  H    0.015495
    18  H    0.031121
    19  H    0.026885
    20  H    0.012896
    21  H    0.025365
    22  H    0.026307
    23  H    0.025476
    24  H    0.020930
    25  H    0.037189
    26  H    0.029326
    27  H    0.035314
    28  H    0.022159
 Sum of Mulliken charges =  -0.00000
 Mulliken charges with hydrogens summed into heavy atoms:
               1
     1  O   -0.120777
     2  C    0.189224
     3  C    0.139406
     4  C   -0.087495
     5  C   -0.014478
     6  C    0.013404
     7  C    0.007220
     8  C    0.016794
     9  C   -0.045462
    10  C   -0.116303
    11  C    0.071067
    12  C   -0.015414
    13  C    0.063478
    14  N   -0.140425
    15  C    0.039761
 Electronic spatial extent (au):  <R**2>=           4252.2418
 Charge=             -0.0000 electrons
 Dipole moment (field-independent basis, Debye):
    X=              2.6445    Y=             -1.0367    Z=             -0.1434  Tot=              2.8441
 Quadrupole moment (field-independent basis, Debye-Ang):
   XX=            -84.3934   YY=            -85.3586   ZZ=            -91.6372
   XY=              7.0390   XZ=              3.8148   YZ=              3.5496
 Traceless Quadrupole moment (field-independent basis, Debye-Ang):
   XX=              2.7363   YY=              1.7712   ZZ=             -4.5075
   XY=              7.0390   XZ=              3.8148   YZ=              3.5496
 Octapole moment (field-independent basis, Debye-Ang**2):
  XXX=             32.4962  YYY=            -11.5884  ZZZ=              5.5796  XYY=             20.6793
  XXY=            -46.1325  XXZ=              6.1339  XZZ=             -2.3775  YZZ=             -1.0569
  YYZ=              1.2515  XYZ=              1.5305
 Hexadecapole moment (field-independent basis, Debye-Ang**3):
 XXXX=          -4616.6016 YYYY=           -620.5605 ZZZZ=           -238.0962 XXXY=            152.6970
 XXXZ=            102.0175 YYYX=             41.4754 YYYZ=              9.4257 ZZZX=              8.1096
 ZZZY=             -4.7668 XXYY=           -940.2061 XXZZ=           -929.1273 YYZZ=           -149.5105
 XXYZ=             32.4149 YYXZ=              4.0922 ZZXY=             -8.9929
 N-N= 8.979694613276D+02 E-N=-3.263018977300D+03  KE= 6.257914061613D+02
   1 Symmetry operations used in ECPInt.
 ECPInt:  NShTT=    8385 NPrTT=   30369 LenC2=    7748 LenP2D=   20573.
 LDataN:  DoStor=T MaxTD1= 5 Len=  102
 Calling FoFJK, ICntrl=      2127 FMM=F ISym2X=0 I1Cent= 0 IOpClX= 0 NMat=1 NMatS=1 NMatT=0.
 ***** Axes restored to original set *****
 -------------------------------------------------------------------
 Center     Atomic                   Forces (Hartrees/Bohr)
 Number     Number              X              Y              Z
 -------------------------------------------------------------------
      1        8           0.000002438   -0.000010064    0.000008240
      2        6          -0.000000830    0.000007320   -0.000010418
      3        6           0.000000330    0.000001738    0.000003800
      4        6           0.000001411    0.000004986   -0.000000219
      5        6          -0.000003218   -0.000001584   -0.000002569
      6        6          -0.000001183    0.000001255    0.000001661
      7        6           0.000007592    0.000001949   -0.000002859
      8        6          -0.000002165   -0.000002632    0.000000874
      9        6          -0.000001011    0.000001780    0.000000121
     10        6          -0.000007072    0.000009340    0.000002752
     11        6          -0.000003052   -0.000013370    0.000003710
     12        6          -0.000001132    0.000005225   -0.000000059
     13        6          -0.000002242   -0.000001410    0.000001734
     14        7           0.000006334   -0.000000118   -0.000000437
     15        6          -0.000007409    0.000003946    0.000002709
     16        1           0.000006654   -0.000001247   -0.000001644
     17        1           0.000000677    0.000002151   -0.000000220
     18        1          -0.000000314   -0.000001750    0.000001026
     19        1          -0.000000673   -0.000001298   -0.000001592
     20        1          -0.000000201    0.000000332    0.000000086
     21        1           0.000000103   -0.000001343   -0.000001302
     22        1          -0.000004903   -0.000001356    0.000000669
     23        1          -0.000000530   -0.000001691   -0.000001028
     24        1           0.000002373   -0.000002065   -0.000001721
     25        1           0.000001666    0.000005316   -0.000003046
     26        1           0.000001972   -0.000002769    0.000000504
     27        1           0.000002074    0.000001003   -0.000000283
     28        1           0.000002310   -0.000003644   -0.000000489
 -------------------------------------------------------------------
 Cartesian Forces:  Max     0.000013370 RMS     0.000003753

 GradGradGradGradGradGradGradGradGradGradGradGradGradGradGradGradGradGrad
 Berny optimization.
 FormGI is forming the generalized inverse of G from B-inverse, IUseBI=4.
 Internal  Forces:  Max     0.000013583 RMS     0.000003108
 Search for a local minimum.
 Step number   1 out of a maximum of  154
 All quantities printed in internal units (Hartrees-Bohrs-Radians)
 Mixed Optimization -- En-DIIS/RFO-DIIS
 Second derivative matrix not updated -- first step.
 ITU=  0
     Eigenvalues ---    0.00230   0.00623   0.00671   0.01511   0.01513
     Eigenvalues ---    0.01665   0.02087   0.02113   0.02129   0.02147
     Eigenvalues ---    0.02150   0.02160   0.02165   0.02166   0.02172
     Eigenvalues ---    0.02175   0.02181   0.02205   0.02269   0.02315
     Eigenvalues ---    0.02511   0.04160   0.05117   0.05345   0.05471
     Eigenvalues ---    0.07869   0.09136   0.12728   0.15999   0.15999
     Eigenvalues ---    0.16000   0.16000   0.16000   0.16000   0.16000
     Eigenvalues ---    0.16000   0.16000   0.16000   0.17571   0.20083
     Eigenvalues ---    0.21953   0.22000   0.22000   0.22000   0.23200
     Eigenvalues ---    0.23442   0.23453   0.24943   0.24988   0.28065
     Eigenvalues ---    0.31272   0.31637   0.32675   0.33560   0.33599
     Eigenvalues ---    0.33904   0.34184   0.34386   0.34418   0.34551
     Eigenvalues ---    0.34552   0.34577   0.34620   0.34693   0.41928
     Eigenvalues ---    0.41998   0.42346   0.44493   0.45283   0.45692
     Eigenvalues ---    0.46063   0.46214   0.46534   0.46714   0.46717
     Eigenvalues ---    0.54780   0.57006   0.58567
 RFO step:  Lambda= 0.00000000D+00 EMin= 2.30000000D-03
 Linear search not attempted -- first point.
 Iteration  1 RMS(Cart)=  0.00017887 RMS(Int)=  0.00000001
 Iteration  2 RMS(Cart)=  0.00000002 RMS(Int)=  0.00000000
 Variable       Old X    -DE/DX   Delta X   Delta X   Delta X     New X
                                 (Linear)    (Quad)   (Total)
    R1        2.64949  -0.00001   0.00000  -0.00002  -0.00002   2.64947
    R2        1.82028   0.00001   0.00000   0.00001   0.00001   1.82030
    R3        2.91997  -0.00000   0.00000  -0.00000  -0.00000   2.91997
    R4        2.85496   0.00001   0.00000   0.00002   0.00002   2.85498
    R5        2.09627  -0.00000   0.00000  -0.00000  -0.00000   2.09626
    R6        2.84813  -0.00000   0.00000  -0.00000  -0.00000   2.84813
    R7        2.08011   0.00000   0.00000   0.00001   0.00001   2.08012
    R8        2.08079  -0.00000   0.00000  -0.00001  -0.00001   2.08078
    R9        2.64733  -0.00000   0.00000  -0.00000  -0.00000   2.64733
   R10        2.64753  -0.00000   0.00000  -0.00000  -0.00000   2.64753
   R11        2.63214   0.00000   0.00000   0.00000   0.00000   2.63214
   R12        2.06684  -0.00000   0.00000  -0.00000  -0.00000   2.06684
   R13        2.63651   0.00000   0.00000   0.00000   0.00000   2.63651
   R14        2.06408   0.00000   0.00000   0.00000   0.00000   2.06409
   R15        2.63306  -0.00000   0.00000  -0.00000  -0.00000   2.63306
   R16        2.06367  -0.00001   0.00000  -0.00001  -0.00001   2.06366
   R17        2.63667  -0.00000   0.00000  -0.00000  -0.00000   2.63666
   R18        2.06411  -0.00000   0.00000  -0.00000  -0.00000   2.06410
   R19        2.06631  -0.00000   0.00000  -0.00001  -0.00001   2.06630
   R20        2.63491  -0.00001   0.00000  -0.00001  -0.00001   2.63490
   R21        2.64316   0.00000   0.00000   0.00000   0.00000   2.64316
   R22        2.63111  -0.00000   0.00000   0.00000   0.00000   2.63111
   R23        2.06177   0.00001   0.00000   0.00002   0.00002   2.06178
   R24        2.63410   0.00000   0.00000   0.00000   0.00000   2.63411
   R25        2.06296  -0.00000   0.00000  -0.00001  -0.00001   2.06295
   R26        2.51674  -0.00000   0.00000  -0.00000  -0.00000   2.51674
   R27        2.07021  -0.00000   0.00000  -0.00001  -0.00001   2.07020
   R28        2.51108  -0.00001   0.00000  -0.00001  -0.00001   2.51107
   R29        2.07493   0.00000   0.00000   0.00001   0.00001   2.07495
    A1        1.88784  -0.00000   0.00000  -0.00001  -0.00001   1.88783
    A2        1.94325  -0.00001   0.00000  -0.00005  -0.00005   1.94320
    A3        1.89532   0.00001   0.00000   0.00010   0.00010   1.89542
    A4        1.92826  -0.00000   0.00000  -0.00002  -0.00002   1.92824
    A5        1.93225  -0.00000   0.00000  -0.00001  -0.00001   1.93224
    A6        1.87867   0.00000   0.00000  -0.00001  -0.00001   1.87865
    A7        1.88542  -0.00000   0.00000  -0.00001  -0.00001   1.88542
    A8        1.95120  -0.00001   0.00000  -0.00004  -0.00004   1.95116
    A9        1.89726   0.00000   0.00000   0.00001   0.00001   1.89726
   A10        1.88366   0.00000   0.00000   0.00001   0.00001   1.88366
   A11        1.92656   0.00000   0.00000   0.00000   0.00000   1.92656
   A12        1.92941   0.00000   0.00000   0.00002   0.00002   1.92944
   A13        1.87344  -0.00000   0.00000   0.00000   0.00000   1.87344
   A14        2.10789  -0.00001   0.00000  -0.00002  -0.00002   2.10787
   A15        2.10716   0.00000   0.00000   0.00002   0.00002   2.10717
   A16        2.06628   0.00000   0.00000   0.00000   0.00000   2.06629
   A17        2.11011  -0.00000   0.00000  -0.00000  -0.00000   2.11011
   A18        2.08372  -0.00000   0.00000  -0.00000  -0.00000   2.08372
   A19        2.08934   0.00000   0.00000   0.00000   0.00000   2.08934
   A20        2.09688   0.00000   0.00000   0.00000   0.00000   2.09688
   A21        2.09111  -0.00000   0.00000  -0.00000  -0.00000   2.09111
   A22        2.09519  -0.00000   0.00000  -0.00000  -0.00000   2.09519
   A23        2.08737  -0.00000   0.00000  -0.00001  -0.00001   2.08736
   A24        2.09765   0.00000   0.00000   0.00000   0.00000   2.09765
   A25        2.09816   0.00000   0.00000   0.00001   0.00001   2.09817
   A26        2.09647   0.00000   0.00000   0.00001   0.00001   2.09648
   A27        2.09619  -0.00000   0.00000  -0.00001  -0.00001   2.09618
   A28        2.09051  -0.00000   0.00000  -0.00000  -0.00000   2.09051
   A29        2.10925  -0.00000   0.00000  -0.00001  -0.00001   2.10924
   A30        2.08234   0.00000   0.00000   0.00001   0.00001   2.08235
   A31        2.09156  -0.00000   0.00000  -0.00000  -0.00000   2.09156
   A32        2.12498   0.00001   0.00000   0.00005   0.00005   2.12504
   A33        2.10646  -0.00001   0.00000  -0.00005  -0.00005   2.10641
   A34        2.05135  -0.00000   0.00000  -0.00001  -0.00001   2.05134
   A35        2.07360   0.00000   0.00000   0.00000   0.00000   2.07361
   A36        2.08454   0.00000   0.00000   0.00000   0.00000   2.08454
   A37        2.12497  -0.00000   0.00000  -0.00000  -0.00000   2.12497
   A38        2.07129  -0.00000   0.00000  -0.00000  -0.00000   2.07129
   A39        2.11203   0.00000   0.00000   0.00000   0.00000   2.11203
   A40        2.09987  -0.00000   0.00000  -0.00000  -0.00000   2.09986
   A41        2.14904  -0.00000   0.00000  -0.00000  -0.00000   2.14904
   A42        2.10073   0.00000   0.00000  -0.00000  -0.00000   2.10073
   A43        2.03340   0.00000   0.00000   0.00000   0.00000   2.03340
   A44        2.05475  -0.00000   0.00000  -0.00000  -0.00000   2.05475
   A45        2.16628   0.00000   0.00000   0.00001   0.00001   2.16629
   A46        2.08870  -0.00000   0.00000  -0.00001  -0.00001   2.08869
   A47        2.02819  -0.00000   0.00000  -0.00000  -0.00000   2.02818
    D1        0.95456   0.00000   0.00000   0.00001   0.00001   0.95457
    D2        3.08632  -0.00000   0.00000   0.00003   0.00003   3.08635
    D3       -1.13202   0.00000   0.00000   0.00007   0.00007  -1.13195
    D4       -1.01245   0.00000   0.00000   0.00001   0.00001  -1.01244
    D5        3.13966   0.00000   0.00000   0.00003   0.00003   3.13969
    D6        1.11299   0.00000   0.00000   0.00002   0.00002   1.11301
    D7       -3.12271  -0.00000   0.00000  -0.00007  -0.00007  -3.12278
    D8        1.02939  -0.00000   0.00000  -0.00005  -0.00005   1.02935
    D9       -0.99727  -0.00000   0.00000  -0.00006  -0.00006  -0.99733
   D10        1.10335  -0.00000   0.00000  -0.00005  -0.00005   1.10331
   D11       -1.02773  -0.00000   0.00000  -0.00003  -0.00003  -1.02775
   D12       -3.05439  -0.00000   0.00000  -0.00004  -0.00004  -3.05443
   D13       -0.36974   0.00000   0.00000   0.00020   0.00020  -0.36954
   D14        2.80302   0.00000   0.00000   0.00024   0.00024   2.80326
   D15        1.76871  -0.00000   0.00000   0.00020   0.00020   1.76890
   D16       -1.34172  -0.00000   0.00000   0.00023   0.00023  -1.34149
   D17       -2.46149  -0.00000   0.00000   0.00017   0.00017  -2.46132
   D18        0.71126  -0.00000   0.00000   0.00021   0.00021   0.71147
   D19       -1.49416   0.00000   0.00000   0.00008   0.00008  -1.49408
   D20        1.58103   0.00000   0.00000   0.00004   0.00004   1.58107
   D21        0.62002  -0.00000   0.00000   0.00006   0.00006   0.62008
   D22       -2.58797  -0.00000   0.00000   0.00002   0.00002  -2.58795
   D23        2.69014   0.00000   0.00000   0.00008   0.00008   2.69022
   D24       -0.51785   0.00000   0.00000   0.00004   0.00004  -0.51781
   D25        3.08050   0.00000   0.00000  -0.00001  -0.00001   3.08049
   D26       -0.06662  -0.00000   0.00000  -0.00002  -0.00002  -0.06665
   D27        0.00378   0.00000   0.00000   0.00003   0.00003   0.00381
   D28        3.13985   0.00000   0.00000   0.00002   0.00002   3.13986
   D29       -3.07802   0.00000   0.00000   0.00001   0.00001  -3.07801
   D30        0.07215   0.00000   0.00000   0.00001   0.00001   0.07216
   D31       -0.00128  -0.00000   0.00000  -0.00003  -0.00003  -0.00131
   D32       -3.13430  -0.00000   0.00000  -0.00003  -0.00003  -3.13433
   D33       -0.00459  -0.00000   0.00000  -0.00002  -0.00002  -0.00461
   D34        3.13510   0.00000   0.00000   0.00000   0.00000   3.13510
   D35       -3.14064  -0.00000   0.00000  -0.00000  -0.00000  -3.14064
   D36       -0.00094   0.00000   0.00000   0.00001   0.00001  -0.00093
   D37        0.00280   0.00000   0.00000   0.00001   0.00001   0.00281
   D38        3.14040   0.00000   0.00000   0.00000   0.00000   3.14040
   D39       -3.13689  -0.00000   0.00000  -0.00001  -0.00001  -3.13690
   D40        0.00071  -0.00000   0.00000  -0.00001  -0.00001   0.00069
   D41       -0.00032  -0.00000   0.00000  -0.00001  -0.00001  -0.00033
   D42        3.13554   0.00000   0.00000   0.00001   0.00001   3.13555
   D43       -3.13792  -0.00000   0.00000  -0.00000  -0.00000  -3.13792
   D44       -0.00206   0.00000   0.00000   0.00002   0.00002  -0.00204
   D45       -0.00043   0.00000   0.00000   0.00002   0.00002  -0.00041
   D46        3.13255   0.00000   0.00000   0.00002   0.00002   3.13257
   D47       -3.13630  -0.00000   0.00000  -0.00000  -0.00000  -3.13630
   D48       -0.00333   0.00000   0.00000  -0.00000  -0.00000  -0.00333
   D49       -3.10382   0.00000   0.00000   0.00003   0.00003  -3.10379
   D50        0.05002   0.00000   0.00000   0.00009   0.00009   0.05011
   D51        0.00755   0.00000   0.00000  -0.00000  -0.00000   0.00755
   D52       -3.12180   0.00000   0.00000   0.00006   0.00006  -3.12174
   D53        3.10068  -0.00000   0.00000  -0.00004  -0.00004   3.10063
   D54       -0.04759  -0.00000   0.00000  -0.00002  -0.00002  -0.04761
   D55       -0.01103  -0.00000   0.00000  -0.00001  -0.00001  -0.01104
   D56        3.12389   0.00000   0.00000   0.00001   0.00001   3.12390
   D57        0.00085   0.00000   0.00000   0.00001   0.00001   0.00087
   D58       -3.13774   0.00000   0.00000   0.00001   0.00001  -3.13773
   D59        3.12990  -0.00000   0.00000  -0.00004  -0.00004   3.12986
   D60       -0.00869  -0.00000   0.00000  -0.00005  -0.00005  -0.00874
   D61       -0.00727  -0.00000   0.00000  -0.00002  -0.00002  -0.00728
   D62        3.13976   0.00000   0.00000   0.00001   0.00001   3.13976
   D63        3.13135  -0.00000   0.00000  -0.00001  -0.00001   3.13133
   D64       -0.00481   0.00000   0.00000   0.00001   0.00001  -0.00480
   D65        0.00437   0.00000   0.00000   0.00000   0.00000   0.00437
   D66        3.14072  -0.00000   0.00000  -0.00002  -0.00002   3.14071
   D67        0.00505   0.00000   0.00000   0.00001   0.00001   0.00507
   D68       -3.13007  -0.00000   0.00000  -0.00001  -0.00001  -3.13008
         Item               Value     Threshold  Converged?
 Maximum Force            0.000014     0.000450     YES
 RMS     Force            0.000003     0.000300     YES
 Maximum Displacement     0.000663     0.001800     YES
 RMS     Displacement     0.000179     0.001200     YES
 Predicted change in Energy=-4.295285D-09
 Optimization completed.
    -- Stationary point found.
                           ----------------------------
                           !   Optimized Parameters   !
                           ! (Angstroms and Degrees)  !
 --------------------------                            --------------------------
 ! Name  Definition              Value          Derivative Info.                !
 --------------------------------------------------------------------------------
 ! R1    R(1,2)                  1.402          -DE/DX =    0.0                 !
 ! R2    R(1,16)                 0.9633         -DE/DX =    0.0                 !
 ! R3    R(2,3)                  1.5452         -DE/DX =    0.0                 !
 ! R4    R(2,10)                 1.5108         -DE/DX =    0.0                 !
 ! R5    R(2,17)                 1.1093         -DE/DX =    0.0                 !
 ! R6    R(3,4)                  1.5072         -DE/DX =    0.0                 !
 ! R7    R(3,18)                 1.1007         -DE/DX =    0.0                 !
 ! R8    R(3,19)                 1.1011         -DE/DX =    0.0                 !
 ! R9    R(4,5)                  1.4009         -DE/DX =    0.0                 !
 ! R10   R(4,9)                  1.401          -DE/DX =    0.0                 !
 ! R11   R(5,6)                  1.3929         -DE/DX =    0.0                 !
 ! R12   R(5,20)                 1.0937         -DE/DX =    0.0                 !
 ! R13   R(6,7)                  1.3952         -DE/DX =    0.0                 !
 ! R14   R(6,21)                 1.0923         -DE/DX =    0.0                 !
 ! R15   R(7,8)                  1.3934         -DE/DX =    0.0                 !
 ! R16   R(7,22)                 1.092          -DE/DX =    0.0                 !
 ! R17   R(8,9)                  1.3953         -DE/DX =    0.0                 !
 ! R18   R(8,23)                 1.0923         -DE/DX =    0.0                 !
 ! R19   R(9,24)                 1.0934         -DE/DX =    0.0                 !
 ! R20   R(10,11)                1.3943         -DE/DX =    0.0                 !
 ! R21   R(10,15)                1.3987         -DE/DX =    0.0                 !
 ! R22   R(11,12)                1.3923         -DE/DX =    0.0                 !
 ! R23   R(11,25)                1.091          -DE/DX =    0.0                 !
 ! R24   R(12,13)                1.3939         -DE/DX =    0.0                 !
 ! R25   R(12,26)                1.0917         -DE/DX =    0.0                 !
 ! R26   R(13,14)                1.3318         -DE/DX =    0.0                 !
 ! R27   R(13,27)                1.0955         -DE/DX =    0.0                 !
 ! R28   R(14,15)                1.3288         -DE/DX =    0.0                 !
 ! R29   R(15,28)                1.098          -DE/DX =    0.0                 !
 ! A1    A(2,1,16)             108.1652         -DE/DX =    0.0                 !
 ! A2    A(1,2,3)              111.3398         -DE/DX =    0.0                 !
 ! A3    A(1,2,10)             108.5938         -DE/DX =    0.0                 !
 ! A4    A(1,2,17)             110.4814         -DE/DX =    0.0                 !
 ! A5    A(3,2,10)             110.7098         -DE/DX =    0.0                 !
 ! A6    A(3,2,17)             107.6397         -DE/DX =    0.0                 !
 ! A7    A(10,2,17)            108.0268         -DE/DX =    0.0                 !
 ! A8    A(2,3,4)              111.7953         -DE/DX =    0.0                 !
 ! A9    A(2,3,18)             108.7048         -DE/DX =    0.0                 !
 ! A10   A(2,3,19)             107.9256         -DE/DX =    0.0                 !
 ! A11   A(4,3,18)             110.3837         -DE/DX =    0.0                 !
 ! A12   A(4,3,19)             110.5473         -DE/DX =    0.0                 !
 ! A13   A(18,3,19)            107.3402         -DE/DX =    0.0                 !
 ! A14   A(3,4,5)              120.7735         -DE/DX =    0.0                 !
 ! A15   A(3,4,9)              120.7311         -DE/DX =    0.0                 !
 ! A16   A(5,4,9)              118.3894         -DE/DX =    0.0                 !
 ! A17   A(4,5,6)              120.9002         -DE/DX =    0.0                 !
 ! A18   A(4,5,20)             119.3885         -DE/DX =    0.0                 !
 ! A19   A(6,5,20)             119.7105         -DE/DX =    0.0                 !
 ! A20   A(5,6,7)              120.1424         -DE/DX =    0.0                 !
 ! A21   A(5,6,21)             119.8118         -DE/DX =    0.0                 !
 ! A22   A(7,6,21)             120.0457         -DE/DX =    0.0                 !
 ! A23   A(6,7,8)              119.5975         -DE/DX =    0.0                 !
 ! A24   A(6,7,22)             120.1864         -DE/DX =    0.0                 !
 ! A25   A(8,7,22)             120.2158         -DE/DX =    0.0                 !
 ! A26   A(7,8,9)              120.119          -DE/DX =    0.0                 !
 ! A27   A(7,8,23)             120.1026         -DE/DX =    0.0                 !
 ! A28   A(9,8,23)             119.7777         -DE/DX =    0.0                 !
 ! A29   A(4,9,8)              120.8511         -DE/DX =    0.0                 !
 ! A30   A(4,9,24)             119.3095         -DE/DX =    0.0                 !
 ! A31   A(8,9,24)             119.8376         -DE/DX =    0.0                 !
 ! A32   A(2,10,11)            121.7525         -DE/DX =    0.0                 !
 ! A33   A(2,10,15)            120.691          -DE/DX =    0.0                 !
 ! A34   A(11,10,15)           117.5335         -DE/DX =    0.0                 !
 ! A35   A(10,11,12)           118.8087         -DE/DX =    0.0                 !
 ! A36   A(10,11,25)           119.4354         -DE/DX =    0.0                 !
 ! A37   A(12,11,25)           121.7521         -DE/DX =    0.0                 !
 ! A38   A(11,12,13)           118.6761         -DE/DX =    0.0                 !
 ! A39   A(11,12,26)           121.0103         -DE/DX =    0.0                 !
 ! A40   A(13,12,26)           120.3134         -DE/DX =    0.0                 !
 ! A41   A(12,13,14)           123.1309         -DE/DX =    0.0                 !
 ! A42   A(12,13,27)           120.363          -DE/DX =    0.0                 !
 ! A43   A(14,13,27)           116.5054         -DE/DX =    0.0                 !
 ! A44   A(13,14,15)           117.7286         -DE/DX =    0.0                 !
 ! A45   A(10,15,14)           124.1189         -DE/DX =    0.0                 !
 ! A46   A(10,15,28)           119.6735         -DE/DX =    0.0                 !
 ! A47   A(14,15,28)           116.2066         -DE/DX =    0.0                 !
 ! D1    D(16,1,2,3)            54.692          -DE/DX =    0.0                 !
 ! D2    D(16,1,2,10)          176.8332         -DE/DX =    0.0                 !
 ! D3    D(16,1,2,17)          -64.8601         -DE/DX =    0.0                 !
 ! D4    D(1,2,3,4)            -58.009          -DE/DX =    0.0                 !
 ! D5    D(1,2,3,18)           179.8891         -DE/DX =    0.0                 !
 ! D6    D(1,2,3,19)            63.7698         -DE/DX =    0.0                 !
 ! D7    D(10,2,3,4)          -178.9182         -DE/DX =    0.0                 !
 ! D8    D(10,2,3,18)           58.9799         -DE/DX =    0.0                 !
 ! D9    D(10,2,3,19)          -57.1394         -DE/DX =    0.0                 !
 ! D10   D(17,2,3,4)            63.2175         -DE/DX =    0.0                 !
 ! D11   D(17,2,3,18)          -58.8844         -DE/DX =    0.0                 !
 ! D12   D(17,2,3,19)         -175.0037         -DE/DX =    0.0                 !
 ! D13   D(1,2,10,11)          -21.1843         -DE/DX =    0.0                 !
 ! D14   D(1,2,10,15)          160.6012         -DE/DX =    0.0                 !
 ! D15   D(3,2,10,11)          101.3394         -DE/DX =    0.0                 !
 ! D16   D(3,2,10,15)          -76.8751         -DE/DX =    0.0                 !
 ! D17   D(17,2,10,11)        -141.0331         -DE/DX =    0.0                 !
 ! D18   D(17,2,10,15)          40.7525         -DE/DX =    0.0                 !
 ! D19   D(2,3,4,5)            -85.609          -DE/DX =    0.0                 !
 ! D20   D(2,3,4,9)             90.5864         -DE/DX =    0.0                 !
 ! D21   D(18,3,4,5)            35.5247         -DE/DX =    0.0                 !
 ! D22   D(18,3,4,9)          -148.28           -DE/DX =    0.0                 !
 ! D23   D(19,3,4,5)           154.1339         -DE/DX =    0.0                 !
 ! D24   D(19,3,4,9)           -29.6708         -DE/DX =    0.0                 !
 ! D25   D(3,4,5,6)            176.4995         -DE/DX =    0.0                 !
 ! D26   D(3,4,5,20)            -3.8173         -DE/DX =    0.0                 !
 ! D27   D(9,4,5,6)              0.2168         -DE/DX =    0.0                 !
 ! D28   D(9,4,5,20)           179.9            -DE/DX =    0.0                 !
 ! D29   D(3,4,9,8)           -176.3576         -DE/DX =    0.0                 !
 ! D30   D(3,4,9,24)             4.1336         -DE/DX =    0.0                 !
 ! D31   D(5,4,9,8)             -0.0733         -DE/DX =    0.0                 !
 ! D32   D(5,4,9,24)          -179.5821         -DE/DX =    0.0                 !
 ! D33   D(4,5,6,7)             -0.263          -DE/DX =    0.0                 !
 ! D34   D(4,5,6,21)           179.6282         -DE/DX =    0.0                 !
 ! D35   D(20,5,6,7)          -179.9452         -DE/DX =    0.0                 !
 ! D36   D(20,5,6,21)           -0.054          -DE/DX =    0.0                 !
 ! D37   D(5,6,7,8)              0.1605         -DE/DX =    0.0                 !
 ! D38   D(5,6,7,22)           179.9317         -DE/DX =    0.0                 !
 ! D39   D(21,6,7,8)          -179.7305         -DE/DX =    0.0                 !
 ! D40   D(21,6,7,22)            0.0407         -DE/DX =    0.0                 !
 ! D41   D(6,7,8,9)             -0.0184         -DE/DX =    0.0                 !
 ! D42   D(6,7,8,23)           179.6532         -DE/DX =    0.0                 !
 ! D43   D(22,7,8,9)          -179.7894         -DE/DX =    0.0                 !
 ! D44   D(22,7,8,23)           -0.1179         -DE/DX =    0.0                 !
 ! D45   D(7,8,9,4)             -0.0244         -DE/DX =    0.0                 !
 ! D46   D(7,8,9,24)           179.4818         -DE/DX =    0.0                 !
 ! D47   D(23,8,9,4)          -179.697          -DE/DX =    0.0                 !
 ! D48   D(23,8,9,24)           -0.1908         -DE/DX =    0.0                 !
 ! D49   D(2,10,11,12)        -177.8358         -DE/DX =    0.0                 !
 ! D50   D(2,10,11,25)           2.8659         -DE/DX =    0.0                 !
 ! D51   D(15,10,11,12)          0.4326         -DE/DX =    0.0                 !
 ! D52   D(15,10,11,25)       -178.8657         -DE/DX =    0.0                 !
 ! D53   D(2,10,15,14)         177.6557         -DE/DX =    0.0                 !
 ! D54   D(2,10,15,28)          -2.7267         -DE/DX =    0.0                 !
 ! D55   D(11,10,15,14)         -0.6321         -DE/DX =    0.0                 !
 ! D56   D(11,10,15,28)        178.9855         -DE/DX =    0.0                 !
 ! D57   D(10,11,12,13)          0.0489         -DE/DX =    0.0                 !
 ! D58   D(10,11,12,26)       -179.7792         -DE/DX =    0.0                 !
 ! D59   D(25,11,12,13)        179.3303         -DE/DX =    0.0                 !
 ! D60   D(25,11,12,26)         -0.4979         -DE/DX =    0.0                 !
 ! D61   D(11,12,13,14)         -0.4165         -DE/DX =    0.0                 !
 ! D62   D(11,12,13,27)        179.8948         -DE/DX =    0.0                 !
 ! D63   D(26,12,13,14)        179.4129         -DE/DX =    0.0                 !
 ! D64   D(26,12,13,27)         -0.2758         -DE/DX =    0.0                 !
 ! D65   D(12,13,14,15)          0.2504         -DE/DX =    0.0                 !
 ! D66   D(27,13,14,15)        179.9503         -DE/DX =    0.0                 !
 ! D67   D(13,14,15,10)          0.2896         -DE/DX =    0.0                 !
 ! D68   D(13,14,15,28)       -179.34           -DE/DX =    0.0                 !
 --------------------------------------------------------------------------------
 GradGradGradGradGradGradGradGradGradGradGradGradGradGradGradGradGradGrad

                          Input orientation:                          
 ---------------------------------------------------------------------
 Center     Atomic      Atomic             Coordinates (Angstroms)
 Number     Number       Type             X           Y           Z
 ---------------------------------------------------------------------
      1          8           0       -0.105330    1.305450   -1.067440
      2          6           0       -0.420130    0.036680   -0.560620
      3          6           0        0.390730   -0.275450    0.717140
      4          6           0        1.875620   -0.205010    0.468760
      5          6           0        2.572940   -1.314540   -0.026440
      6          6           0        3.930810   -1.230930   -0.325240
      7          6           0        4.616610   -0.030360   -0.138580
      8          6           0        3.935670    1.082180    0.351330
      9          6           0        2.576130    0.994310    0.652480
[...]
     3  C   -0.053411   0.245831   5.402027   0.171978  -0.075063   0.008781
     4  C   -0.027261   0.023840   0.171978   5.241235   0.400821   0.041944
     5  C    0.000352  -0.009150  -0.075063   0.400821   5.074206   0.426619
     6  C    0.000105   0.004092   0.008781   0.041944   0.426619   4.933516
     7  C    0.000336  -0.001898  -0.003027  -0.126450   0.043740   0.411621
     8  C   -0.001652   0.004732   0.011162   0.059062  -0.086094   0.037827
     9  C    0.026833  -0.024672  -0.100027   0.201972   0.054646  -0.109602
    10  C   -0.108182   0.205303  -0.061579   0.019911   0.001823   0.000035
    11  C    0.025842  -0.072793  -0.007656  -0.002167  -0.000095  -0.000021
    12  C   -0.000109   0.005542   0.001172  -0.000149   0.000005   0.000000
    13  C    0.000258  -0.000399   0.000258  -0.000017  -0.000000   0.000000
    14  N   -0.000238   0.005957   0.000287   0.000004   0.000001  -0.000000
    15  C    0.000136  -0.024282   0.002661  -0.001221   0.000235  -0.000037
    16  H    0.301229  -0.021516  -0.017006   0.022230  -0.001140   0.000420
    17  H   -0.032759   0.442661  -0.073923  -0.008985  -0.000485  -0.001003
    18  H    0.004110  -0.038751   0.399477  -0.039799  -0.001682  -0.000099
    19  H    0.001360  -0.037126   0.413980  -0.053420   0.003493  -0.000395
    20  H    0.000027  -0.003063   0.002381  -0.067291   0.440347  -0.047935
    21  H    0.000002   0.000042  -0.000129   0.012573  -0.056698   0.443454
    22  H    0.000000  -0.000005   0.000047  -0.003325   0.010079  -0.053225
    23  H   -0.000081   0.000059  -0.000161   0.016223  -0.003891   0.011498
    24  H    0.003022  -0.003126   0.001520  -0.073494   0.012703  -0.004638
    25  H    0.019750  -0.004934  -0.000315  -0.000869  -0.000009  -0.000003
    26  H   -0.000109  -0.000132  -0.000002   0.000002   0.000000   0.000000
    27  H   -0.000002   0.000036   0.000014  -0.000000   0.000000  -0.000000
    28  H   -0.000091   0.008064  -0.002251  -0.000020   0.000119  -0.000018
               7          8          9         10         11         12
     1  O    0.000336  -0.001652   0.026833  -0.108182   0.025842  -0.000109
     2  C   -0.001898   0.004732  -0.024672   0.205303  -0.072793   0.005542
     3  C   -0.003027   0.011162  -0.100027  -0.061579  -0.007656   0.001172
     4  C   -0.126450   0.059062   0.201972   0.019911  -0.002167  -0.000149
     5  C    0.043740  -0.086094   0.054646   0.001823  -0.000095   0.000005
     6  C    0.411621   0.037827  -0.109602   0.000035  -0.000021   0.000000
     7  C    4.975946   0.396403   0.085607  -0.000042   0.000010   0.000000
     8  C    0.396403   4.968870   0.343433  -0.000088  -0.000033   0.000000
     9  C    0.085607   0.343433   5.391321  -0.005096   0.001722  -0.000038
    10  C   -0.000042  -0.000088  -0.005096   5.365553   0.352991  -0.025458
    11  C    0.000010  -0.000033   0.001722   0.352991   5.109951   0.452775
    12  C    0.000000   0.000000  -0.000038  -0.025458   0.452775   4.910539
    13  C   -0.000000   0.000000   0.000003  -0.045516   0.016673   0.491956
    14  N    0.000000  -0.000000  -0.000003  -0.031167  -0.078309  -0.036992
    15  C    0.000007  -0.000003   0.000376   0.354792   0.033322  -0.027471
    16  H   -0.000615   0.000663  -0.004175   0.016909  -0.003332   0.000056
    17  H    0.000339  -0.000723   0.012912  -0.072633   0.014933  -0.000479
    18  H    0.000479  -0.001265   0.011200   0.000940   0.003379  -0.000354
    19  H    0.000124   0.000744   0.007991   0.003749   0.003366  -0.000101
    20  H    0.010206  -0.003979   0.013471  -0.000104   0.000020   0.000001
    21  H   -0.054545   0.010902  -0.004036   0.000002  -0.000000  -0.000000
    22  H    0.442100  -0.054861   0.010949  -0.000000   0.000000   0.000000
    23  H   -0.058122   0.448153  -0.063762   0.000001  -0.000000  -0.000000
    24  H    0.011766  -0.051291   0.458197  -0.000300   0.000279  -0.000003
    25  H    0.000003  -0.000007   0.000617  -0.048509   0.432924  -0.046396
    26  H   -0.000000   0.000000  -0.000001   0.013100  -0.064845   0.425122
    27  H    0.000000  -0.000000  -0.000000   0.000224   0.001546  -0.063794
    28  H    0.000003  -0.000004   0.000104  -0.102641   0.007153  -0.000979
              13         14         15         16         17         18
     1  O    0.000258  -0.000238   0.000136   0.301229  -0.032759   0.004110
     2  C   -0.000399   0.005957  -0.024282  -0.021516   0.442661  -0.038751
     3  C    0.000258   0.000287   0.002661  -0.017006  -0.073923   0.399477
     4  C   -0.000017   0.000004  -0.001221   0.022230  -0.008985  -0.039799
     5  C   -0.000000   0.000001   0.000235  -0.001140  -0.000485  -0.001682
     6  C    0.000000  -0.000000  -0.000037   0.000420  -0.001003  -0.000099
     7  C   -0.000000   0.000000   0.000007  -0.000615   0.000339   0.000479
     8  C    0.000000  -0.000000  -0.000003   0.000663  -0.000723  -0.001265
     9  C    0.000003  -0.000003   0.000376  -0.004175   0.012912   0.011200
    10  C   -0.045516  -0.031167   0.354792   0.016909  -0.072633   0.000940
    11  C    0.016673  -0.078309   0.033322  -0.003332   0.014933   0.003379
    12  C    0.491956  -0.036992  -0.027471   0.000056  -0.000479  -0.000354
    13  C    4.764073   0.502177  -0.101956  -0.000008  -0.000078   0.000106
    14  N    0.502177   6.428799   0.522167   0.000030  -0.000067   0.000026
    15  C   -0.101956   0.522167   4.886962  -0.000753   0.007708  -0.003474
    16  H   -0.000008   0.000030  -0.000753   0.386900  -0.005650  -0.000248
    17  H   -0.000078  -0.000067   0.007708  -0.005650   0.599291   0.004080
    18  H    0.000106   0.000026  -0.003474  -0.000248   0.004080   0.525173
    19  H   -0.000040  -0.000141   0.002843   0.000247   0.004280  -0.008133
    20  H   -0.000001  -0.000000   0.000200  -0.000072   0.001787   0.001223
    21  H    0.000000  -0.000000  -0.000000   0.000004  -0.000008  -0.000043
    22  H   -0.000000   0.000000   0.000000  -0.000006   0.000001   0.000000
    23  H    0.000000  -0.000000  -0.000000   0.000029  -0.000007  -0.000003
    24  H    0.000000  -0.000000   0.000038  -0.001397   0.000281   0.000346
    25  H    0.004636  -0.002056   0.007695  -0.001393   0.001625   0.000048
    26  H   -0.038043   0.007498  -0.001897   0.000003   0.000006   0.000000
    27  H    0.431560  -0.029166   0.003179   0.000000  -0.000002  -0.000001
    28  H    0.005546  -0.026941   0.448116  -0.000040   0.004006   0.001267
              19         20         21         22         23         24
     1  O    0.001360   0.000027   0.000002   0.000000  -0.000081   0.003022
     2  C   -0.037126  -0.003063   0.000042  -0.000005   0.000059  -0.003126
     3  C    0.413980   0.002381  -0.000129   0.000047  -0.000161   0.001520
     4  C   -0.053420  -0.067291   0.012573  -0.003325   0.016223  -0.073494
     5  C    0.003493   0.440347  -0.056698   0.010079  -0.003891   0.012703
     6  C   -0.000395  -0.047935   0.443454  -0.053225   0.011498  -0.004638
     7  C    0.000124   0.010206  -0.054545   0.442100  -0.058122   0.011766
     8  C    0.000744  -0.003979   0.010902  -0.054861   0.448153  -0.051291
     9  C    0.007991   0.013471  -0.004036   0.010949  -0.063762   0.458197
    10  C    0.003749  -0.000104   0.000002  -0.000000   0.000001  -0.000300
    11  C    0.003366   0.000020  -0.000000   0.000000  -0.000000   0.000279
    12  C   -0.000101   0.000001  -0.000000   0.000000  -0.000000  -0.000003
    13  C   -0.000040  -0.000001   0.000000  -0.000000   0.000000   0.000000
    14  N   -0.000141  -0.000000  -0.000000   0.000000  -0.000000  -0.000000
    15  C    0.002843   0.000200  -0.000000   0.000000  -0.000000   0.000038
    16  H    0.000247  -0.000072   0.000004  -0.000006   0.000029  -0.001397
    17  H    0.004280   0.001787  -0.000008   0.000001  -0.000007   0.000281
    18  H   -0.008133   0.001223  -0.000043   0.000000  -0.000003   0.000346
    19  H    0.513872   0.000312   0.000008  -0.000001  -0.000039   0.001915
    20  H    0.000312   0.534736  -0.006837  -0.000120   0.000027  -0.000041
    21  H    0.000008  -0.006837   0.537672  -0.006688  -0.000096   0.000025
    22  H   -0.000001  -0.000120  -0.006688   0.536844  -0.007018  -0.000073
    23  H   -0.000039   0.000027  -0.000096  -0.007018   0.538468  -0.006835
    24  H    0.001915  -0.000041   0.000025  -0.000073  -0.006835   0.510238
    25  H    0.000878   0.000001   0.000000   0.000000  -0.000001   0.000141
    26  H    0.000006   0.000000   0.000000  -0.000000   0.000000  -0.000000
    27  H   -0.000002  -0.000000  -0.000000  -0.000000  -0.000000  -0.000000
    28  H    0.000296   0.000286  -0.000000  -0.000000  -0.000000   0.000002
              25         26         27         28
     1  O    0.019750  -0.000109  -0.000002  -0.000091
     2  C   -0.004934  -0.000132   0.000036   0.008064
     3  C   -0.000315  -0.000002   0.000014  -0.002251
     4  C   -0.000869   0.000002  -0.000000  -0.000020
     5  C   -0.000009   0.000000   0.000000   0.000119
     6  C   -0.000003   0.000000  -0.000000  -0.000018
     7  C    0.000003  -0.000000   0.000000   0.000003
     8  C   -0.000007   0.000000  -0.000000  -0.000004
     9  C    0.000617  -0.000001  -0.000000   0.000104
    10  C   -0.048509   0.013100   0.000224  -0.102641
    11  C    0.432924  -0.064845   0.001546   0.007153
    12  C   -0.046396   0.425122  -0.063794  -0.000979
    13  C    0.004636  -0.038043   0.431560   0.005546
    14  N   -0.002056   0.007498  -0.029166  -0.026941
    15  C    0.007695  -0.001897   0.003179   0.448116
    16  H   -0.001393   0.000003   0.000000  -0.000040
    17  H    0.001625   0.000006  -0.000002   0.004006
    18  H    0.000048   0.000000  -0.000001   0.001267
    19  H    0.000878   0.000006  -0.000002   0.000296
    20  H    0.000001   0.000000  -0.000000   0.000286
    21  H    0.000000   0.000000  -0.000000  -0.000000
    22  H    0.000000  -0.000000  -0.000000  -0.000000
    23  H   -0.000001   0.000000  -0.000000  -0.000000
    24  H    0.000141  -0.000000  -0.000000   0.000002
    25  H    0.485667  -0.005848  -0.000190  -0.000080
    26  H   -0.005848   0.539268  -0.001733   0.000095
    27  H   -0.000190  -0.001733   0.530964  -0.000139
    28  H   -0.000080   0.000095  -0.000139   0.535481
 Mulliken charges:
               1
     1  O   -0.464184
     2  C    0.062985
     3  C   -0.267028
     4  C    0.192672
     5  C   -0.234882
     6  C   -0.102938
     7  C   -0.133992
     8  C   -0.081952
     9  C   -0.309945
    10  C    0.165981
    11  C   -0.227632
    12  C   -0.084846
    13  C   -0.031189
    14  N   -0.261866
    15  C   -0.109342
    16  H    0.328629
    17  H    0.102893
    18  H    0.141994
    19  H    0.139933
    20  H    0.124418
    21  H    0.124397
    22  H    0.125303
    23  H    0.125558
    24  H    0.140725
    25  H    0.156625
    26  H    0.127509
    27  H    0.127507
    28  H    0.122667
 Sum of Mulliken charges =  -0.00000
 Mulliken charges with hydrogens summed into heavy atoms:
               1
     1  O   -0.135555
     2  C    0.165878
     3  C    0.014899
     4  C    0.192672
     5  C   -0.110464
     6  C    0.021459
     7  C   -0.008689
     8  C    0.043606
     9  C   -0.169220
    10  C    0.165981
    11  C   -0.071007
    12  C    0.042663
    13  C    0.096319
    14  N   -0.261866
    15  C    0.013325
 Electronic spatial extent (au):  <R**2>=           4252.9938
 Charge=             -0.0000 electrons
 Dipole moment (field-independent basis, Debye):
    X=              2.6462    Y=             -1.0298    Z=             -0.2119  Tot=              2.8474
 Quadrupole moment (field-independent basis, Debye-Ang):
   XX=            -84.4843   YY=            -85.5408   ZZ=            -92.3756
   XY=              7.3364   XZ=              3.8415   YZ=              3.7597
 Traceless Quadrupole moment (field-independent basis, Debye-Ang):
   XX=              2.9827   YY=              1.9261   ZZ=             -4.9087
   XY=              7.3364   XZ=              3.8415   YZ=              3.7597
 Octapole moment (field-independent basis, Debye-Ang**2):
  XXX=             32.4895  YYY=            -11.5534  ZZZ=              4.8381  XYY=             21.4999
  XXY=            -47.7524  XXZ=              5.8618  XZZ=             -2.1966  YZZ=             -0.8652
  YYZ=              1.1283  XYZ=              1.8982
 Hexadecapole moment (field-independent basis, Debye-Ang**3):
 XXXX=          -4610.4096 YYYY=           -628.3413 ZZZZ=           -247.1729 XXXY=            159.0090
 XXXZ=            111.0922 YYYX=             46.1327 YYYZ=             11.6275 ZZZX=              7.0058
 ZZZY=             -3.4614 XXYY=           -945.6242 XXZZ=           -941.7979 YYZZ=           -153.3024
 XXYZ=             34.9422 YYXZ=              4.0907 ZZXY=             -8.4242
 N-N= 8.979694613276D+02 E-N=-3.268334799782D+03  KE= 6.298030315669D+02
 Breneman (CHELPG) radii used.
 Read replacement radii for each type of atom:
 Atom Element Radius
    1     8    1.70
    2     6    1.50
    3     6    1.50
    4     6    1.50
    5     6    1.50
    6     6    1.50
    7     6    1.50
    8     6    1.50
    9     6    1.50
   10     6    1.50
   11     6    1.50
   12     6    1.50
   13     6    1.50
   14     7    1.70
   15     6    1.50
   16     1    1.45
   17     1    1.45
   18     1    1.45
   19     1    1.45
   20     1    1.45
   21     1    1.45
   22     1    1.45
   23     1    1.45
   24     1    1.45
   25     1    1.45
   26     1    1.45
   27     1    1.45
   28     1    1.45
 Generate Potential Derived Charges using the Breneman model, NDens= 1.
 Grid spacing= 0.300 Box extension= 2.800
 NStep X,Y,Z=   57     35     30   Total possible points=       59850
 Number of Points to Fit=   17215

 **********************************************************************

            Electrostatic Properties Using The SCF Density.

 **********************************************************************

       Atomic Center    1 is at  -0.105332 -1.305450  1.067439
       Atomic Center    2 is at  -0.420131 -0.036680  0.560619
       Atomic Center    3 is at   0.390729  0.275450 -0.717141
       Atomic Center    4 is at   1.875619  0.205009 -0.468761
       Atomic Center    5 is at   2.572939  1.314539  0.026439
       Atomic Center    6 is at   3.930809  1.230929  0.325239
       Atomic Center    7 is at   4.616609  0.030358  0.138579
       Atomic Center    8 is at   3.935668 -1.082181 -0.351331
       Atomic Center    9 is at   2.576128 -0.994311 -0.652481
       Atomic Center   10 is at  -1.903351  0.014750  0.278019
       Atomic Center   11 is at  -2.656022 -1.144580  0.094669
       Atomic Center   12 is at  -4.009812 -1.024779 -0.207751
       Atomic Center   13 is at  -4.560501  0.251101 -0.316611
       Atomic Center   14 is at  -3.854841  1.366231 -0.137081
       Atomic Center   15 is at  -2.564451  1.241140  0.154429
       Atomic Center   16 is at   0.848028 -1.348511  1.198229
       Atomic Center   17 is at  -0.185601  0.748920  1.307859
       Atomic Center   18 is at   0.109429  1.276610 -1.077971
       Atomic Center   19 is at   0.093779 -0.448140 -1.492171
       Atomic Center   20 is at   2.042479  2.259469  0.174599
       Atomic Center   21 is at   4.458379  2.108828  0.704719
       Atomic Center   22 is at   5.681469 -0.035692  0.371559
       Atomic Center   23 is at   4.465728 -2.024622 -0.505971
       Atomic Center   24 is at   2.048218 -1.867861 -1.044701
       Atomic Center   25 is at  -2.175742 -2.118290  0.202329
       Atomic Center   26 is at  -4.633542 -1.908529 -0.355041
       Atomic Center   27 is at  -5.622221  0.377471 -0.555191
       Atomic Center   28 is at  -2.009271  2.175870  0.308289
   17215 points will be used for fitting atomic charges
 Fitting point charges to electrostatic potential
 Charges from ESP fit, RMS=   0.00388 RRMS=   0.31300:
 ESP charges:
               1
     1  O   -0.629822
     2  C    0.433449
     3  C   -0.224433
     4  C    0.214927
     5  C   -0.217398
     6  C   -0.052739
     7  C   -0.114399
     8  C   -0.074413
     9  C   -0.193559
    10  C   -0.181710
    11  C    0.143864
    12  C   -0.381198
    13  C    0.410881
    14  N   -0.620777
    15  C    0.324214
    16  H    0.351156
    17  H   -0.057952
    18  H    0.042668
    19  H    0.043122
    20  H    0.127235
    21  H    0.086413
    22  H    0.096278
    23  H    0.093067
    24  H    0.121493
    25  H    0.083911
    26  H    0.131852
    27  H    0.009717
    28  H    0.034153
 Sum of ESP charges =   0.00000
 ESP charges with hydrogens summed into heavy atoms:
               1
     1  O   -0.278665
     2  C    0.375497
     3  C   -0.138643
     4  C    0.214927
     5  C   -0.090163
     6  C    0.033674
     7  C   -0.018121
     8  C    0.018654
     9  C   -0.072066
    10  C   -0.181710
    11  C    0.227775
    12  C   -0.249345
    13  C    0.420598
    14  N   -0.620777
    15  C    0.358366
 Charge=   0.00000 Dipole=     2.6441    -0.9327    -0.2557 Tot=     2.8154
 -----------------------------------------------------------------

              Electrostatic Properties (Atomic Units)

 -----------------------------------------------------------------
    Center     Electric         -------- Electric Field --------
               Potential          X             Y             Z
 -----------------------------------------------------------------
    1 Atom    -22.350834
    2 Atom    -14.698362
    3 Atom    -14.755774
    4 Atom    -14.748384
    5 Atom    -14.758881
    6 Atom    -14.757785
    7 Atom    -14.759433
    8 Atom    -14.757607
    9 Atom    -14.758994
   10 Atom    -14.756648
   11 Atom    -14.757527
   12 Atom    -14.763640
   13 Atom    -14.740845
   14 Atom    -18.402731
   15 Atom    -14.738119
   16 Atom     -0.997171
   17 Atom     -1.114088
   18 Atom     -1.104509
   19 Atom     -1.109145
   20 Atom     -1.095675
   21 Atom     -1.097246
   22 Atom     -1.097902
   23 Atom     -1.096949
   24 Atom     -1.096140
   25 Atom     -1.100628
   26 Atom     -1.097853
   27 Atom     -1.109890
   28 Atom     -1.104834
 -----------------------------------------------------------------
 Unable to Open any file for archive entry.
 1\1\GINC-NOTCH342\SP\RwB97XD\def2TZVP\C13H13N1O1\U6053008\12-Jul-2024\
 0\\#N Guess=Read Geom=Check Integral(Ultrafine) Density Pop=(ChelpG,Re
 adRadii) NMR wB97XD def2TZVP\\12365813_17\\0,1\O,0,-0.10533,1.30545,-1
 .06744\C,0,-0.42013,0.03668,-0.56062\C,0,0.39073,-0.27545,0.71714\C,0,
 1.87562,-0.20501,0.46876\C,0,2.57294,-1.31454,-0.02644\C,0,3.93081,-1.
 23093,-0.32524\C,0,4.61661,-0.03036,-0.13858\C,0,3.93567,1.08218,0.351
 33\C,0,2.57613,0.99431,0.65248\C,0,-1.90335,-0.01475,-0.27802\C,0,-2.6
 5602,1.14458,-0.09467\C,0,-4.00981,1.02478,0.20775\C,0,-4.5605,-0.2511
 ,0.31661\N,0,-3.85484,-1.36623,0.13708\C,0,-2.56445,-1.24114,-0.15443\
 H,0,0.84803,1.34851,-1.19823\H,0,-0.1856,-0.74892,-1.30786\H,0,0.10943
 ,-1.27661,1.07797\H,0,0.09378,0.44814,1.49217\H,0,2.04248,-2.25947,-0.
 1746\H,0,4.45838,-2.10883,-0.70472\H,0,5.68147,0.03569,-0.37156\H,0,4.
 46573,2.02462,0.50597\H,0,2.04822,1.86786,1.0447\H,0,-2.17574,2.11829,
 -0.20233\H,0,-4.63354,1.90853,0.35504\H,0,-5.62222,-0.37747,0.55519\H,
 0,-2.00927,-2.17587,-0.30829\\Version=ES64L-G16RevC.01\State=1-A\HF=-6
 33.1976249\RMSD=1.750e-09\Dipole=1.0410878,0.4051648,0.0833715\Quadrup
 ole=2.2175278,1.4319824,-3.6495102,-5.4544533,-2.8560406,2.7952417\PG=
 C01 [X(C13H13N1O1)]\\@
 The archive entry for this job was punched.


 HERE WE GO......
 SLIDING DOWN THE RAZOR BLADE OF LIFE......
                                 TOM LEHRER
 Job cpu time:       0 days  1 hours  2 minutes  6.8 seconds.
 Elapsed time:       0 days  0 hours  4 minutes  6.5 seconds.
 File lengths (MBytes):  RWF=    183 Int=      0 D2E=      0 Chk=     27 Scr=      2
 Normal termination of Gaussian 16 at Fri Jul 12 13:32:58 2024.
