 Entering Gaussian System, Link 0=g16
 Input=12365813_19.com
 Output=12365813_19.log
 Initial command:
 /uufs/chpc.utah.edu/sys/installdir/gaussian16/C01/AVX/g16/l1.exe "/scratch/general/vast/u6053008/1287173-notchpeak.peaks/Gau-1987884.inp" -scrdir="/scratch/general/vast/u6053008/1287173-notchpeak.peaks/"
 Entering Link 1 = /uufs/chpc.utah.edu/sys/installdir/gaussian16/C01/AVX/g16/l1.exe PID=   1987885.
  
 Copyright (c) 1988-2019, Gaussian, Inc.  All Rights Reserved.
  
 This is part of the Gaussian(R) 16 program.  It is based on
 the Gaussian(R) 09 system (copyright 2009, Gaussian, Inc.),
 the Gaussian(R) 03 system (copyright 2003, Gaussian, Inc.),
 the Gaussian(R) 98 system (copyright 1998, Gaussian, Inc.),
 the Gaussian(R) 94 system (copyright 1995, Gaussian, Inc.),
 the Gaussian 92(TM) system (copyright 1992, Gaussian, Inc.),
 the Gaussian 90(TM) system (copyright 1990, Gaussian, Inc.),
 the Gaussian 88(TM) system (copyright 1988, Gaussian, Inc.),
 the Gaussian 86(TM) system (copyright 1986, Carnegie Mellon
 University), and the Gaussian 82(TM) system (copyright 1983,
 Carnegie Mellon University). Gaussian is a federally registered
 trademark of Gaussian, Inc.
  
 This software contains proprietary and confidential information,
 including trade secrets, belonging to Gaussian, Inc.
  
 This software is provided under written license and may be
 used, copied, transmitted, or stored only in accord with that
 written license.
  
 The following legend is applicable only to US Government
 contracts under FAR:
  
                    RESTRICTED RIGHTS LEGEND
  
 Use, reproduction and disclosure by the US Government is
 subject to restrictions as set forth in subparagraphs (a)
 and (c) of the Commercial Computer Software - Restricted
 Rights clause in FAR 52.227-19.
  
 Gaussian, Inc.
 340 Quinnipiac St., Bldg. 40, Wallingford CT 06492
  
  
 ---------------------------------------------------------------
 Warning -- This program may not be used in any manner that
 competes with the business of Gaussian, Inc. or will provide
 assistance to any competitor of Gaussian, Inc.  The licensee
 of this program is prohibited from giving any competitor of
 Gaussian, Inc. access to this program.  By using this program,
 the user acknowledges that Gaussian, Inc. is engaged in the
 business of creating and licensing software in the field of
 computational chemistry and represents and warrants to the
 licensee that it is not a competitor of Gaussian, Inc. and that
 it will not use this program in any manner prohibited above.
 ---------------------------------------------------------------
  

 Cite this work as:
 Gaussian 16, Revision C.01,
 M. J. Frisch, G. W. Trucks, H. B. Schlegel, G. E. Scuseria, 
 M. A. Robb, J. R. Cheeseman, G. Scalmani, V. Barone, 
 G. A. Petersson, H. Nakatsuji, X. Li, M. Caricato, A. V. Marenich, 
 J. Bloino, B. G. Janesko, R. Gomperts, B. Mennucci, H. P. Hratchian, 
 J. V. Ortiz, A. F. Izmaylov, J. L. Sonnenberg, D. Williams-Young, 
 F. Ding, F. Lipparini, F. Egidi, J. Goings, B. Peng, A. Petrone, 
 T. Henderson, D. Ranasinghe, V. G. Zakrzewski, J. Gao, N. Rega, 
 G. Zheng, W. Liang, M. Hada, M. Ehara, K. Toyota, R. Fukuda, 
 J. Hasegawa, M. Ishida, T. Nakajima, Y. Honda, O. Kitao, H. Nakai, 
 T. Vreven, K. Throssell, J. A. Montgomery, Jr., J. E. Peralta, 
 F. Ogliaro, M. J. Bearpark, J. J. Heyd, E. N. Brothers, K. N. Kudin, 
 V. N. Staroverov, T. A. Keith, R. Kobayashi, J. Normand, 
 K. Raghavachari, A. P. Rendell, J. C. Burant, S. S. Iyengar, 
 J. Tomasi, M. Cossi, J. M. Millam, M. Klene, C. Adamo, R. Cammi, 
 J. W. Ochterski, R. L. Martin, K. Morokuma, O. Farkas, 
 J. B. Foresman, and D. J. Fox, Gaussian, Inc., Wallingford CT, 2019.
 
 ******************************************
 Gaussian 16:  ES64L-G16RevC.01  3-Jul-2019
                12-Jul-2024 
 ******************************************
 %NProcShared=16
 Will use up to   16 processors via shared memory.
 %Mem=32GB
 %chk=12365813_19.chk
 ------------------------------------------------------
 #N OPT FREQ=NORAMAN Integral(Ultrafine) wB97XD def2SVP
 ------------------------------------------------------
 1/18=20,19=15,26=4,38=1/1,3;
 2/9=110,12=2,17=6,18=5,40=1/2;
 3/5=43,7=101,11=2,25=1,30=1,71=1,74=-58,75=-5/1,2,3;
 4//1;
 5/5=2,38=5/2;
 6/7=2,8=2,9=2,10=2,28=1/1;
 7//1,2,3,16;
 1/18=20,19=15,26=4/3(2);
 2/9=110/2;
 99//99;
 2/9=110/2;
 3/5=43,7=101,11=2,25=1,30=1,71=1,74=-58,75=-5/1,2,3;
 4/5=5,16=3,69=1/1;
 5/5=2,38=5/2;
 7//1,2,3,16;
 1/18=20,19=15,26=4/3(-5);
 2/9=110/2;
 6/7=2,8=2,9=2,10=2,19=2,28=1/1;
 99/9=1/99;
 -----------
 12365813_19
 -----------
 Symbolic Z-matrix:
 Charge =  0 Multiplicity = 1
 O                    -0.13418  -1.57814   0.84756 
 C                    -0.42451  -0.23896   0.53444 
 C                     0.41419   0.13534  -0.69569 
 C                     1.89827   0.15124  -0.42482 
 C                     2.56877   1.35981  -0.20792 
 C                     3.93441   1.38231   0.07419 
 C                     4.65104   0.18943   0.14382 
 C                     3.9932   -1.02218  -0.06997 
 C                     2.62913  -1.04093  -0.35105 
 C                    -1.90312  -0.02188   0.27171 
 C                    -2.50849   1.21831   0.48084 
 C                    -3.85745   1.37461   0.17991 
 C                    -4.55633   0.27569  -0.32109 
 N                    -3.99652  -0.9145   -0.52062 
 C                    -2.70446  -1.0527   -0.23035 
 H                    -0.56215  -1.80111   1.67931 
 H                    -0.11842   0.43098   1.36289 
 H                     0.08682   1.12537  -1.04687 
 H                     0.16958  -0.58532  -1.49292 
 H                     2.01404   2.30091  -0.26658 
 H                     4.44047   2.33682   0.23601 
 H                     5.7213    0.20304   0.36157 
 H                     4.54839  -1.96161  -0.01813 
 H                     2.11388  -1.99059  -0.50614 
 H                    -1.92662   2.05488   0.8799 
 H                    -4.36437   2.32896   0.33353 
 H                    -5.61974   0.36463  -0.56917 
 H                    -2.26204  -2.04088  -0.39359 
 

 GradGradGradGradGradGradGradGradGradGradGradGradGradGradGradGradGradGrad
 Berny optimization.
 Initialization pass.
                           ----------------------------
                           !    Initial Parameters    !
                           ! (Angstroms and Degrees)  !
 --------------------------                            --------------------------
 ! Name  Definition              Value          Derivative Info.                !
 --------------------------------------------------------------------------------
 ! R1    R(1,2)                  1.4056         estimate D2E/DX2                !
 ! R2    R(1,16)                 0.9616         estimate D2E/DX2                !
 ! R3    R(2,3)                  1.5352         estimate D2E/DX2                !
 ! R4    R(2,10)                 1.5174         estimate D2E/DX2                !
 ! R5    R(2,17)                 1.1085         estimate D2E/DX2                !
 ! R6    R(3,4)                  1.5087         estimate D2E/DX2                !
 ! R7    R(3,18)                 1.1003         estimate D2E/DX2                !
 ! R8    R(3,19)                 1.1022         estimate D2E/DX2                !
 ! R9    R(4,5)                  1.399          estimate D2E/DX2                !
 ! R10   R(4,9)                  1.4003         estimate D2E/DX2                !
 ! R11   R(5,6)                  1.3947         estimate D2E/DX2                !
 ! R12   R(5,20)                 1.094          estimate D2E/DX2                !
 ! R13   R(6,7)                  1.3933         estimate D2E/DX2                !
 ! R14   R(6,21)                 1.0924         estimate D2E/DX2                !
 ! R15   R(7,8)                  1.3952         estimate D2E/DX2                !
 ! R16   R(7,22)                 1.0923         estimate D2E/DX2                !
 ! R17   R(8,9)                  1.3929         estimate D2E/DX2                !
 ! R18   R(8,23)                 1.0925         estimate D2E/DX2                !
 ! R19   R(9,24)                 1.0915         estimate D2E/DX2                !
 ! R20   R(10,11)                1.3958         estimate D2E/DX2                !
 ! R21   R(10,15)                1.3989         estimate D2E/DX2                !
 ! R22   R(11,12)                1.3909         estimate D2E/DX2                !
 ! R23   R(11,25)                1.0944         estimate D2E/DX2                !
 ! R24   R(12,13)                1.3954         estimate D2E/DX2                !
 ! R25   R(12,26)                1.0915         estimate D2E/DX2                !
 ! R26   R(13,14)                1.3303         estimate D2E/DX2                !
 ! R27   R(13,27)                1.0956         estimate D2E/DX2                !
 ! R28   R(14,15)                1.3315         estimate D2E/DX2                !
 ! R29   R(15,28)                1.0949         estimate D2E/DX2                !
 ! A1    A(2,1,16)             108.764          estimate D2E/DX2                !
 ! A2    A(1,2,3)              107.3346         estimate D2E/DX2                !
 ! A3    A(1,2,10)             112.0952         estimate D2E/DX2                !
 ! A4    A(1,2,17)             110.6264         estimate D2E/DX2                !
 ! A5    A(3,2,10)             111.023          estimate D2E/DX2                !
 ! A6    A(3,2,17)             107.4961         estimate D2E/DX2                !
 ! A7    A(10,2,17)            108.1803         estimate D2E/DX2                !
 ! A8    A(2,3,4)              113.3358         estimate D2E/DX2                !
 ! A9    A(2,3,18)             108.2151         estimate D2E/DX2                !
 ! A10   A(2,3,19)             107.3937         estimate D2E/DX2                !
 ! A11   A(4,3,18)             109.9072         estimate D2E/DX2                !
 ! A12   A(4,3,19)             110.7981         estimate D2E/DX2                !
 ! A13   A(18,3,19)            106.9439         estimate D2E/DX2                !
 ! A14   A(3,4,5)              120.5566         estimate D2E/DX2                !
 ! A15   A(3,4,9)              120.9241         estimate D2E/DX2                !
 ! A16   A(5,4,9)              118.4998         estimate D2E/DX2                !
 ! A17   A(4,5,6)              120.9701         estimate D2E/DX2                !
 ! A18   A(4,5,20)             119.459          estimate D2E/DX2                !
 ! A19   A(6,5,20)             119.5699         estimate D2E/DX2                !
 ! A20   A(5,6,7)              119.995          estimate D2E/DX2                !
 ! A21   A(5,6,21)             119.846          estimate D2E/DX2                !
 ! A22   A(7,6,21)             120.1585         estimate D2E/DX2                !
 ! A23   A(6,7,8)              119.5597         estimate D2E/DX2                !
 ! A24   A(6,7,22)             120.2158         estimate D2E/DX2                !
 ! A25   A(8,7,22)             120.2242         estimate D2E/DX2                !
 ! A26   A(7,8,9)              120.2907         estimate D2E/DX2                !
 ! A27   A(7,8,23)             119.9932         estimate D2E/DX2                !
 ! A28   A(9,8,23)             119.7161         estimate D2E/DX2                !
 ! A29   A(4,9,8)              120.6846         estimate D2E/DX2                !
 ! A30   A(4,9,24)             119.1344         estimate D2E/DX2                !
 ! A31   A(8,9,24)             120.1777         estimate D2E/DX2                !
 ! A32   A(2,10,11)            121.5872         estimate D2E/DX2                !
 ! A33   A(2,10,15)            120.9933         estimate D2E/DX2                !
 ! A34   A(11,10,15)           117.3916         estimate D2E/DX2                !
 ! A35   A(10,11,12)           119.2123         estimate D2E/DX2                !
 ! A36   A(10,11,25)           120.2142         estimate D2E/DX2                !
 ! A37   A(12,11,25)           120.5732         estimate D2E/DX2                !
 ! A38   A(11,12,13)           118.3546         estimate D2E/DX2                !
 ! A39   A(11,12,26)           121.2128         estimate D2E/DX2                !
 ! A40   A(13,12,26)           120.4321         estimate D2E/DX2                !
 ! A41   A(12,13,14)           123.2078         estimate D2E/DX2                !
 ! A42   A(12,13,27)           120.2329         estimate D2E/DX2                !
 ! A43   A(14,13,27)           116.559          estimate D2E/DX2                !
 ! A44   A(13,14,15)           117.9384         estimate D2E/DX2                !
 ! A45   A(10,15,14)           123.8942         estimate D2E/DX2                !
 ! A46   A(10,15,28)           119.1499         estimate D2E/DX2                !
 ! A47   A(14,15,28)           116.9542         estimate D2E/DX2                !
 ! D1    D(16,1,2,3)           172.9086         estimate D2E/DX2                !
 ! D2    D(16,1,2,10)          -64.9297         estimate D2E/DX2                !
 ! D3    D(16,1,2,17)           55.9078         estimate D2E/DX2                !
 ! D4    D(1,2,3,4)            -66.3816         estimate D2E/DX2                !
 ! D5    D(1,2,3,18)           171.4533         estimate D2E/DX2                !
 ! D6    D(1,2,3,19)            56.3281         estimate D2E/DX2                !
 ! D7    D(10,2,3,4)           170.7916         estimate D2E/DX2                !
 ! D8    D(10,2,3,18)           48.6265         estimate D2E/DX2                !
 ! D9    D(10,2,3,19)          -66.4986         estimate D2E/DX2                !
 ! D10   D(17,2,3,4)            52.6522         estimate D2E/DX2                !
 ! D11   D(17,2,3,18)          -69.5129         estimate D2E/DX2                !
 ! D12   D(17,2,3,19)          175.362          estimate D2E/DX2                !
 ! D13   D(1,2,10,11)          153.3934         estimate D2E/DX2                !
 ! D14   D(1,2,10,15)          -28.5798         estimate D2E/DX2                !
 ! D15   D(3,2,10,11)          -86.5723         estimate D2E/DX2                !
 ! D16   D(3,2,10,15)           91.4545         estimate D2E/DX2                !
 ! D17   D(17,2,10,11)          31.1519         estimate D2E/DX2                !
 ! D18   D(17,2,10,15)        -150.8213         estimate D2E/DX2                !
 ! D19   D(2,3,4,5)           -100.7031         estimate D2E/DX2                !
 ! D20   D(2,3,4,9)             77.669          estimate D2E/DX2                !
 ! D21   D(18,3,4,5)            20.515          estimate D2E/DX2                !
 ! D22   D(18,3,4,9)          -161.1129         estimate D2E/DX2                !
 ! D23   D(19,3,4,5)           138.4917         estimate D2E/DX2                !
 ! D24   D(19,3,4,9)           -43.1363         estimate D2E/DX2                !
 ! D25   D(3,4,5,6)            178.4846         estimate D2E/DX2                !
 ! D26   D(3,4,5,20)            -1.884          estimate D2E/DX2                !
 ! D27   D(9,4,5,6)              0.0737         estimate D2E/DX2                !
 ! D28   D(9,4,5,20)           179.7051         estimate D2E/DX2                !
 ! D29   D(3,4,9,8)           -178.5            estimate D2E/DX2                !
 ! D30   D(3,4,9,24)             0.8348         estimate D2E/DX2                !
 ! D31   D(5,4,9,8)             -0.0952         estimate D2E/DX2                !
 ! D32   D(5,4,9,24)           179.2397         estimate D2E/DX2                !
 ! D33   D(4,5,6,7)             -0.0209         estimate D2E/DX2                !
 ! D34   D(4,5,6,21)           179.7247         estimate D2E/DX2                !
 ! D35   D(20,5,6,7)          -179.6519         estimate D2E/DX2                !
 ! D36   D(20,5,6,21)            0.0937         estimate D2E/DX2                !
 ! D37   D(5,6,7,8)             -0.012          estimate D2E/DX2                !
 ! D38   D(5,6,7,22)           179.8173         estimate D2E/DX2                !
 ! D39   D(21,6,7,8)          -179.7568         estimate D2E/DX2                !
 ! D40   D(21,6,7,22)            0.0725         estimate D2E/DX2                !
 ! D41   D(6,7,8,9)             -0.0096         estimate D2E/DX2                !
 ! D42   D(6,7,8,23)           179.9342         estimate D2E/DX2                !
 ! D43   D(22,7,8,9)          -179.8388         estimate D2E/DX2                !
 ! D44   D(22,7,8,23)            0.105          estimate D2E/DX2                !
 ! D45   D(7,8,9,4)              0.0643         estimate D2E/DX2                !
 ! D46   D(7,8,9,24)          -179.2637         estimate D2E/DX2                !
 ! D47   D(23,8,9,4)          -179.8797         estimate D2E/DX2                !
 ! D48   D(23,8,9,24)            0.7924         estimate D2E/DX2                !
 ! D49   D(2,10,11,12)         177.7839         estimate D2E/DX2                !
 ! D50   D(2,10,11,25)          -2.4046         estimate D2E/DX2                !
 ! D51   D(15,10,11,12)         -0.3111         estimate D2E/DX2                !
 ! D52   D(15,10,11,25)        179.5004         estimate D2E/DX2                !
 ! D53   D(2,10,15,14)        -177.8435         estimate D2E/DX2                !
 ! D54   D(2,10,15,28)           2.6448         estimate D2E/DX2                !
 ! D55   D(11,10,15,14)          0.2634         estimate D2E/DX2                !
 ! D56   D(11,10,15,28)       -179.2483         estimate D2E/DX2                !
 ! D57   D(10,11,12,13)          0.0862         estimate D2E/DX2                !
 ! D58   D(10,11,12,26)        179.814          estimate D2E/DX2                !
 ! D59   D(25,11,12,13)       -179.7246         estimate D2E/DX2                !
 ! D60   D(25,11,12,26)          0.0031         estimate D2E/DX2                !
 ! D61   D(11,12,13,14)          0.2263         estimate D2E/DX2                !
 ! D62   D(11,12,13,27)       -179.9534         estimate D2E/DX2                !
 ! D63   D(26,12,13,14)       -179.5037         estimate D2E/DX2                !
 ! D64   D(26,12,13,27)          0.3167         estimate D2E/DX2                !
 ! D65   D(12,13,14,15)         -0.2848         estimate D2E/DX2                !
 ! D66   D(27,13,14,15)        179.8887         estimate D2E/DX2                !
 ! D67   D(13,14,15,10)          0.0324         estimate D2E/DX2                !
 ! D68   D(13,14,15,28)        179.5541         estimate D2E/DX2                !
 --------------------------------------------------------------------------------
 Trust Radius=3.00D-01 FncErr=1.00D-07 GrdErr=1.00D-06 EigMax=2.50D+02 EigMin=1.00D-04
 Number of steps in this run=    154 maximum allowed number of steps=    168.
 GradGradGradGradGradGradGradGradGradGradGradGradGradGradGradGradGradGrad

                          Input orientation:                          
 ---------------------------------------------------------------------
 Center     Atomic      Atomic             Coordinates (Angstroms)
 Number     Number       Type             X           Y           Z
 ---------------------------------------------------------------------
      1          8           0       -0.134180   -1.578140    0.847560
      2          6           0       -0.424510   -0.238960    0.534440
      3          6           0        0.414190    0.135340   -0.695690
      4          6           0        1.898270    0.151240   -0.424820
      5          6           0        2.568770    1.359810   -0.207920
      6          6           0        3.934410    1.382310    0.074190
      7          6           0        4.651040    0.189430    0.143820
      8          6           0        3.993200   -1.022180   -0.069970
      9          6           0        2.629130   -1.040930   -0.351050
     10          6           0       -1.903120   -0.021880    0.271710
     11          6           0       -2.508490    1.218310    0.480840
     12          6           0       -3.857450    1.374610    0.179910
     13          6           0       -4.556330    0.275690   -0.321090
     14          7           0       -3.996520   -0.914500   -0.520620
     15          6           0       -2.704460   -1.052700   -0.230350
     16          1           0       -0.562150   -1.801110    1.679310
     17          1           0       -0.118420    0.430980    1.362890
     18          1           0        0.086820    1.125370   -1.046870
     19          1           0        0.169580   -0.585320   -1.492920
     20          1           0        2.014040    2.300910   -0.266580
     21          1           0        4.440470    2.336820    0.236010
     22          1           0        5.721300    0.203040    0.361570
     23          1           0        4.548390   -1.961610   -0.018130
     24          1           0        2.113880   -1.990590   -0.506140
     25          1           0       -1.926620    2.054880    0.879900
     26          1           0       -4.364370    2.328960    0.333530
     27          1           0       -5.619740    0.364630   -0.569170
     28          1           0       -2.262040   -2.040880   -0.393590
 ---------------------------------------------------------------------
                    Distance matrix (angstroms):
                    1          2          3          4          5
     1  O    0.000000
     2  C    1.405610   0.000000
     3  C    2.370305   1.535167   0.000000
     4  C    2.956444   2.543176   1.508680   0.000000
     5  C    4.129349   3.473743   2.525760   1.399020   0.000000
     6  C    5.090755   4.673385   3.813083   2.431134   1.394656
     7  C    5.149552   5.108553   4.319560   2.811148   2.414406
     8  C    4.264530   4.527130   3.813226   2.427255   2.778832
     9  C    3.059598   3.279019   2.531471   1.400310   2.405760
    10  C    2.425427   1.517379   2.516050   3.868551   4.704988
    11  C    3.686728   2.543518   3.331532   4.623677   5.125718
    12  C    4.798669   3.809774   4.533142   5.915289   6.437929
    13  C    4.935366   4.250733   4.986591   6.456633   7.207994
    14  N    4.150904   3.785335   4.537309   5.991121   6.955092
    15  C    2.836250   2.538749   3.369563   4.761556   5.798936
    16  H    0.961604   1.941645   3.216163   3.780569   4.832775
    17  H    2.074217   1.108531   2.146818   2.709465   3.248255
    18  H    3.308576   2.150208   1.100299   2.148773   2.630375
    19  H    2.560431   2.140817   1.102162   2.161418   3.345276
    20  H    4.572000   3.610969   2.726417   2.158593   1.094000
    21  H    6.052134   5.512870   4.682468   3.417051   2.157518
    22  H    6.139661   6.164108   5.411820   3.903415   3.406007
    23  H    4.777335   5.291747   4.684858   3.413600   3.871272
    24  H    2.656387   3.254910   2.728453   2.154190   3.394266
    25  H    4.051262   2.763581   3.412698   4.467205   4.677072
    26  H    5.781364   4.707130   5.357789   6.673696   7.021456
    27  H    5.989395   5.345343   6.039610   7.522423   8.256669
    28  H    2.506466   2.735813   3.462572   4.702610   5.910659
                    6          7          8          9         10
     6  C    0.000000
     7  C    1.393330   0.000000
     8  C    2.409525   1.395155   0.000000
     9  C    2.785081   2.418016   1.392855   0.000000
    10  C    6.007289   6.558812   5.990320   4.686959   0.000000
    11  C    6.457803   7.240929   6.898925   5.673742   1.395808
    12  C    7.792581   8.590713   8.212171   6.942080   2.403751
    13  C    8.571670   9.219503   8.651127   7.305150   2.734864
    14  N    8.278212   8.743022   8.003144   6.629025   2.409747
    15  C    7.077896   7.469021   6.699649   5.334969   1.398857
    16  H    5.738434   5.787688   4.941450   3.858044   2.635374
    17  H    4.357890   4.928715   4.590227   3.557125   2.140306
    18  H    4.015812   4.808932   4.563563   3.411797   2.648527
    19  H    4.527841   4.833491   4.103133   2.749697   2.779833
    20  H    2.155869   3.403020   3.872810   3.399024   4.585766
    21  H    1.092416   2.159658   3.402434   3.877472   6.768004
    22  H    2.160148   1.092271   2.161879   3.408343   7.628266
    23  H    3.401073   2.159569   1.092452   2.154541   6.743036
    24  H    3.876541   3.407656   2.158682   1.091508   4.540612
    25  H    5.954258   6.876578   6.739052   5.643947   2.164112
    26  H    8.356623   9.267750   9.013430   7.793193   3.404118
    27  H    9.629713  10.296988   9.725279   8.370605   3.830109
    28  H    7.094578   7.283802   6.345905   4.992520   2.155878
                   11         12         13         14         15
    11  C    0.000000
    12  C    1.390928   0.000000
    13  C    2.392754   1.395371   0.000000
    14  N    2.786760   2.397938   1.330320   0.000000
    15  C    2.387819   2.718370   2.280850   1.331456   0.000000
    16  H    3.787013   4.815849   4.926274   4.173807   2.965874
    17  H    2.666521   4.033637   4.749205   4.516369   3.380432
    18  H    3.013000   4.138161   4.775726   4.594744   3.633447
    19  H    3.784292   4.780864   4.944568   4.290701   3.173741
    20  H    4.709983   5.960854   6.875627   6.821307   5.788977
    21  H    7.042659   8.353710   9.246677   9.073388   7.921891
    22  H    8.293036   9.651841  10.300533   9.821567   8.539361
    23  H    7.756315   9.045868   9.380470   8.623481   7.312659
    24  H    5.712922   6.888542   7.047125   6.204447   4.916513
    25  H    1.094382   2.163529   3.394594   3.881129   3.390390
    26  H    2.167841   1.091490   2.163630   3.374155   3.809053
    27  H    3.392811   2.164913   1.095580   2.067214   3.259215
    28  H    3.383443   3.813110   3.261214   2.072025   1.094935
                   16         17         18         19         20
    16  H    0.000000
    17  H    2.297660   0.000000
    18  H    4.051852   2.516196   0.000000
    19  H    3.475143   3.044907   1.769822   0.000000
    20  H    5.220135   3.270963   2.388498   3.638168   0.000000
    21  H    6.650698   5.068093   4.697623   5.456061   2.478195
    22  H    6.725682   5.929328   5.880626   5.906119   4.305741
    23  H    5.387456   5.423174   5.522079   4.821116   4.965253
    24  H    3.460236   3.786877   3.756404   2.593997   4.299341
    25  H    4.167672   2.477886   2.937749   4.122497   4.111417
    26  H    5.772822   4.763402   4.813234   5.690839   6.406640
    27  H    5.943510   5.831105   5.776829   5.939019   7.881328
    28  H    2.691474   3.713546   3.996130   3.039730   6.095255
                   21         22         23         24         25
    21  H    0.000000
    22  H    2.491848   0.000000
    23  H    4.307289   2.491104   0.000000
    24  H    4.968932   4.310268   2.483109   0.000000
    25  H    6.405772   7.885979   7.672314   5.883245   0.000000
    26  H    8.805384  10.307330   9.897977   7.831429   2.513218
    27  H   10.283272  11.380315  10.445377   8.084548   4.312295
    28  H    8.030211   8.327014   6.821232   4.377656   4.302271
                   26         27         28
    26  H    0.000000
    27  H    2.499883   0.000000
    28  H    4.903468   4.134181   0.000000
 Stoichiometry    C13H13NO
 Framework group  C1[X(C13H13NO)]
 Deg. of freedom    78
 Full point group                 C1      NOp   1
 Largest Abelian subgroup         C1      NOp   1
 Largest concise Abelian subgroup C1      NOp   1
                         Standard orientation:                         
 ---------------------------------------------------------------------
 Center     Atomic      Atomic             Coordinates (Angstroms)
 Number     Number       Type             X           Y           Z
 ---------------------------------------------------------------------
      1          8           0       -0.134179   -1.578140    0.847559
      2          6           0       -0.424510   -0.238960    0.534439
      3          6           0        0.414190    0.135340   -0.695691
      4          6           0        1.898270    0.151241   -0.424821
      5          6           0        2.568770    1.359811   -0.207921
      6          6           0        3.934410    1.382311    0.074189
      7          6           0        4.651040    0.189431    0.143819
      8          6           0        3.993201   -1.022179   -0.069971
      9          6           0        2.629131   -1.040929   -0.351051
     10          6           0       -1.903120   -0.021881    0.271709
     11          6           0       -2.508490    1.218309    0.480839
     12          6           0       -3.857450    1.374609    0.179909
     13          6           0       -4.556330    0.275689   -0.321091
     14          7           0       -3.996519   -0.914501   -0.520621
     15          6           0       -2.704459   -1.052701   -0.230351
     16          1           0       -0.562149   -1.801110    1.679309
     17          1           0       -0.118420    0.430980    1.362889
     18          1           0        0.086820    1.125370   -1.046871
     19          1           0        0.169581   -0.585320   -1.492921
     20          1           0        2.014040    2.300911   -0.266581
     21          1           0        4.440470    2.336821    0.236009
     22          1           0        5.721300    0.203042    0.361569
     23          1           0        4.548391   -1.961609   -0.018131
     24          1           0        2.113881   -1.990589   -0.506141
     25          1           0       -1.926620    2.054879    0.879899
     26          1           0       -4.364370    2.328959    0.333529
     27          1           0       -5.619740    0.364628   -0.569171
     28          1           0       -2.262039   -2.040881   -0.393591
 ---------------------------------------------------------------------
 Rotational constants (GHZ):           1.9343468           0.2670974           0.2449093
 Standard basis: def2SVP (5D, 7F)
 There are   290 symmetry adapted cartesian basis functions of A   symmetry.
 There are   275 symmetry adapted basis functions of A   symmetry.
   275 basis functions,   466 primitive gaussians,   290 cartesian basis functions
    53 alpha electrons       53 beta electrons
       nuclear repulsion energy       894.9101192760 Hartrees.
 NAtoms=   28 NActive=   28 NUniq=   28 SFac= 1.00D+00 NAtFMM=   60 NAOKFM=F Big=F
 Integral buffers will be    131072 words long.
 Raffenetti 2 integral format.
 Two-electron integral symmetry is turned on.
 Nuclear repulsion after empirical dispersion term =      894.8925311950 Hartrees.
 One-electron integrals computed using PRISM.
   1 Symmetry operations used in ECPInt.
 ECPInt:  NShTT=    8385 NPrTT=   30369 LenC2=    7736 LenP2D=   20476.
 LDataN:  DoStor=T MaxTD1= 4 Len=   56
 NBasis=   275 RedAO= T EigKep=  2.88D-04  NBF=   275
 NBsUse=   275 1.00D-06 EigRej= -1.00D+00 NBFU=   275
 ExpMin= 1.22D-01 ExpMax= 2.27D+03 ExpMxC= 3.41D+02 IAcc=3 IRadAn=         5 AccDes= 0.00D+00
 Harris functional with IExCor= 4639 and IRadAn=       5 diagonalized for initial guess.
 HarFok:  IExCor= 4639 AccDes= 0.00D+00 IRadAn=         5 IDoV= 1 UseB2=F ITyADJ=14
 ICtDFT=  3500011 ScaDFX=  1.000000  1.000000  1.000000  1.000000
 FoFCou: FMM=F IPFlag=           0 FMFlag=      100000 FMFlg1=           0
         NFxFlg=           0 DoJE=T BraDBF=F KetDBF=T FulRan=T
         wScrn=  0.000000 ICntrl=       500 IOpCl=  0 I1Cent=   200000004 NGrid=           0
         NMat0=    1 NMatS0=      1 NMatT0=    0 NMatD0=    1 NMtDS0=    0 NMtDT0=    0
 Petite list used in FoFCou.
 Requested convergence on RMS density matrix=1.00D-08 within 128 cycles.
 Requested convergence on MAX density matrix=1.00D-06.
 Requested convergence on             energy=1.00D-06.
 No special actions if energy rises.
 Integral accuracy reduced to 1.0D-05 until final iterations.
 Initial convergence to 1.0D-05 achieved.  Increase integral accuracy.
 SCF Done:  E(RwB97XD) =  -632.518701756     A.U. after   14 cycles
            NFock= 14  Conv=0.87D-08     -V/T= 2.0107

 **********************************************************************

            Population analysis using the SCF Density.

 **********************************************************************

 Orbital symmetries:
       Occupied  (A) (A) (A) (A) (A) (A) (A) (A) (A) (A) (A) (A)
                 (A) (A) (A) (A) (A) (A) (A) (A) (A) (A) (A) (A)
                 (A) (A) (A) (A) (A) (A) (A) (A) (A) (A) (A) (A)
                 (A) (A) (A) (A) (A) (A) (A) (A) (A) (A) (A) (A)
                 (A) (A) (A) (A) (A)
       Virtual   (A) (A) (A) (A) (A) (A) (A) (A) (A) (A) (A) (A)
                 (A) (A) (A) (A) (A) (A) (A) (A) (A) (A) (A) (A)
                 (A) (A) (A) (A) (A) (A) (A) (A) (A) (A) (A) (A)
                 (A) (A) (A) (A) (A) (A) (A) (A) (A) (A) (A) (A)
                 (A) (A) (A) (A) (A) (A) (A) (A) (A) (A) (A) (A)
                 (A) (A) (A) (A) (A) (A) (A) (A) (A) (A) (A) (A)
                 (A) (A) (A) (A) (A) (A) (A) (A) (A) (A) (A) (A)
                 (A) (A) (A) (A) (A) (A) (A) (A) (A) (A) (A) (A)
                 (A) (A) (A) (A) (A) (A) (A) (A) (A) (A) (A) (A)
                 (A) (A) (A) (A) (A) (A) (A) (A) (A) (A) (A) (A)
                 (A) (A) (A) (A) (A) (A) (A) (A) (A) (A) (A) (A)
                 (A) (A) (A) (A) (A) (A) (A) (A) (A) (A) (A) (A)
                 (A) (A) (A) (A) (A) (A) (A) (A) (A) (A) (A) (A)
                 (A) (A) (A) (A) (A) (A) (A) (A) (A) (A) (A) (A)
                 (A) (A) (A) (A) (A) (A) (A) (A) (A) (A) (A) (A)
                 (A) (A) (A) (A) (A) (A) (A) (A) (A) (A) (A) (A)
                 (A) (A) (A) (A) (A) (A) (A) (A) (A) (A) (A) (A)
                 (A) (A) (A) (A) (A) (A) (A) (A) (A) (A) (A) (A)
                 (A) (A) (A) (A) (A) (A)
 The electronic state is 1-A.
 Alpha  occ. eigenvalues --  -19.26766 -14.44159 -10.36427 -10.33722 -10.33507
 Alpha  occ. eigenvalues --  -10.32650 -10.31683 -10.31623 -10.30635 -10.30622
 Alpha  occ. eigenvalues --  -10.30075 -10.30022 -10.29936 -10.29893 -10.29565
 Alpha  occ. eigenvalues --   -1.13070  -1.04175  -0.95224  -0.91573  -0.88221
 Alpha  occ. eigenvalues --   -0.86072  -0.83444  -0.80931  -0.74273  -0.72589
 Alpha  occ. eigenvalues --   -0.69709  -0.69220  -0.66646  -0.63333  -0.61399
 Alpha  occ. eigenvalues --   -0.60121  -0.57597  -0.55685  -0.54456  -0.53563
 Alpha  occ. eigenvalues --   -0.52857  -0.51918  -0.50254  -0.49393  -0.49157
 Alpha  occ. eigenvalues --   -0.48505  -0.46664  -0.46107  -0.45136  -0.42939
 Alpha  occ. eigenvalues --   -0.42028  -0.41522  -0.38139  -0.37081  -0.34233
 Alpha  occ. eigenvalues --   -0.33433  -0.32806  -0.31929
 Alpha virt. eigenvalues --    0.03487   0.04593   0.06358   0.06568   0.12790
 Alpha virt. eigenvalues --    0.14614   0.14810   0.16654   0.17169   0.18798
 Alpha virt. eigenvalues --    0.20258   0.20371   0.20897   0.21798   0.22300
 Alpha virt. eigenvalues --    0.23549   0.23751   0.24560   0.24748   0.27901
 Alpha virt. eigenvalues --    0.28840   0.31102   0.32223   0.33090   0.36375
 Alpha virt. eigenvalues --    0.36601   0.37386   0.39019   0.40009   0.40636
 Alpha virt. eigenvalues --    0.41701   0.42611   0.44634   0.46755   0.48851
 Alpha virt. eigenvalues --    0.49067   0.49504   0.50093   0.50960   0.52899
 Alpha virt. eigenvalues --    0.53557   0.55097   0.55763   0.56542   0.56744
 Alpha virt. eigenvalues --    0.57604   0.58308   0.59120   0.60738   0.61568
 Alpha virt. eigenvalues --    0.61823   0.63585   0.64278   0.65290   0.66677
 Alpha virt. eigenvalues --    0.67589   0.68020   0.69888   0.70647   0.71329
 Alpha virt. eigenvalues --    0.71622   0.72564   0.73543   0.73767   0.74464
 Alpha virt. eigenvalues --    0.75622   0.75923   0.76480   0.76778   0.77839
 Alpha virt. eigenvalues --    0.78830   0.79313   0.79822   0.80651   0.81343
 Alpha virt. eigenvalues --    0.82828   0.83108   0.83398   0.84392   0.85018
 Alpha virt. eigenvalues --    0.86147   0.87128   0.89087   0.90961   0.91825
 Alpha virt. eigenvalues --    0.95952   0.96212   0.98985   1.01194   1.01592
 Alpha virt. eigenvalues --    1.02458   1.05777   1.08938   1.12300   1.14335
 Alpha virt. eigenvalues --    1.16576   1.19443   1.22042   1.26769   1.27638
 Alpha virt. eigenvalues --    1.28060   1.28974   1.30478   1.32235   1.32894
 Alpha virt. eigenvalues --    1.33773   1.34538   1.34913   1.37611   1.37779
 Alpha virt. eigenvalues --    1.39022   1.39544   1.41194   1.42250   1.44240
 Alpha virt. eigenvalues --    1.46130   1.51410   1.52083   1.56792   1.59868
 Alpha virt. eigenvalues --    1.60790   1.63899   1.68496   1.73104   1.74441
 Alpha virt. eigenvalues --    1.75527   1.76582   1.78044   1.78927   1.81256
 Alpha virt. eigenvalues --    1.81497   1.82120   1.82906   1.83664   1.84221
 Alpha virt. eigenvalues --    1.84528   1.85121   1.86302   1.87113   1.87929
 Alpha virt. eigenvalues --    1.88510   1.89095   1.90218   1.92064   1.93791
 Alpha virt. eigenvalues --    1.94430   1.96168   1.96538   1.99559   2.01335
 Alpha virt. eigenvalues --    2.02630   2.03616   2.03743   2.05159   2.06512
 Alpha virt. eigenvalues --    2.06843   2.07839   2.08105   2.10390   2.13142
 Alpha virt. eigenvalues --    2.15995   2.17028   2.18966   2.20701   2.21424
 Alpha virt. eigenvalues --    2.23521   2.24935   2.25685   2.26715   2.29425
 Alpha virt. eigenvalues --    2.31221   2.32569   2.36348   2.36696   2.37802
 Alpha virt. eigenvalues --    2.38708   2.39817   2.40994   2.43575   2.44866
 Alpha virt. eigenvalues --    2.47115   2.49130   2.50977   2.51712   2.56077
 Alpha virt. eigenvalues --    2.56734   2.60950   2.63057   2.67473   2.67759
 Alpha virt. eigenvalues --    2.69783   2.70585   2.72140   2.73928   2.78998
 Alpha virt. eigenvalues --    2.80012   2.80826   2.82001   2.83955   2.88558
 Alpha virt. eigenvalues --    2.91289   2.95252   2.95770   2.97691   2.98347
 Alpha virt. eigenvalues --    2.99456   3.03689   3.04451   3.06689   3.07800
 Alpha virt. eigenvalues --    3.14259   3.16943   3.20043   3.21586   3.22989
 Alpha virt. eigenvalues --    3.24344   3.34456   3.40657   3.49844   3.71550
 Alpha virt. eigenvalues --    3.72728   3.86234
          Condensed to atoms (all electrons):
               1          2          3          4          5          6
     1  O    7.761206   0.328502  -0.067885  -0.012795   0.000327  -0.000008
     2  C    0.328502   4.704491   0.363664  -0.051690  -0.005204  -0.000138
     3  C   -0.067885   0.363664   4.778156   0.385332  -0.081009   0.010508
     4  C   -0.012795  -0.051690   0.385332   5.216629   0.344772   0.062362
     5  C    0.000327  -0.005204  -0.081009   0.344772   5.061521   0.345521
     6  C   -0.000008  -0.000138   0.010508   0.062362   0.345521   4.988645
     7  C    0.000032   0.000085  -0.000292  -0.135139   0.059083   0.331395
     8  C   -0.000483   0.000121   0.010175   0.066745  -0.117420   0.058012
     9  C    0.014189  -0.006987  -0.082545   0.318321   0.030959  -0.111636
    10  C   -0.063880   0.292711  -0.072333   0.010190  -0.000041   0.000013
    11  C    0.005249  -0.068446  -0.000159  -0.000054  -0.000019   0.000001
    12  C   -0.000193   0.009229  -0.000679   0.000023   0.000001  -0.000000
    13  C    0.000025   0.000576   0.000141  -0.000000  -0.000000   0.000000
    14  N    0.000369   0.005611  -0.000056   0.000001  -0.000000   0.000000
    15  C    0.007387  -0.050495  -0.014149  -0.000367  -0.000002  -0.000000
    16  H    0.325384  -0.032231   0.010225   0.000892   0.000015  -0.000003
    17  H   -0.028038   0.382060  -0.021989  -0.006622   0.003407  -0.000518
    18  H    0.004061  -0.016474   0.366249  -0.022654  -0.011463   0.000978
    19  H   -0.001706  -0.007298   0.355094  -0.010347   0.006263  -0.000551
    20  H    0.000005  -0.000193  -0.014572  -0.067959   0.442009  -0.059345
    21  H    0.000000  -0.000002  -0.000269   0.014266  -0.063230   0.443959
    22  H    0.000000   0.000001   0.000022  -0.001409   0.012529  -0.063259
    23  H   -0.000023  -0.000003  -0.000249   0.014248  -0.001661   0.012753
    24  H    0.010394  -0.001296  -0.014385  -0.062340   0.012894  -0.001687
    25  H    0.000096  -0.011727   0.000090  -0.000200  -0.000026  -0.000000
    26  H    0.000001  -0.000120   0.000004  -0.000000  -0.000000  -0.000000
    27  H    0.000000   0.000067   0.000000   0.000000  -0.000000   0.000000
    28  H    0.020618  -0.011276  -0.000859  -0.000232  -0.000002  -0.000000
               7          8          9         10         11         12
     1  O    0.000032  -0.000483   0.014189  -0.063880   0.005249  -0.000193
     2  C    0.000085   0.000121  -0.006987   0.292711  -0.068446   0.009229
     3  C   -0.000292   0.010175  -0.082545  -0.072333  -0.000159  -0.000679
     4  C   -0.135139   0.066745   0.318321   0.010190  -0.000054   0.000023
     5  C    0.059083  -0.117420   0.030959  -0.000041  -0.000019   0.000001
     6  C    0.331395   0.058012  -0.111636   0.000013   0.000001  -0.000000
     7  C    5.047150   0.320956   0.061810   0.000002  -0.000000   0.000000
     8  C    0.320956   5.008163   0.339581  -0.000003  -0.000000   0.000000
     9  C    0.061810   0.339581   5.044719   0.000845  -0.000019  -0.000000
    10  C    0.000002  -0.000003   0.000845   5.474390   0.395008   0.010822
    11  C   -0.000000  -0.000000  -0.000019   0.395008   4.930590   0.423515
    12  C    0.000000   0.000000  -0.000000   0.010822   0.423515   4.949222
    13  C   -0.000000  -0.000000   0.000000  -0.066437  -0.007924   0.442431
    14  N   -0.000000   0.000000   0.000000  -0.042542  -0.048837  -0.038797
    15  C    0.000000   0.000001   0.000037   0.401481  -0.044035  -0.051454
    16  H    0.000000  -0.000017  -0.000670   0.006743   0.001012  -0.000089
    17  H   -0.000058   0.000094  -0.001262  -0.062814  -0.008010   0.000690
    18  H    0.000002  -0.000409   0.010305  -0.001157   0.003619  -0.000518
    19  H    0.000030   0.000620  -0.010783  -0.012820  -0.001031   0.000110
    20  H    0.012726  -0.001530   0.012745  -0.000103  -0.000034   0.000000
    21  H   -0.066629   0.012612  -0.001703  -0.000000  -0.000000  -0.000000
    22  H    0.443259  -0.062892   0.012307   0.000000  -0.000000   0.000000
    23  H   -0.067723   0.445415  -0.063605  -0.000001   0.000000  -0.000000
    24  H    0.012612  -0.060545   0.444949  -0.000227  -0.000007   0.000000
    25  H    0.000000  -0.000000   0.000005  -0.065116   0.442549  -0.052850
    26  H   -0.000000   0.000000  -0.000000   0.012314  -0.055605   0.421338
    27  H   -0.000000   0.000000  -0.000000   0.001158   0.006250  -0.066891
    28  H   -0.000000   0.000001   0.000001  -0.078320   0.006931   0.000625
              13         14         15         16         17         18
     1  O    0.000025   0.000369   0.007387   0.325384  -0.028038   0.004061
     2  C    0.000576   0.005611  -0.050495  -0.032231   0.382060  -0.016474
     3  C    0.000141  -0.000056  -0.014149   0.010225  -0.021989   0.366249
     4  C   -0.000000   0.000001  -0.000367   0.000892  -0.006622  -0.022654
     5  C   -0.000000  -0.000000  -0.000002   0.000015   0.003407  -0.011463
     6  C    0.000000   0.000000  -0.000000  -0.000003  -0.000518   0.000978
     7  C   -0.000000  -0.000000   0.000000   0.000000  -0.000058   0.000002
     8  C   -0.000000   0.000000   0.000001  -0.000017   0.000094  -0.000409
     9  C    0.000000   0.000000   0.000037  -0.000670  -0.001262   0.010305
    10  C   -0.066437  -0.042542   0.401481   0.006743  -0.062814  -0.001157
    11  C   -0.007924  -0.048837  -0.044035   0.001012  -0.008010   0.003619
    12  C    0.442431  -0.038797  -0.051454  -0.000089   0.000690  -0.000518
    13  C    4.752054   0.525822  -0.067703  -0.000006  -0.000118   0.000028
    14  N    0.525822   6.276683   0.523972  -0.000122  -0.000078  -0.000010
    15  C   -0.067703   0.523972   4.803676  -0.001497   0.011274  -0.000363
    16  H   -0.000006  -0.000122  -0.001497   0.521431  -0.009851  -0.000461
    17  H   -0.000118  -0.000078   0.011274  -0.009851   0.717424  -0.003476
    18  H    0.000028  -0.000010  -0.000363  -0.000461  -0.003476   0.665793
    19  H   -0.000090  -0.000070   0.005813  -0.000301   0.009617  -0.022493
    20  H   -0.000000  -0.000000   0.000003   0.000000   0.000696   0.005418
    21  H    0.000000  -0.000000  -0.000000   0.000000   0.000007  -0.000007
    22  H   -0.000000   0.000000  -0.000000  -0.000000  -0.000001  -0.000001
    23  H    0.000000  -0.000000  -0.000000   0.000002   0.000000   0.000007
    24  H   -0.000000   0.000000   0.000065  -0.000382   0.000543   0.000250
    25  H    0.009070  -0.000353   0.009504   0.000021   0.005820   0.001487
    26  H   -0.044295   0.005527  -0.000055  -0.000000  -0.000009   0.000001
    27  H    0.423520  -0.038259   0.004305  -0.000000  -0.000003  -0.000001
    28  H    0.004453  -0.030478   0.429788  -0.000541   0.000978   0.000077
              19         20         21         22         23         24
     1  O   -0.001706   0.000005   0.000000   0.000000  -0.000023   0.010394
     2  C   -0.007298  -0.000193  -0.000002   0.000001  -0.000003  -0.001296
     3  C    0.355094  -0.014572  -0.000269   0.000022  -0.000249  -0.014385
     4  C   -0.010347  -0.067959   0.014266  -0.001409   0.014248  -0.062340
     5  C    0.006263   0.442009  -0.063230   0.012529  -0.001661   0.012894
     6  C   -0.000551  -0.059345   0.443959  -0.063259   0.012753  -0.001687
     7  C    0.000030   0.012726  -0.066629   0.443259  -0.067723   0.012612
     8  C    0.000620  -0.001530   0.012612  -0.062892   0.445415  -0.060545
     9  C   -0.010783   0.012745  -0.001703   0.012307  -0.063605   0.444949
    10  C   -0.012820  -0.000103  -0.000000   0.000000  -0.000001  -0.000227
    11  C   -0.001031  -0.000034  -0.000000  -0.000000   0.000000  -0.000007
    12  C    0.000110   0.000000  -0.000000   0.000000  -0.000000   0.000000
    13  C   -0.000090  -0.000000   0.000000  -0.000000   0.000000  -0.000000
    14  N   -0.000070  -0.000000  -0.000000   0.000000  -0.000000   0.000000
    15  C    0.005813   0.000003  -0.000000  -0.000000  -0.000000   0.000065
    16  H   -0.000301   0.000000   0.000000  -0.000000   0.000002  -0.000382
    17  H    0.009617   0.000696   0.000007  -0.000001   0.000000   0.000543
    18  H   -0.022493   0.005418  -0.000007  -0.000001   0.000007   0.000250
    19  H    0.648709   0.000267   0.000007  -0.000001  -0.000001   0.003990
    20  H    0.000267   0.680611  -0.011813  -0.000233   0.000027  -0.000211
    21  H    0.000007  -0.011813   0.666903  -0.011189  -0.000225   0.000021
    22  H   -0.000001  -0.000233  -0.011189   0.662603  -0.011194  -0.000202
    23  H   -0.000001   0.000027  -0.000225  -0.011194   0.664383  -0.011380
    24  H    0.003990  -0.000211   0.000021  -0.000202  -0.011380   0.650289
    25  H    0.000004   0.000052  -0.000000  -0.000000   0.000000  -0.000000
    26  H    0.000001  -0.000000   0.000000  -0.000000   0.000000  -0.000000
    27  H   -0.000001  -0.000000   0.000000   0.000000  -0.000000  -0.000000
    28  H    0.001426  -0.000000  -0.000000  -0.000000  -0.000000   0.000058
              25         26         27         28
     1  O    0.000096   0.000001   0.000000   0.020618
     2  C   -0.011727  -0.000120   0.000067  -0.011276
     3  C    0.000090   0.000004   0.000000  -0.000859
     4  C   -0.000200  -0.000000   0.000000  -0.000232
     5  C   -0.000026  -0.000000  -0.000000  -0.000002
     6  C   -0.000000  -0.000000   0.000000  -0.000000
     7  C    0.000000  -0.000000  -0.000000  -0.000000
     8  C   -0.000000   0.000000   0.000000   0.000001
     9  C    0.000005  -0.000000  -0.000000   0.000001
    10  C   -0.065116   0.012314   0.001158  -0.078320
    11  C    0.442549  -0.055605   0.006250   0.006931
    12  C   -0.052850   0.421338  -0.066891   0.000625
    13  C    0.009070  -0.044295   0.423520   0.004453
    14  N   -0.000353   0.005527  -0.038259  -0.030478
    15  C    0.009504  -0.000055   0.004305   0.429788
    16  H    0.000021  -0.000000  -0.000000  -0.000541
    17  H    0.005820  -0.000009  -0.000003   0.000978
    18  H    0.001487   0.000001  -0.000001   0.000077
    19  H    0.000004   0.000001  -0.000001   0.001426
    20  H    0.000052  -0.000000  -0.000000  -0.000000
    21  H   -0.000000   0.000000   0.000000  -0.000000
    22  H   -0.000000  -0.000000   0.000000  -0.000000
    23  H    0.000000   0.000000  -0.000000  -0.000000
    24  H   -0.000000  -0.000000  -0.000000   0.000058
    25  H    0.650155  -0.010362  -0.000254  -0.000161
    26  H   -0.010362   0.646434  -0.005953   0.000056
    27  H   -0.000254  -0.005953   0.637881  -0.000257
    28  H   -0.000161   0.000056  -0.000257   0.623189
 Mulliken charges:
               1
     1  O   -0.302832
     2  C    0.176461
     3  C    0.091771
     4  C   -0.061971
     5  C   -0.039224
     6  C   -0.017003
     7  C   -0.019301
     8  C   -0.019197
     9  C   -0.011561
    10  C   -0.139884
    11  C    0.019455
    12  C   -0.046534
    13  C    0.028452
    14  N   -0.138383
    15  C    0.032815
    16  H    0.180445
    17  H    0.010237
    18  H    0.021213
    19  H    0.035542
    20  H    0.001435
    21  H    0.017294
    22  H    0.019661
    23  H    0.019230
    24  H    0.016598
    25  H    0.022198
    26  H    0.030723
    27  H    0.038436
    28  H    0.033925
 Sum of Mulliken charges =  -0.00000
 Mulliken charges with hydrogens summed into heavy atoms:
               1
     1  O   -0.122387
     2  C    0.186698
     3  C    0.148526
     4  C   -0.061971
     5  C   -0.037790
     6  C    0.000291
     7  C    0.000361
     8  C    0.000033
     9  C    0.005036
    10  C   -0.139884
    11  C    0.041653
    12  C   -0.015811
    13  C    0.066888
    14  N   -0.138383
    15  C    0.066740
 Electronic spatial extent (au):  <R**2>=           4293.6199
 Charge=             -0.0000 electrons
 Dipole moment (field-independent basis, Debye):
    X=              0.2541    Y=              2.0678    Z=              1.7114  Tot=              2.6962
 Quadrupole moment (field-independent basis, Debye-Ang):
   XX=            -89.4677   YY=            -82.7867   ZZ=            -88.6586
   XY=             -7.6196   XZ=             -2.1597   YZ=             -1.2229
 Traceless Quadrupole moment (field-independent basis, Debye-Ang):
   XX=             -2.4967   YY=              4.1843   ZZ=             -1.6876
   XY=             -7.6196   XZ=             -2.1597   YZ=             -1.2229
 Octapole moment (field-independent basis, Debye-Ang**2):
  XXX=             29.7650  YYY=             -0.6165  ZZZ=             12.7317  XYY=              6.0573
  XXY=             35.7565  XXZ=             17.4430  XZZ=             -9.2756  YZZ=            -10.0332
  YYZ=              8.5405  XYZ=              6.8126
 Hexadecapole moment (field-independent basis, Debye-Ang**3):
 XXXX=          -4777.4088 YYYY=           -636.9930 ZZZZ=           -207.2729 XXXY=           -194.1344
 XXXZ=             37.7557 YYYX=            -17.5382 YYYZ=             -7.8129 ZZZX=             -0.2763
 ZZZY=            -21.5002 XXYY=           -916.9386 XXZZ=           -951.5692 YYZZ=           -143.0276
 XXYZ=            -12.2364 YYXZ=            -15.7283 ZZXY=              2.9707
 N-N= 8.948925311950D+02 E-N=-3.257161914310D+03  KE= 6.257925001464D+02
   1 Symmetry operations used in ECPInt.
 ECPInt:  NShTT=    8385 NPrTT=   30369 LenC2=    7736 LenP2D=   20476.
 LDataN:  DoStor=T MaxTD1= 5 Len=  102
 Calling FoFJK, ICntrl=      2127 FMM=F ISym2X=0 I1Cent= 0 IOpClX= 0 NMat=1 NMatS=1 NMatT=0.
 ***** Axes restored to original set *****
 -------------------------------------------------------------------
 Center     Atomic                   Forces (Hartrees/Bohr)
 Number     Number              X              Y              Z
 -------------------------------------------------------------------
      1        8          -0.000005060    0.000003939   -0.000014306
      2        6           0.000015661   -0.000008570    0.000015745
      3        6          -0.000001363   -0.000004976   -0.000004873
      4        6           0.000000540    0.000011012    0.000001684
      5        6          -0.000010053    0.000005098    0.000000851
      6        6           0.000008413   -0.000002492    0.000001656
      7        6           0.000000168    0.000002154    0.000000460
      8        6           0.000005404   -0.000002962    0.000001238
      9        6          -0.000006153   -0.000009005   -0.000003146
     10        6          -0.000018057    0.000012592   -0.000003640
     11        6           0.000007866    0.000001211    0.000006715
     12        6          -0.000002285    0.000001519   -0.000003014
     13        6          -0.000000620   -0.000005440    0.000006828
     14        7          -0.000004737    0.000006796   -0.000002337
     15        6           0.000011760   -0.000003411   -0.000007000
     16        1           0.000003139    0.000002663    0.000002522
     17        1          -0.000002180   -0.000001542   -0.000002768
     18        1          -0.000000821   -0.000000671    0.000003248
     19        1           0.000002034    0.000000957    0.000000371
     20        1           0.000002565   -0.000005364    0.000002749
     21        1          -0.000001312   -0.000002953    0.000002594
     22        1          -0.000000445   -0.000001333    0.000000217
     23        1          -0.000001617    0.000001233   -0.000002187
     24        1           0.000001154    0.000002899   -0.000001606
     25        1          -0.000001544   -0.000004240   -0.000000257
     26        1           0.000000082    0.000000350    0.000001990
     27        1          -0.000000669    0.000001844   -0.000003120
     28        1          -0.000001868   -0.000001309   -0.000000615
 -------------------------------------------------------------------
 Cartesian Forces:  Max     0.000018057 RMS     0.000005480

 GradGradGradGradGradGradGradGradGradGradGradGradGradGradGradGradGradGrad
 Berny optimization.
 FormGI is forming the generalized inverse of G from B-inverse, IUseBI=4.
 Internal  Forces:  Max     0.000011681 RMS     0.000002535
 Search for a local minimum.
 Step number   1 out of a maximum of  154
 All quantities printed in internal units (Hartrees-Bohrs-Radians)
 Mixed Optimization -- En-DIIS/RFO-DIIS
 Second derivative matrix not updated -- first step.
 ITU=  0
     Eigenvalues ---    0.00301   0.00536   0.00651   0.01467   0.01508
     Eigenvalues ---    0.01618   0.02102   0.02128   0.02136   0.02142
     Eigenvalues ---    0.02153   0.02162   0.02167   0.02168   0.02169
     Eigenvalues ---    0.02172   0.02184   0.02201   0.02260   0.02309
     Eigenvalues ---    0.02504   0.04025   0.05138   0.05473   0.05542
     Eigenvalues ---    0.07665   0.09374   0.12896   0.15999   0.16000
     Eigenvalues ---    0.16000   0.16000   0.16000   0.16000   0.16000
     Eigenvalues ---    0.16000   0.16000   0.16000   0.17340   0.20162
     Eigenvalues ---    0.21972   0.22000   0.22000   0.22000   0.23201
     Eigenvalues ---    0.23440   0.23470   0.24985   0.24990   0.28951
     Eigenvalues ---    0.30620   0.31483   0.32756   0.33444   0.33649
     Eigenvalues ---    0.34176   0.34249   0.34311   0.34354   0.34531
     Eigenvalues ---    0.34535   0.34551   0.34639   0.34641   0.42041
     Eigenvalues ---    0.42066   0.42284   0.44422   0.44703   0.45868
     Eigenvalues ---    0.46107   0.46152   0.46582   0.46698   0.46729
     Eigenvalues ---    0.55130   0.56931   0.58384
 RFO step:  Lambda= 0.00000000D+00 EMin= 3.00754333D-03
 Linear search not attempted -- first point.
 Iteration  1 RMS(Cart)=  0.00013762 RMS(Int)=  0.00000001
 Iteration  2 RMS(Cart)=  0.00000001 RMS(Int)=  0.00000000
 Variable       Old X    -DE/DX   Delta X   Delta X   Delta X     New X
                                 (Linear)    (Quad)   (Total)
    R1        2.65622  -0.00001   0.00000  -0.00002  -0.00002   2.65619
    R2        1.81717   0.00000   0.00000   0.00000   0.00000   1.81717
    R3        2.90105  -0.00000   0.00000  -0.00001  -0.00001   2.90104
    R4        2.86743   0.00001   0.00000   0.00004   0.00004   2.86747
    R5        2.09482  -0.00000   0.00000  -0.00001  -0.00001   2.09481
    R6        2.85099  -0.00000   0.00000  -0.00000  -0.00000   2.85099
    R7        2.07926  -0.00000   0.00000  -0.00001  -0.00001   2.07926
    R8        2.08278  -0.00000   0.00000  -0.00000  -0.00000   2.08278
    R9        2.64376  -0.00000   0.00000  -0.00001  -0.00001   2.64376
   R10        2.64620   0.00000   0.00000   0.00001   0.00001   2.64621
   R11        2.63552   0.00001   0.00000   0.00001   0.00001   2.63553
   R12        2.06736  -0.00001   0.00000  -0.00002  -0.00002   2.06734
   R13        2.63301  -0.00000   0.00000  -0.00000  -0.00000   2.63301
   R14        2.06437  -0.00000   0.00000  -0.00001  -0.00001   2.06436
   R15        2.63646   0.00000   0.00000   0.00000   0.00000   2.63646
   R16        2.06409  -0.00000   0.00000  -0.00000  -0.00000   2.06409
   R17        2.63211   0.00000   0.00000   0.00001   0.00001   2.63212
   R18        2.06444  -0.00000   0.00000  -0.00001  -0.00001   2.06443
   R19        2.06265  -0.00000   0.00000  -0.00001  -0.00001   2.06264
   R20        2.63769  -0.00000   0.00000  -0.00001  -0.00001   2.63769
   R21        2.64346   0.00000   0.00000   0.00000   0.00000   2.64346
   R22        2.62847   0.00000   0.00000   0.00001   0.00001   2.62848
   R23        2.06808  -0.00000   0.00000  -0.00001  -0.00001   2.06807
   R24        2.63687   0.00000   0.00000   0.00000   0.00000   2.63687
   R25        2.06262   0.00000   0.00000   0.00000   0.00000   2.06262
   R26        2.51394  -0.00000   0.00000  -0.00001  -0.00001   2.51394
   R27        2.07035   0.00000   0.00000   0.00000   0.00000   2.07035
   R28        2.51609   0.00000   0.00000   0.00001   0.00001   2.51609
   R29        2.06913   0.00000   0.00000   0.00000   0.00000   2.06913
    A1        1.89829  -0.00001   0.00000  -0.00003  -0.00003   1.89826
    A2        1.87334  -0.00000   0.00000  -0.00003  -0.00003   1.87331
    A3        1.95643   0.00000   0.00000  -0.00000  -0.00000   1.95643
    A4        1.93080   0.00000   0.00000   0.00003   0.00003   1.93082
    A5        1.93772  -0.00000   0.00000  -0.00002  -0.00002   1.93770
    A6        1.87616   0.00000   0.00000   0.00001   0.00001   1.87617
    A7        1.88810   0.00000   0.00000   0.00002   0.00002   1.88812
    A8        1.97808  -0.00000   0.00000  -0.00002  -0.00002   1.97807
    A9        1.88871  -0.00000   0.00000  -0.00002  -0.00002   1.88869
   A10        1.87437   0.00000   0.00000   0.00001   0.00001   1.87439
   A11        1.91824   0.00000   0.00000   0.00002   0.00002   1.91826
   A12        1.93379  -0.00000   0.00000  -0.00001  -0.00001   1.93378
   A13        1.86652   0.00000   0.00000   0.00002   0.00002   1.86654
   A14        2.10411   0.00000   0.00000   0.00002   0.00002   2.10413
   A15        2.11052  -0.00001   0.00000  -0.00003  -0.00003   2.11050
   A16        2.06821   0.00000   0.00000   0.00001   0.00001   2.06822
   A17        2.11133  -0.00000   0.00000  -0.00001  -0.00001   2.11132
   A18        2.08495   0.00000   0.00000   0.00000   0.00000   2.08495
   A19        2.08689   0.00000   0.00000   0.00001   0.00001   2.08690
   A20        2.09431   0.00000   0.00000   0.00001   0.00001   2.09432
   A21        2.09171  -0.00000   0.00000  -0.00001  -0.00001   2.09170
   A22        2.09716  -0.00000   0.00000  -0.00000  -0.00000   2.09716
   A23        2.08671   0.00000   0.00000   0.00000   0.00000   2.08671
   A24        2.09816   0.00000   0.00000   0.00000   0.00000   2.09816
   A25        2.09831  -0.00000   0.00000  -0.00000  -0.00000   2.09831
   A26        2.09947  -0.00000   0.00000  -0.00000  -0.00000   2.09947
   A27        2.09428   0.00000   0.00000   0.00000   0.00000   2.09428
   A28        2.08944  -0.00000   0.00000  -0.00000  -0.00000   2.08944
   A29        2.10634  -0.00000   0.00000  -0.00000  -0.00000   2.10634
   A30        2.07929   0.00000   0.00000   0.00000   0.00000   2.07929
   A31        2.09750   0.00000   0.00000   0.00000   0.00000   2.09750
   A32        2.12210   0.00000   0.00000   0.00002   0.00002   2.12212
   A33        2.11173  -0.00001   0.00000  -0.00004  -0.00004   2.11170
   A34        2.04887   0.00000   0.00000   0.00002   0.00002   2.04889
   A35        2.08065  -0.00000   0.00000  -0.00001  -0.00001   2.08064
   A36        2.09813   0.00000   0.00000   0.00000   0.00000   2.09814
   A37        2.10440   0.00000   0.00000   0.00001   0.00001   2.10441
   A38        2.06568   0.00000   0.00000   0.00000   0.00000   2.06568
   A39        2.11556   0.00000   0.00000   0.00000   0.00000   2.11556
   A40        2.10194  -0.00000   0.00000  -0.00000  -0.00000   2.10194
   A41        2.15038   0.00000   0.00000   0.00000   0.00000   2.15038
   A42        2.09846   0.00000   0.00000   0.00000   0.00000   2.09846
   A43        2.03434  -0.00000   0.00000  -0.00000  -0.00000   2.03434
   A44        2.05841   0.00000   0.00000   0.00001   0.00001   2.05842
   A45        2.16236  -0.00000   0.00000  -0.00001  -0.00001   2.16235
   A46        2.07956   0.00000   0.00000   0.00002   0.00002   2.07957
   A47        2.04124   0.00000   0.00000  -0.00000  -0.00000   2.04123
    D1        3.01782  -0.00000   0.00000  -0.00020  -0.00020   3.01762
    D2       -1.13324  -0.00001   0.00000  -0.00025  -0.00025  -1.13349
    D3        0.97578  -0.00000   0.00000  -0.00021  -0.00021   0.97556
    D4       -1.15858   0.00000   0.00000   0.00001   0.00001  -1.15857
    D5        2.99242  -0.00000   0.00000   0.00001   0.00001   2.99244
    D6        0.98311  -0.00000   0.00000  -0.00000  -0.00000   0.98311
    D7        2.98088   0.00000   0.00000   0.00005   0.00005   2.98093
    D8        0.84869   0.00000   0.00000   0.00005   0.00005   0.84875
    D9       -1.16062  -0.00000   0.00000   0.00004   0.00004  -1.16058
   D10        0.91895   0.00000   0.00000   0.00003   0.00003   0.91899
   D11       -1.21323   0.00000   0.00000   0.00003   0.00003  -1.21320
   D12        3.06064  -0.00000   0.00000   0.00002   0.00002   3.06066
   D13        2.67722   0.00000   0.00000  -0.00017  -0.00017   2.67705
   D14       -0.49881   0.00000   0.00000  -0.00017  -0.00017  -0.49898
   D15       -1.51097  -0.00000   0.00000  -0.00023  -0.00023  -1.51120
   D16        1.59618  -0.00000   0.00000  -0.00023  -0.00023   1.59595
   D17        0.54370  -0.00000   0.00000  -0.00021  -0.00021   0.54349
   D18       -2.63233  -0.00000   0.00000  -0.00022  -0.00022  -2.63255
   D19       -1.75760   0.00000   0.00000   0.00011   0.00011  -1.75749
   D20        1.35558   0.00000   0.00000   0.00010   0.00010   1.35568
   D21        0.35805  -0.00000   0.00000   0.00008   0.00008   0.35814
   D22       -2.81195  -0.00000   0.00000   0.00008   0.00008  -2.81188
   D23        2.41714   0.00000   0.00000   0.00011   0.00011   2.41724
   D24       -0.75287   0.00000   0.00000   0.00010   0.00010  -0.75277
   D25        3.11514   0.00000   0.00000   0.00001   0.00001   3.11515
   D26       -0.03288   0.00000   0.00000   0.00001   0.00001  -0.03287
   D27        0.00129   0.00000   0.00000   0.00002   0.00002   0.00130
   D28        3.13645   0.00000   0.00000   0.00002   0.00002   3.13646
   D29       -3.11541  -0.00000   0.00000  -0.00000  -0.00000  -3.11541
   D30        0.01457   0.00000   0.00000   0.00000   0.00000   0.01458
   D31       -0.00166  -0.00000   0.00000  -0.00001  -0.00001  -0.00167
   D32        3.12832  -0.00000   0.00000  -0.00000  -0.00000   3.12832
   D33       -0.00036  -0.00000   0.00000  -0.00001  -0.00001  -0.00038
   D34        3.13679   0.00000   0.00000   0.00000   0.00000   3.13679
   D35       -3.13552  -0.00000   0.00000  -0.00001  -0.00001  -3.13553
   D36        0.00164   0.00000   0.00000   0.00001   0.00001   0.00164
   D37       -0.00021  -0.00000   0.00000  -0.00000  -0.00000  -0.00021
   D38        3.13840   0.00000   0.00000   0.00000   0.00000   3.13841
   D39       -3.13735  -0.00000   0.00000  -0.00002  -0.00002  -3.13737
   D40        0.00127  -0.00000   0.00000  -0.00002  -0.00002   0.00125
   D41       -0.00017   0.00000   0.00000   0.00001   0.00001  -0.00016
   D42        3.14044  -0.00000   0.00000  -0.00000  -0.00000   3.14044
   D43       -3.13878   0.00000   0.00000   0.00001   0.00001  -3.13877
   D44        0.00183  -0.00000   0.00000  -0.00001  -0.00001   0.00182
   D45        0.00112  -0.00000   0.00000  -0.00001  -0.00001   0.00111
   D46       -3.12874  -0.00000   0.00000  -0.00001  -0.00001  -3.12875
   D47       -3.13949   0.00000   0.00000   0.00001   0.00001  -3.13948
   D48        0.01383   0.00000   0.00000   0.00000   0.00000   0.01383
   D49        3.10291   0.00000   0.00000   0.00001   0.00001   3.10292
   D50       -0.04197   0.00000   0.00000   0.00003   0.00003  -0.04194
   D51       -0.00543   0.00000   0.00000   0.00001   0.00001  -0.00541
   D52        3.13287   0.00000   0.00000   0.00003   0.00003   3.13291
   D53       -3.10395  -0.00000   0.00000  -0.00004  -0.00004  -3.10399
   D54        0.04616   0.00000   0.00000   0.00006   0.00006   0.04622
   D55        0.00460  -0.00000   0.00000  -0.00005  -0.00005   0.00455
   D56       -3.12847   0.00000   0.00000   0.00005   0.00005  -3.12842
   D57        0.00150   0.00000   0.00000   0.00004   0.00004   0.00155
   D58        3.13835   0.00000   0.00000   0.00002   0.00002   3.13836
   D59       -3.13679   0.00000   0.00000   0.00002   0.00002  -3.13676
   D60        0.00005  -0.00000   0.00000  -0.00000  -0.00000   0.00005
   D61        0.00395  -0.00000   0.00000  -0.00008  -0.00008   0.00387
   D62       -3.14078   0.00000   0.00000   0.00005   0.00005  -3.14072
   D63       -3.13293  -0.00000   0.00000  -0.00005  -0.00005  -3.13298
   D64        0.00553   0.00000   0.00000   0.00008   0.00008   0.00561
   D65       -0.00497   0.00000   0.00000   0.00005   0.00005  -0.00492
   D66        3.13965  -0.00000   0.00000  -0.00008  -0.00008   3.13957
   D67        0.00057   0.00000   0.00000   0.00001   0.00001   0.00058
   D68        3.13381  -0.00000   0.00000  -0.00008  -0.00008   3.13373
         Item               Value     Threshold  Converged?
 Maximum Force            0.000012     0.000450     YES
 RMS     Force            0.000003     0.000300     YES
 Maximum Displacement     0.000571     0.001800     YES
 RMS     Displacement     0.000138     0.001200     YES
 Predicted change in Energy=-4.364385D-09
 Optimization completed.
    -- Stationary point found.
                           ----------------------------
                           !   Optimized Parameters   !
                           ! (Angstroms and Degrees)  !
 --------------------------                            --------------------------
 ! Name  Definition              Value          Derivative Info.                !
 --------------------------------------------------------------------------------
 ! R1    R(1,2)                  1.4056         -DE/DX =    0.0                 !
 ! R2    R(1,16)                 0.9616         -DE/DX =    0.0                 !
 ! R3    R(2,3)                  1.5352         -DE/DX =    0.0                 !
 ! R4    R(2,10)                 1.5174         -DE/DX =    0.0                 !
 ! R5    R(2,17)                 1.1085         -DE/DX =    0.0                 !
 ! R6    R(3,4)                  1.5087         -DE/DX =    0.0                 !
 ! R7    R(3,18)                 1.1003         -DE/DX =    0.0                 !
 ! R8    R(3,19)                 1.1022         -DE/DX =    0.0                 !
 ! R9    R(4,5)                  1.399          -DE/DX =    0.0                 !
 ! R10   R(4,9)                  1.4003         -DE/DX =    0.0                 !
 ! R11   R(5,6)                  1.3947         -DE/DX =    0.0                 !
 ! R12   R(5,20)                 1.094          -DE/DX =    0.0                 !
 ! R13   R(6,7)                  1.3933         -DE/DX =    0.0                 !
 ! R14   R(6,21)                 1.0924         -DE/DX =    0.0                 !
 ! R15   R(7,8)                  1.3952         -DE/DX =    0.0                 !
 ! R16   R(7,22)                 1.0923         -DE/DX =    0.0                 !
 ! R17   R(8,9)                  1.3929         -DE/DX =    0.0                 !
 ! R18   R(8,23)                 1.0925         -DE/DX =    0.0                 !
 ! R19   R(9,24)                 1.0915         -DE/DX =    0.0                 !
 ! R20   R(10,11)                1.3958         -DE/DX =    0.0                 !
 ! R21   R(10,15)                1.3989         -DE/DX =    0.0                 !
 ! R22   R(11,12)                1.3909         -DE/DX =    0.0                 !
 ! R23   R(11,25)                1.0944         -DE/DX =    0.0                 !
 ! R24   R(12,13)                1.3954         -DE/DX =    0.0                 !
 ! R25   R(12,26)                1.0915         -DE/DX =    0.0                 !
 ! R26   R(13,14)                1.3303         -DE/DX =    0.0                 !
 ! R27   R(13,27)                1.0956         -DE/DX =    0.0                 !
 ! R28   R(14,15)                1.3315         -DE/DX =    0.0                 !
 ! R29   R(15,28)                1.0949         -DE/DX =    0.0                 !
 ! A1    A(2,1,16)             108.764          -DE/DX =    0.0                 !
 ! A2    A(1,2,3)              107.3346         -DE/DX =    0.0                 !
 ! A3    A(1,2,10)             112.0952         -DE/DX =    0.0                 !
 ! A4    A(1,2,17)             110.6264         -DE/DX =    0.0                 !
 ! A5    A(3,2,10)             111.023          -DE/DX =    0.0                 !
 ! A6    A(3,2,17)             107.4961         -DE/DX =    0.0                 !
 ! A7    A(10,2,17)            108.1803         -DE/DX =    0.0                 !
 ! A8    A(2,3,4)              113.3358         -DE/DX =    0.0                 !
 ! A9    A(2,3,18)             108.2151         -DE/DX =    0.0                 !
 ! A10   A(2,3,19)             107.3937         -DE/DX =    0.0                 !
 ! A11   A(4,3,18)             109.9072         -DE/DX =    0.0                 !
 ! A12   A(4,3,19)             110.7981         -DE/DX =    0.0                 !
 ! A13   A(18,3,19)            106.9439         -DE/DX =    0.0                 !
 ! A14   A(3,4,5)              120.5566         -DE/DX =    0.0                 !
 ! A15   A(3,4,9)              120.9241         -DE/DX =    0.0                 !
 ! A16   A(5,4,9)              118.4998         -DE/DX =    0.0                 !
 ! A17   A(4,5,6)              120.9701         -DE/DX =    0.0                 !
 ! A18   A(4,5,20)             119.459          -DE/DX =    0.0                 !
 ! A19   A(6,5,20)             119.5699         -DE/DX =    0.0                 !
 ! A20   A(5,6,7)              119.995          -DE/DX =    0.0                 !
 ! A21   A(5,6,21)             119.846          -DE/DX =    0.0                 !
 ! A22   A(7,6,21)             120.1585         -DE/DX =    0.0                 !
 ! A23   A(6,7,8)              119.5597         -DE/DX =    0.0                 !
 ! A24   A(6,7,22)             120.2158         -DE/DX =    0.0                 !
 ! A25   A(8,7,22)             120.2242         -DE/DX =    0.0                 !
 ! A26   A(7,8,9)              120.2907         -DE/DX =    0.0                 !
 ! A27   A(7,8,23)             119.9932         -DE/DX =    0.0                 !
 ! A28   A(9,8,23)             119.7161         -DE/DX =    0.0                 !
 ! A29   A(4,9,8)              120.6846         -DE/DX =    0.0                 !
 ! A30   A(4,9,24)             119.1344         -DE/DX =    0.0                 !
 ! A31   A(8,9,24)             120.1777         -DE/DX =    0.0                 !
 ! A32   A(2,10,11)            121.5872         -DE/DX =    0.0                 !
 ! A33   A(2,10,15)            120.9933         -DE/DX =    0.0                 !
 ! A34   A(11,10,15)           117.3916         -DE/DX =    0.0                 !
 ! A35   A(10,11,12)           119.2123         -DE/DX =    0.0                 !
 ! A36   A(10,11,25)           120.2142         -DE/DX =    0.0                 !
 ! A37   A(12,11,25)           120.5732         -DE/DX =    0.0                 !
 ! A38   A(11,12,13)           118.3546         -DE/DX =    0.0                 !
 ! A39   A(11,12,26)           121.2128         -DE/DX =    0.0                 !
 ! A40   A(13,12,26)           120.4321         -DE/DX =    0.0                 !
 ! A41   A(12,13,14)           123.2078         -DE/DX =    0.0                 !
 ! A42   A(12,13,27)           120.2329         -DE/DX =    0.0                 !
 ! A43   A(14,13,27)           116.559          -DE/DX =    0.0                 !
 ! A44   A(13,14,15)           117.9384         -DE/DX =    0.0                 !
 ! A45   A(10,15,14)           123.8942         -DE/DX =    0.0                 !
 ! A46   A(10,15,28)           119.1499         -DE/DX =    0.0                 !
 ! A47   A(14,15,28)           116.9542         -DE/DX =    0.0                 !
 ! D1    D(16,1,2,3)           172.9086         -DE/DX =    0.0                 !
 ! D2    D(16,1,2,10)          -64.9297         -DE/DX =    0.0                 !
 ! D3    D(16,1,2,17)           55.9078         -DE/DX =    0.0                 !
 ! D4    D(1,2,3,4)            -66.3816         -DE/DX =    0.0                 !
 ! D5    D(1,2,3,18)           171.4533         -DE/DX =    0.0                 !
 ! D6    D(1,2,3,19)            56.3281         -DE/DX =    0.0                 !
 ! D7    D(10,2,3,4)           170.7916         -DE/DX =    0.0                 !
 ! D8    D(10,2,3,18)           48.6265         -DE/DX =    0.0                 !
 ! D9    D(10,2,3,19)          -66.4986         -DE/DX =    0.0                 !
 ! D10   D(17,2,3,4)            52.6522         -DE/DX =    0.0                 !
 ! D11   D(17,2,3,18)          -69.5129         -DE/DX =    0.0                 !
 ! D12   D(17,2,3,19)          175.362          -DE/DX =    0.0                 !
 ! D13   D(1,2,10,11)          153.3934         -DE/DX =    0.0                 !
 ! D14   D(1,2,10,15)          -28.5798         -DE/DX =    0.0                 !
 ! D15   D(3,2,10,11)          -86.5723         -DE/DX =    0.0                 !
 ! D16   D(3,2,10,15)           91.4545         -DE/DX =    0.0                 !
 ! D17   D(17,2,10,11)          31.1519         -DE/DX =    0.0                 !
 ! D18   D(17,2,10,15)        -150.8213         -DE/DX =    0.0                 !
 ! D19   D(2,3,4,5)           -100.7031         -DE/DX =    0.0                 !
 ! D20   D(2,3,4,9)             77.669          -DE/DX =    0.0                 !
 ! D21   D(18,3,4,5)            20.515          -DE/DX =    0.0                 !
 ! D22   D(18,3,4,9)          -161.1129         -DE/DX =    0.0                 !
 ! D23   D(19,3,4,5)           138.4917         -DE/DX =    0.0                 !
 ! D24   D(19,3,4,9)           -43.1363         -DE/DX =    0.0                 !
 ! D25   D(3,4,5,6)            178.4846         -DE/DX =    0.0                 !
 ! D26   D(3,4,5,20)            -1.884          -DE/DX =    0.0                 !
 ! D27   D(9,4,5,6)              0.0737         -DE/DX =    0.0                 !
 ! D28   D(9,4,5,20)           179.7051         -DE/DX =    0.0                 !
 ! D29   D(3,4,9,8)           -178.5            -DE/DX =    0.0                 !
 ! D30   D(3,4,9,24)             0.8348         -DE/DX =    0.0                 !
 ! D31   D(5,4,9,8)             -0.0952         -DE/DX =    0.0                 !
 ! D32   D(5,4,9,24)           179.2397         -DE/DX =    0.0                 !
 ! D33   D(4,5,6,7)             -0.0209         -DE/DX =    0.0                 !
 ! D34   D(4,5,6,21)           179.7247         -DE/DX =    0.0                 !
 ! D35   D(20,5,6,7)          -179.6519         -DE/DX =    0.0                 !
 ! D36   D(20,5,6,21)            0.0937         -DE/DX =    0.0                 !
 ! D37   D(5,6,7,8)             -0.012          -DE/DX =    0.0                 !
 ! D38   D(5,6,7,22)           179.8173         -DE/DX =    0.0                 !
 ! D39   D(21,6,7,8)          -179.7568         -DE/DX =    0.0                 !
 ! D40   D(21,6,7,22)            0.0725         -DE/DX =    0.0                 !
 ! D41   D(6,7,8,9)             -0.0096         -DE/DX =    0.0                 !
 ! D42   D(6,7,8,23)           179.9342         -DE/DX =    0.0                 !
 ! D43   D(22,7,8,9)          -179.8388         -DE/DX =    0.0                 !
 ! D44   D(22,7,8,23)            0.105          -DE/DX =    0.0                 !
 ! D45   D(7,8,9,4)              0.0643         -DE/DX =    0.0                 !
 ! D46   D(7,8,9,24)          -179.2637         -DE/DX =    0.0                 !
 ! D47   D(23,8,9,4)          -179.8797         -DE/DX =    0.0                 !
 ! D48   D(23,8,9,24)            0.7924         -DE/DX =    0.0                 !
 ! D49   D(2,10,11,12)         177.7839         -DE/DX =    0.0                 !
 ! D50   D(2,10,11,25)          -2.4046         -DE/DX =    0.0                 !
 ! D51   D(15,10,11,12)         -0.3111         -DE/DX =    0.0                 !
 ! D52   D(15,10,11,25)        179.5004         -DE/DX =    0.0                 !
 ! D53   D(2,10,15,14)        -177.8435         -DE/DX =    0.0                 !
 ! D54   D(2,10,15,28)           2.6448         -DE/DX =    0.0                 !
 ! D55   D(11,10,15,14)          0.2634         -DE/DX =    0.0                 !
 ! D56   D(11,10,15,28)       -179.2483         -DE/DX =    0.0                 !
 ! D57   D(10,11,12,13)          0.0862         -DE/DX =    0.0                 !
 ! D58   D(10,11,12,26)        179.814          -DE/DX =    0.0                 !
 ! D59   D(25,11,12,13)       -179.7246         -DE/DX =    0.0                 !
 ! D60   D(25,11,12,26)          0.0031         -DE/DX =    0.0                 !
 ! D61   D(11,12,13,14)          0.2263         -DE/DX =    0.0                 !
 ! D62   D(11,12,13,27)       -179.9534         -DE/DX =    0.0                 !
 ! D63   D(26,12,13,14)       -179.5037         -DE/DX =    0.0                 !
 ! D64   D(26,12,13,27)          0.3167         -DE/DX =    0.0                 !
 ! D65   D(12,13,14,15)         -0.2848         -DE/DX =    0.0                 !
 ! D66   D(27,13,14,15)        179.8887         -DE/DX =    0.0                 !
 ! D67   D(13,14,15,10)          0.0324         -DE/DX =    0.0                 !
 ! D68   D(13,14,15,28)        179.5541         -DE/DX =    0.0                 !
 --------------------------------------------------------------------------------
 GradGradGradGradGradGradGradGradGradGradGradGradGradGradGradGradGradGrad

                          Input orientation:                          
 ---------------------------------------------------------------------
 Center     Atomic      Atomic             Coordinates (Angstroms)
 Number     Number       Type             X           Y           Z
 ---------------------------------------------------------------------
      1          8           0       -0.134180   -1.578140    0.847560
      2          6           0       -0.424510   -0.238960    0.534440
      3          6           0        0.414190    0.135340   -0.695690
      4          6           0        1.898270    0.151240   -0.424820
      5          6           0        2.568770    1.359810   -0.207920
      6          6           0        3.934410    1.382310    0.074190
      7          6           0        4.651040    0.189430    0.143820
      8          6           0        3.993200   -1.022180   -0.069970
      9          6           0        2.629130   -1.040930   -0.351050
[...]
     5  C    0.004274  -0.009622  -0.091896   0.390170   5.099280   0.427416
     6  C   -0.000432   0.001764   0.011741   0.028409   0.427416   4.919414
     7  C    0.000464  -0.000357  -0.003654  -0.113125   0.042428   0.433447
     8  C   -0.004247   0.002004   0.009121   0.060003  -0.092454   0.027757
     9  C    0.014039  -0.013611  -0.085281   0.334818   0.069759  -0.095757
    10  C   -0.047429   0.229743   0.018081  -0.005993   0.000584  -0.000217
    11  C    0.016675  -0.139887   0.012279  -0.000066   0.000075   0.000028
    12  C   -0.001471   0.017222  -0.000213  -0.000008   0.000003  -0.000001
    13  C    0.000504  -0.004211   0.000561  -0.000040  -0.000000   0.000000
    14  N    0.000613   0.005544   0.000293  -0.000037  -0.000002   0.000000
    15  C    0.021355  -0.104673  -0.014602  -0.000833   0.000069  -0.000017
    16  H    0.296711  -0.036516   0.015203   0.001072  -0.000509   0.000059
    17  H   -0.033943   0.419207  -0.061158  -0.006302   0.005266  -0.001197
    18  H    0.002740  -0.046542   0.435057  -0.060044   0.005632   0.000404
    19  H    0.001877  -0.037607   0.405304  -0.032373   0.004614  -0.000679
    20  H    0.000080  -0.002230  -0.001460  -0.070174   0.439143  -0.047111
    21  H   -0.000001   0.000008  -0.000218   0.013623  -0.059029   0.443211
    22  H    0.000001   0.000003   0.000063  -0.002851   0.010093  -0.054330
    23  H   -0.000125   0.000004  -0.000252   0.014068  -0.003478   0.010953
    24  H    0.012269  -0.006913   0.002978  -0.065331   0.012021  -0.003861
    25  H    0.000310  -0.001514  -0.001451  -0.000339   0.000259  -0.000007
    26  H    0.000006  -0.000141   0.000035  -0.000002  -0.000001   0.000000
    27  H    0.000001  -0.000008   0.000017  -0.000000  -0.000000   0.000000
    28  H    0.026040  -0.023528   0.001624  -0.000681  -0.000008  -0.000002
               7          8          9         10         11         12
     1  O    0.000464  -0.004247   0.014039  -0.047429   0.016675  -0.001471
     2  C   -0.000357   0.002004  -0.013611   0.229743  -0.139887   0.017222
     3  C   -0.003654   0.009121  -0.085281   0.018081   0.012279  -0.000213
     4  C   -0.113125   0.060003   0.334818  -0.005993  -0.000066  -0.000008
     5  C    0.042428  -0.092454   0.069759   0.000584   0.000075   0.000003
     6  C    0.433447   0.027757  -0.095757  -0.000217   0.000028  -0.000001
     7  C    4.956296   0.408056   0.063946   0.000093  -0.000014   0.000000
     8  C    0.408056   4.975409   0.373935  -0.000268   0.000048  -0.000001
     9  C    0.063946   0.373935   5.143399   0.002915  -0.000391   0.000017
    10  C    0.000093  -0.000268   0.002915   5.385053   0.304049   0.003003
    11  C   -0.000014   0.000048  -0.000391   0.304049   5.219528   0.422529
    12  C    0.000000  -0.000001   0.000017   0.003003   0.422529   4.923665
    13  C   -0.000000   0.000000  -0.000003  -0.045699   0.020043   0.489013
    14  N    0.000000  -0.000000   0.000002  -0.027511  -0.079113  -0.036347
    15  C    0.000010  -0.000040   0.000952   0.326272   0.045956  -0.034795
    16  H   -0.000056   0.000267  -0.001435   0.013077   0.002814  -0.000207
    17  H    0.000518  -0.001202   0.009651  -0.087238   0.007993  -0.001290
    18  H    0.000295  -0.000747   0.006135  -0.002687  -0.001189   0.000363
    19  H    0.000264   0.000102   0.001685  -0.006659   0.004322  -0.000375
    20  H    0.009966  -0.003734   0.013529  -0.000095   0.000135   0.000007
    21  H   -0.055609   0.010941  -0.004018  -0.000001   0.000000  -0.000000
    22  H    0.440689  -0.054302   0.010160   0.000000  -0.000000   0.000000
    23  H   -0.058380   0.446489  -0.060362  -0.000003   0.000000  -0.000000
    24  H    0.011136  -0.056237   0.446817   0.000293  -0.000031   0.000001
    25  H    0.000001  -0.000001   0.000044  -0.071203   0.443510  -0.042625
    26  H   -0.000000   0.000000  -0.000000   0.013091  -0.061944   0.421692
    27  H   -0.000000  -0.000000  -0.000000   0.000323   0.002804  -0.067524
    28  H    0.000002  -0.000005   0.000257  -0.082787   0.008595  -0.001055
              13         14         15         16         17         18
     1  O    0.000504   0.000613   0.021355   0.296711  -0.033943   0.002740
     2  C   -0.004211   0.005544  -0.104673  -0.036516   0.419207  -0.046542
     3  C    0.000561   0.000293  -0.014602   0.015203  -0.061158   0.435057
     4  C   -0.000040  -0.000037  -0.000833   0.001072  -0.006302  -0.060044
     5  C   -0.000000  -0.000002   0.000069  -0.000509   0.005266   0.005632
     6  C    0.000000   0.000000  -0.000017   0.000059  -0.001197   0.000404
     7  C   -0.000000   0.000000   0.000010  -0.000056   0.000518   0.000295
     8  C    0.000000  -0.000000  -0.000040   0.000267  -0.001202  -0.000747
     9  C   -0.000003   0.000002   0.000952  -0.001435   0.009651   0.006135
    10  C   -0.045699  -0.027511   0.326272   0.013077  -0.087238  -0.002687
    11  C    0.020043  -0.079113   0.045956   0.002814   0.007993  -0.001189
    12  C    0.489013  -0.036347  -0.034795  -0.000207  -0.001290   0.000363
    13  C    4.754135   0.507062  -0.098537   0.000089   0.000186  -0.000047
    14  N    0.507062   6.427330   0.504873  -0.000067  -0.000641  -0.000086
    15  C   -0.098537   0.504873   4.978264  -0.007331   0.020801   0.004164
    16  H    0.000089  -0.000067  -0.007331   0.413214  -0.011471  -0.000500
    17  H    0.000186  -0.000641   0.020801  -0.011471   0.616083   0.004067
    18  H   -0.000047  -0.000086   0.004164  -0.000500   0.004067   0.519671
    19  H    0.000077  -0.000208   0.002062  -0.000364   0.004821  -0.010392
    20  H   -0.000000  -0.000000   0.000020  -0.000016   0.001189   0.002485
    21  H    0.000000  -0.000000  -0.000000   0.000000   0.000002  -0.000056
    22  H   -0.000000   0.000000   0.000000  -0.000000   0.000001  -0.000001
    23  H    0.000000  -0.000000  -0.000001   0.000009  -0.000011   0.000005
    24  H   -0.000001   0.000001   0.000353  -0.000864   0.001273   0.000506
    25  H    0.004597  -0.002384   0.011659  -0.000028   0.006755   0.000833
    26  H   -0.035364   0.007499  -0.002862   0.000000  -0.000090   0.000011
    27  H    0.433716  -0.029516   0.002337   0.000001  -0.000007  -0.000002
    28  H    0.004771  -0.022581   0.448735  -0.002282   0.001728   0.000271
              19         20         21         22         23         24
     1  O    0.001877   0.000080  -0.000001   0.000001  -0.000125   0.012269
     2  C   -0.037607  -0.002230   0.000008   0.000003   0.000004  -0.006913
     3  C    0.405304  -0.001460  -0.000218   0.000063  -0.000252   0.002978
     4  C   -0.032373  -0.070174   0.013623  -0.002851   0.014068  -0.065331
     5  C    0.004614   0.439143  -0.059029   0.010093  -0.003478   0.012021
     6  C   -0.000679  -0.047111   0.443211  -0.054330   0.010953  -0.003861
     7  C    0.000264   0.009966  -0.055609   0.440689  -0.058380   0.011136
     8  C    0.000102  -0.003734   0.010941  -0.054302   0.446489  -0.056237
     9  C    0.001685   0.013529  -0.004018   0.010160  -0.060362   0.446817
    10  C   -0.006659  -0.000095  -0.000001   0.000000  -0.000003   0.000293
    11  C    0.004322   0.000135   0.000000  -0.000000   0.000000  -0.000031
    12  C   -0.000375   0.000007  -0.000000   0.000000  -0.000000   0.000001
    13  C    0.000077  -0.000000   0.000000  -0.000000   0.000000  -0.000001
    14  N   -0.000208  -0.000000  -0.000000   0.000000  -0.000000   0.000001
    15  C    0.002062   0.000020  -0.000000   0.000000  -0.000001   0.000353
    16  H   -0.000364  -0.000016   0.000000  -0.000000   0.000009  -0.000864
    17  H    0.004821   0.001189   0.000002   0.000001  -0.000011   0.001273
    18  H   -0.010392   0.002485  -0.000056  -0.000001   0.000005   0.000506
    19  H    0.517124   0.000505   0.000008  -0.000001  -0.000023   0.001989
    20  H    0.000505   0.554983  -0.007142  -0.000164   0.000044  -0.000073
    21  H    0.000008  -0.007142   0.548332  -0.006942  -0.000124   0.000026
    22  H   -0.000001  -0.000164  -0.006942   0.546033  -0.007080  -0.000095
    23  H   -0.000023   0.000044  -0.000124  -0.007080   0.547539  -0.007201
    24  H    0.001989  -0.000073   0.000026  -0.000095  -0.007201   0.520120
    25  H    0.000217   0.000160  -0.000000  -0.000000   0.000000   0.000005
    26  H   -0.000005  -0.000000   0.000000  -0.000000   0.000000  -0.000000
    27  H   -0.000002  -0.000000   0.000000   0.000000   0.000000  -0.000000
    28  H    0.000941   0.000000   0.000000   0.000000  -0.000000   0.000246
              25         26         27         28
     1  O    0.000310   0.000006   0.000001   0.026040
     2  C   -0.001514  -0.000141  -0.000008  -0.023528
     3  C   -0.001451   0.000035   0.000017   0.001624
     4  C   -0.000339  -0.000002  -0.000000  -0.000681
     5  C    0.000259  -0.000001  -0.000000  -0.000008
     6  C   -0.000007   0.000000   0.000000  -0.000002
     7  C    0.000001  -0.000000  -0.000000   0.000002
     8  C   -0.000001   0.000000  -0.000000  -0.000005
     9  C    0.000044  -0.000000  -0.000000   0.000257
    10  C   -0.071203   0.013091   0.000323  -0.082787
    11  C    0.443510  -0.061944   0.002804   0.008595
    12  C   -0.042625   0.421692  -0.067524  -0.001055
    13  C    0.004597  -0.035364   0.433716   0.004771
    14  N   -0.002384   0.007499  -0.029516  -0.022581
    15  C    0.011659  -0.002862   0.002337   0.448735
    16  H   -0.000028   0.000000   0.000001  -0.002282
    17  H    0.006755  -0.000090  -0.000007   0.001728
    18  H    0.000833   0.000011  -0.000002   0.000271
    19  H    0.000217  -0.000005  -0.000002   0.000941
    20  H    0.000160  -0.000000  -0.000000   0.000000
    21  H   -0.000000   0.000000   0.000000   0.000000
    22  H   -0.000000  -0.000000   0.000000   0.000000
    23  H    0.000000   0.000000   0.000000  -0.000000
    24  H    0.000005  -0.000000  -0.000000   0.000246
    25  H    0.524212  -0.006477  -0.000232   0.000108
    26  H   -0.006477   0.536493  -0.001472   0.000075
    27  H   -0.000232  -0.001472   0.530291  -0.000121
    28  H    0.000108   0.000075  -0.000121   0.491620
 Mulliken charges:
               1
     1  O   -0.468320
     2  C    0.123875
     3  C   -0.288673
     4  C    0.244429
     5  C   -0.254088
     6  C   -0.100992
     7  C   -0.136418
     8  C   -0.100894
     9  C   -0.231202
    10  C    0.081210
    11  C   -0.228753
    12  C   -0.091602
    13  C   -0.030852
    14  N   -0.254725
    15  C   -0.104193
    16  H    0.319126
    17  H    0.105006
    18  H    0.139654
    19  H    0.142775
    20  H    0.109952
    21  H    0.116989
    22  H    0.118721
    23  H    0.117927
    24  H    0.130571
    25  H    0.133591
    26  H    0.129453
    27  H    0.129393
    28  H    0.148037
 Sum of Mulliken charges =  -0.00000
 Mulliken charges with hydrogens summed into heavy atoms:
               1
     1  O   -0.149194
     2  C    0.228881
     3  C   -0.006243
     4  C    0.244429
     5  C   -0.144136
     6  C    0.015998
     7  C   -0.017696
     8  C    0.017033
     9  C   -0.100631
    10  C    0.081210
    11  C   -0.095162
    12  C    0.037851
    13  C    0.098542
    14  N   -0.254725
    15  C    0.043845
 Electronic spatial extent (au):  <R**2>=           4294.4695
 Charge=             -0.0000 electrons
 Dipole moment (field-independent basis, Debye):
    X=              0.3095    Y=              2.1243    Z=              1.6613  Tot=              2.7145
 Quadrupole moment (field-independent basis, Debye-Ang):
   XX=            -89.7660   YY=            -82.8695   ZZ=            -89.4201
   XY=             -7.9407   XZ=             -2.0795   YZ=             -1.0910
 Traceless Quadrupole moment (field-independent basis, Debye-Ang):
   XX=             -2.4141   YY=              4.4824   ZZ=             -2.0683
   XY=             -7.9407   XZ=             -2.0795   YZ=             -1.0910
 Octapole moment (field-independent basis, Debye-Ang**2):
  XXX=             30.4405  YYY=              0.6826  ZZZ=             12.7408  XYY=              6.7529
  XXY=             37.5824  XXZ=             17.6486  XZZ=             -9.5018  YZZ=             -9.7954
  YYZ=              8.5391  XYZ=              6.8358
 Hexadecapole moment (field-independent basis, Debye-Ang**3):
 XXXX=          -4777.5799 YYYY=           -643.0160 ZZZZ=           -215.2148 XXXY=           -205.2089
 XXXZ=             45.5283 YYYX=            -20.6876 YYYZ=             -6.7053 ZZZX=             -1.7999
 ZZZY=            -21.6030 XXYY=           -921.1200 XXZZ=           -966.0774 YYZZ=           -146.8110
 XXYZ=            -11.6577 YYXZ=            -16.3764 ZZXY=              2.5149
 N-N= 8.948925311950D+02 E-N=-3.262480678455D+03  KE= 6.298046961889D+02
 Breneman (CHELPG) radii used.
 Read replacement radii for each type of atom:
 Atom Element Radius
    1     8    1.70
    2     6    1.50
    3     6    1.50
    4     6    1.50
    5     6    1.50
    6     6    1.50
    7     6    1.50
    8     6    1.50
    9     6    1.50
   10     6    1.50
   11     6    1.50
   12     6    1.50
   13     6    1.50
   14     7    1.70
   15     6    1.50
   16     1    1.45
   17     1    1.45
   18     1    1.45
   19     1    1.45
   20     1    1.45
   21     1    1.45
   22     1    1.45
   23     1    1.45
   24     1    1.45
   25     1    1.45
   26     1    1.45
   27     1    1.45
   28     1    1.45
 Generate Potential Derived Charges using the Breneman model, NDens= 1.
 Grid spacing= 0.300 Box extension= 2.800
 NStep X,Y,Z=   57     35     31   Total possible points=       61845
 Number of Points to Fit=   17486

 **********************************************************************

            Electrostatic Properties Using The SCF Density.

 **********************************************************************

       Atomic Center    1 is at  -0.134179 -1.578140  0.847559
       Atomic Center    2 is at  -0.424510 -0.238960  0.534439
       Atomic Center    3 is at   0.414190  0.135340 -0.695691
       Atomic Center    4 is at   1.898270  0.151241 -0.424821
       Atomic Center    5 is at   2.568770  1.359811 -0.207921
       Atomic Center    6 is at   3.934410  1.382311  0.074189
       Atomic Center    7 is at   4.651040  0.189431  0.143819
       Atomic Center    8 is at   3.993201 -1.022179 -0.069971
       Atomic Center    9 is at   2.629131 -1.040929 -0.351051
       Atomic Center   10 is at  -1.903120 -0.021881  0.271709
       Atomic Center   11 is at  -2.508490  1.218309  0.480839
       Atomic Center   12 is at  -3.857450  1.374609  0.179909
       Atomic Center   13 is at  -4.556330  0.275689 -0.321091
       Atomic Center   14 is at  -3.996519 -0.914501 -0.520621
       Atomic Center   15 is at  -2.704459 -1.052701 -0.230351
       Atomic Center   16 is at  -0.562149 -1.801110  1.679309
       Atomic Center   17 is at  -0.118420  0.430980  1.362889
       Atomic Center   18 is at   0.086820  1.125370 -1.046871
       Atomic Center   19 is at   0.169581 -0.585320 -1.492921
       Atomic Center   20 is at   2.014040  2.300911 -0.266581
       Atomic Center   21 is at   4.440470  2.336821  0.236009
       Atomic Center   22 is at   5.721300  0.203042  0.361569
       Atomic Center   23 is at   4.548391 -1.961609 -0.018131
       Atomic Center   24 is at   2.113881 -1.990589 -0.506141
       Atomic Center   25 is at  -1.926620  2.054879  0.879899
       Atomic Center   26 is at  -4.364370  2.328959  0.333529
       Atomic Center   27 is at  -5.619740  0.364628 -0.569171
       Atomic Center   28 is at  -2.262039 -2.040881 -0.393591
   17486 points will be used for fitting atomic charges
 Fitting point charges to electrostatic potential
 Charges from ESP fit, RMS=   0.00390 RRMS=   0.29530:
 ESP charges:
               1
     1  O   -0.590791
     2  C    0.467948
     3  C   -0.202117
     4  C    0.198426
     5  C   -0.184761
     6  C   -0.072788
     7  C   -0.112266
     8  C   -0.068408
     9  C   -0.212144
    10  C   -0.280036
    11  C    0.096474
    12  C   -0.355404
    13  C    0.408084
    14  N   -0.635988
    15  C    0.404429
    16  H    0.343323
    17  H   -0.060972
    18  H    0.042818
    19  H    0.059986
    20  H    0.101938
    21  H    0.084794
    22  H    0.090768
    23  H    0.088705
    24  H    0.137924
    25  H    0.080131
    26  H    0.131677
    27  H    0.014840
    28  H    0.023407
 Sum of ESP charges =   0.00000
 ESP charges with hydrogens summed into heavy atoms:
               1
     1  O   -0.247467
     2  C    0.406976
     3  C   -0.099313
     4  C    0.198426
     5  C   -0.082823
     6  C    0.012006
     7  C   -0.021498
     8  C    0.020297
     9  C   -0.074220
    10  C   -0.280036
    11  C    0.176605
    12  C   -0.223727
    13  C    0.422924
    14  N   -0.635988
    15  C    0.427836
 Charge=   0.00000 Dipole=     0.3308     2.1340     1.5618 Tot=     2.6651
 -----------------------------------------------------------------

              Electrostatic Properties (Atomic Units)

 -----------------------------------------------------------------
    Center     Electric         -------- Electric Field --------
               Potential          X             Y             Z
 -----------------------------------------------------------------
    1 Atom    -22.347289
    2 Atom    -14.697000
    3 Atom    -14.759314
    4 Atom    -14.761690
    5 Atom    -14.770961
    6 Atom    -14.770516
    7 Atom    -14.771963
    8 Atom    -14.772038
    9 Atom    -14.775525
   10 Atom    -14.753026
   11 Atom    -14.745947
   12 Atom    -14.755823
   13 Atom    -14.734605
   14 Atom    -18.398308
   15 Atom    -14.736857
   16 Atom     -0.993382
   17 Atom     -1.110866
   18 Atom     -1.109814
   19 Atom     -1.112502
   20 Atom     -1.106372
   21 Atom     -1.108255
   22 Atom     -1.109441
   23 Atom     -1.110685
   24 Atom     -1.115513
   25 Atom     -1.084080
   26 Atom     -1.089617
   27 Atom     -1.104253
   28 Atom     -1.107694
 -----------------------------------------------------------------
 Unable to Open any file for archive entry.
 1\1\GINC-NOTCH340\SP\RwB97XD\def2TZVP\C13H13N1O1\U6053008\12-Jul-2024\
 0\\#N Guess=Read Geom=Check Integral(Ultrafine) Density Pop=(ChelpG,Re
 adRadii) NMR wB97XD def2TZVP\\12365813_19\\0,1\O,0,-0.13418,-1.57814,0
 .84756\C,0,-0.42451,-0.23896,0.53444\C,0,0.41419,0.13534,-0.69569\C,0,
 1.89827,0.15124,-0.42482\C,0,2.56877,1.35981,-0.20792\C,0,3.93441,1.38
 231,0.07419\C,0,4.65104,0.18943,0.14382\C,0,3.9932,-1.02218,-0.06997\C
 ,0,2.62913,-1.04093,-0.35105\C,0,-1.90312,-0.02188,0.27171\C,0,-2.5084
 9,1.21831,0.48084\C,0,-3.85745,1.37461,0.17991\C,0,-4.55633,0.27569,-0
 .32109\N,0,-3.99652,-0.9145,-0.52062\C,0,-2.70446,-1.0527,-0.23035\H,0
 ,-0.56215,-1.80111,1.67931\H,0,-0.11842,0.43098,1.36289\H,0,0.08682,1.
 12537,-1.04687\H,0,0.16958,-0.58532,-1.49292\H,0,2.01404,2.30091,-0.26
 658\H,0,4.44047,2.33682,0.23601\H,0,5.7213,0.20304,0.36157\H,0,4.54839
 ,-1.96161,-0.01813\H,0,2.11388,-1.99059,-0.50614\H,0,-1.92662,2.05488,
 0.8799\H,0,-4.36437,2.32896,0.33353\H,0,-5.61974,0.36463,-0.56917\H,0,
 -2.26204,-2.04088,-0.39359\\Version=ES64L-G16RevC.01\State=1-A\HF=-633
 .194738\RMSD=2.289e-09\Dipole=0.1217508,0.8357709,0.6536129\Quadrupole
 =-1.7948642,3.332564,-1.5376998,-5.9036823,-1.5460256,-0.8111276\PG=C0
 1 [X(C13H13N1O1)]\\@
 The archive entry for this job was punched.


 When I told the people of Northern Ireland that I was
 an atheist, a woman in the audience stood up and said,
 "Yes, but is it the God of the Catholics or the God
 of the Protestants in whom you don't believe?"
                               -- Quentin Crisp
 Job cpu time:       0 days  1 hours 25 minutes 53.4 seconds.
 Elapsed time:       0 days  0 hours  5 minutes 36.6 seconds.
 File lengths (MBytes):  RWF=    183 Int=      0 D2E=      0 Chk=     27 Scr=      2
 Normal termination of Gaussian 16 at Fri Jul 12 13:32:43 2024.
