 Entering Gaussian System, Link 0=g16
 Input=12365813_9.com
 Output=12365813_9.log
 Initial command:
 /uufs/chpc.utah.edu/sys/installdir/gaussian16/C01/AVX/g16/l1.exe "/scratch/general/vast/u6053008/1287182-notchpeak.peaks/Gau-422464.inp" -scrdir="/scratch/general/vast/u6053008/1287182-notchpeak.peaks/"
 Entering Link 1 = /uufs/chpc.utah.edu/sys/installdir/gaussian16/C01/AVX/g16/l1.exe PID=    422465.
  
 Copyright (c) 1988-2019, Gaussian, Inc.  All Rights Reserved.
  
 This is part of the Gaussian(R) 16 program.  It is based on
 the Gaussian(R) 09 system (copyright 2009, Gaussian, Inc.),
 the Gaussian(R) 03 system (copyright 2003, Gaussian, Inc.),
 the Gaussian(R) 98 system (copyright 1998, Gaussian, Inc.),
 the Gaussian(R) 94 system (copyright 1995, Gaussian, Inc.),
 the Gaussian 92(TM) system (copyright 1992, Gaussian, Inc.),
 the Gaussian 90(TM) system (copyright 1990, Gaussian, Inc.),
 the Gaussian 88(TM) system (copyright 1988, Gaussian, Inc.),
 the Gaussian 86(TM) system (copyright 1986, Carnegie Mellon
 University), and the Gaussian 82(TM) system (copyright 1983,
 Carnegie Mellon University). Gaussian is a federally registered
 trademark of Gaussian, Inc.
  
 This software contains proprietary and confidential information,
 including trade secrets, belonging to Gaussian, Inc.
  
 This software is provided under written license and may be
 used, copied, transmitted, or stored only in accord with that
 written license.
  
 The following legend is applicable only to US Government
 contracts under FAR:
  
                    RESTRICTED RIGHTS LEGEND
  
 Use, reproduction and disclosure by the US Government is
 subject to restrictions as set forth in subparagraphs (a)
 and (c) of the Commercial Computer Software - Restricted
 Rights clause in FAR 52.227-19.
  
 Gaussian, Inc.
 340 Quinnipiac St., Bldg. 40, Wallingford CT 06492
  
  
 ---------------------------------------------------------------
 Warning -- This program may not be used in any manner that
 competes with the business of Gaussian, Inc. or will provide
 assistance to any competitor of Gaussian, Inc.  The licensee
 of this program is prohibited from giving any competitor of
 Gaussian, Inc. access to this program.  By using this program,
 the user acknowledges that Gaussian, Inc. is engaged in the
 business of creating and licensing software in the field of
 computational chemistry and represents and warrants to the
 licensee that it is not a competitor of Gaussian, Inc. and that
 it will not use this program in any manner prohibited above.
 ---------------------------------------------------------------
  

 Cite this work as:
 Gaussian 16, Revision C.01,
 M. J. Frisch, G. W. Trucks, H. B. Schlegel, G. E. Scuseria, 
 M. A. Robb, J. R. Cheeseman, G. Scalmani, V. Barone, 
 G. A. Petersson, H. Nakatsuji, X. Li, M. Caricato, A. V. Marenich, 
 J. Bloino, B. G. Janesko, R. Gomperts, B. Mennucci, H. P. Hratchian, 
 J. V. Ortiz, A. F. Izmaylov, J. L. Sonnenberg, D. Williams-Young, 
 F. Ding, F. Lipparini, F. Egidi, J. Goings, B. Peng, A. Petrone, 
 T. Henderson, D. Ranasinghe, V. G. Zakrzewski, J. Gao, N. Rega, 
 G. Zheng, W. Liang, M. Hada, M. Ehara, K. Toyota, R. Fukuda, 
 J. Hasegawa, M. Ishida, T. Nakajima, Y. Honda, O. Kitao, H. Nakai, 
 T. Vreven, K. Throssell, J. A. Montgomery, Jr., J. E. Peralta, 
 F. Ogliaro, M. J. Bearpark, J. J. Heyd, E. N. Brothers, K. N. Kudin, 
 V. N. Staroverov, T. A. Keith, R. Kobayashi, J. Normand, 
 K. Raghavachari, A. P. Rendell, J. C. Burant, S. S. Iyengar, 
 J. Tomasi, M. Cossi, J. M. Millam, M. Klene, C. Adamo, R. Cammi, 
 J. W. Ochterski, R. L. Martin, K. Morokuma, O. Farkas, 
 J. B. Foresman, and D. J. Fox, Gaussian, Inc., Wallingford CT, 2019.
 
 ******************************************
 Gaussian 16:  ES64L-G16RevC.01  3-Jul-2019
                12-Jul-2024 
 ******************************************
 %NProcShared=16
 Will use up to   16 processors via shared memory.
 %Mem=32GB
 %chk=12365813_9.chk
 ------------------------------------------------------
 #N OPT FREQ=NORAMAN Integral(Ultrafine) wB97XD def2SVP
 ------------------------------------------------------
 1/18=20,19=15,26=4,38=1/1,3;
 2/9=110,12=2,17=6,18=5,40=1/2;
 3/5=43,7=101,11=2,25=1,30=1,71=1,74=-58,75=-5/1,2,3;
 4//1;
 5/5=2,38=5/2;
 6/7=2,8=2,9=2,10=2,28=1/1;
 7//1,2,3,16;
 1/18=20,19=15,26=4/3(2);
 2/9=110/2;
 99//99;
 2/9=110/2;
 3/5=43,7=101,11=2,25=1,30=1,71=1,74=-58,75=-5/1,2,3;
 4/5=5,16=3,69=1/1;
 5/5=2,38=5/2;
 7//1,2,3,16;
 1/18=20,19=15,26=4/3(-5);
 2/9=110/2;
 6/7=2,8=2,9=2,10=2,19=2,28=1/1;
 99/9=1/99;
 ----------
 12365813_9
 ----------
 Symbolic Z-matrix:
 Charge =  0 Multiplicity = 1
 O                    -1.66697   2.70194  -0.16255 
 C                    -0.7301    1.67816  -0.3887 
 C                     0.41701   1.76056   0.64427 
 C                     1.48337   0.71549   0.44612 
 C                     1.45115  -0.48736   1.15958 
 C                     2.39368  -1.48505   0.92025 
 C                     3.38554  -1.29472  -0.04062 
 C                     3.43063  -0.09938  -0.75698 
 C                     2.48606   0.89607  -0.51333 
 C                    -1.4526    0.35407  -0.31394 
 C                    -2.55796   0.17901   0.51825 
 C                    -3.14988  -1.07843   0.59489 
 C                    -2.61288  -2.1152   -0.16709 
 N                    -1.56432  -1.96044  -0.97236 
 C                    -1.00638  -0.75564  -1.03986 
 H                    -1.20033   3.54142  -0.1321 
 H                    -0.28413   1.76829  -1.39935 
 H                    -0.02982   1.67837   1.64733 
 H                     0.86628   2.76628   0.5684 
 H                     0.666    -0.64881   1.90278 
 H                     2.34897  -2.4195    1.48356 
 H                     4.12309  -2.0772   -0.23124 
 H                     4.2063    0.05952  -1.50944 
 H                     2.5282    1.8316   -1.07902 
 H                    -2.94716   1.02812   1.0832 
 H                    -4.01858  -1.25455   1.23214 
 H                    -3.05593  -3.11659  -0.12808 
 H                    -0.14259  -0.65488  -1.70828 
 

 GradGradGradGradGradGradGradGradGradGradGradGradGradGradGradGradGradGrad
 Berny optimization.
 Initialization pass.
                           ----------------------------
                           !    Initial Parameters    !
                           ! (Angstroms and Degrees)  !
 --------------------------                            --------------------------
 ! Name  Definition              Value          Derivative Info.                !
 --------------------------------------------------------------------------------
 ! R1    R(1,2)                  1.4061         estimate D2E/DX2                !
 ! R2    R(1,16)                 0.9609         estimate D2E/DX2                !
 ! R3    R(2,3)                  1.5459         estimate D2E/DX2                !
 ! R4    R(2,10)                 1.5102         estimate D2E/DX2                !
 ! R5    R(2,17)                 1.1083         estimate D2E/DX2                !
 ! R6    R(3,4)                  1.5062         estimate D2E/DX2                !
 ! R7    R(3,18)                 1.1012         estimate D2E/DX2                !
 ! R8    R(3,19)                 1.1041         estimate D2E/DX2                !
 ! R9    R(4,5)                  1.3989         estimate D2E/DX2                !
 ! R10   R(4,9)                  1.3995         estimate D2E/DX2                !
 ! R11   R(5,6)                  1.3932         estimate D2E/DX2                !
 ! R12   R(5,20)                 1.0931         estimate D2E/DX2                !
 ! R13   R(6,7)                  1.394          estimate D2E/DX2                !
 ! R14   R(6,21)                 1.092          estimate D2E/DX2                !
 ! R15   R(7,8)                  1.3943         estimate D2E/DX2                !
 ! R16   R(7,22)                 1.0921         estimate D2E/DX2                !
 ! R17   R(8,9)                  1.3937         estimate D2E/DX2                !
 ! R18   R(8,23)                 1.0923         estimate D2E/DX2                !
 ! R19   R(9,24)                 1.0941         estimate D2E/DX2                !
 ! R20   R(10,11)                1.3946         estimate D2E/DX2                !
 ! R21   R(10,15)                1.3991         estimate D2E/DX2                !
 ! R22   R(11,12)                1.3919         estimate D2E/DX2                !
 ! R23   R(11,25)                1.0916         estimate D2E/DX2                !
 ! R24   R(12,13)                1.3942         estimate D2E/DX2                !
 ! R25   R(12,26)                1.0917         estimate D2E/DX2                !
 ! R26   R(13,14)                1.3311         estimate D2E/DX2                !
 ! R27   R(13,27)                1.0957         estimate D2E/DX2                !
 ! R28   R(14,15)                1.3294         estimate D2E/DX2                !
 ! R29   R(15,28)                1.0968         estimate D2E/DX2                !
 ! A1    A(2,1,16)             108.5191         estimate D2E/DX2                !
 ! A2    A(1,2,3)              110.3742         estimate D2E/DX2                !
 ! A3    A(1,2,10)             108.1587         estimate D2E/DX2                !
 ! A4    A(1,2,17)             110.8277         estimate D2E/DX2                !
 ! A5    A(3,2,10)             111.6327         estimate D2E/DX2                !
 ! A6    A(3,2,17)             107.8424         estimate D2E/DX2                !
 ! A7    A(10,2,17)            107.9949         estimate D2E/DX2                !
 ! A8    A(2,3,4)              113.6078         estimate D2E/DX2                !
 ! A9    A(2,3,18)             107.6739         estimate D2E/DX2                !
 ! A10   A(2,3,19)             107.733          estimate D2E/DX2                !
 ! A11   A(4,3,18)             110.8143         estimate D2E/DX2                !
 ! A12   A(4,3,19)             109.5663         estimate D2E/DX2                !
 ! A13   A(18,3,19)            107.1994         estimate D2E/DX2                !
 ! A14   A(3,4,5)              120.8782         estimate D2E/DX2                !
 ! A15   A(3,4,9)              120.5254         estimate D2E/DX2                !
 ! A16   A(5,4,9)              118.4967         estimate D2E/DX2                !
 ! A17   A(4,5,6)              120.8343         estimate D2E/DX2                !
 ! A18   A(4,5,20)             119.3605         estimate D2E/DX2                !
 ! A19   A(6,5,20)             119.7987         estimate D2E/DX2                !
 ! A20   A(5,6,7)              120.1314         estimate D2E/DX2                !
 ! A21   A(5,6,21)             119.7666         estimate D2E/DX2                !
 ! A22   A(7,6,21)             120.1008         estimate D2E/DX2                !
 ! A23   A(6,7,8)              119.6171         estimate D2E/DX2                !
 ! A24   A(6,7,22)             120.2003         estimate D2E/DX2                !
 ! A25   A(8,7,22)             120.1826         estimate D2E/DX2                !
 ! A26   A(7,8,9)              120.0386         estimate D2E/DX2                !
 ! A27   A(7,8,23)             120.1069         estimate D2E/DX2                !
 ! A28   A(9,8,23)             119.8545         estimate D2E/DX2                !
 ! A29   A(4,9,8)              120.8815         estimate D2E/DX2                !
 ! A30   A(4,9,24)             119.499          estimate D2E/DX2                !
 ! A31   A(8,9,24)             119.6195         estimate D2E/DX2                !
 ! A32   A(2,10,11)            121.2493         estimate D2E/DX2                !
 ! A33   A(2,10,15)            121.1399         estimate D2E/DX2                !
 ! A34   A(11,10,15)           117.5689         estimate D2E/DX2                !
 ! A35   A(10,11,12)           118.9015         estimate D2E/DX2                !
 ! A36   A(10,11,25)           119.5881         estimate D2E/DX2                !
 ! A37   A(12,11,25)           121.5058         estimate D2E/DX2                !
 ! A38   A(11,12,13)           118.5479         estimate D2E/DX2                !
 ! A39   A(11,12,26)           121.0836         estimate D2E/DX2                !
 ! A40   A(13,12,26)           120.3679         estimate D2E/DX2                !
 ! A41   A(12,13,14)           123.2003         estimate D2E/DX2                !
 ! A42   A(12,13,27)           120.2918         estimate D2E/DX2                !
 ! A43   A(14,13,27)           116.5069         estimate D2E/DX2                !
 ! A44   A(13,14,15)           117.8186         estimate D2E/DX2                !
 ! A45   A(10,15,14)           123.959          estimate D2E/DX2                !
 ! A46   A(10,15,28)           119.6358         estimate D2E/DX2                !
 ! A47   A(14,15,28)           116.4042         estimate D2E/DX2                !
 ! D1    D(16,1,2,3)            52.6995         estimate D2E/DX2                !
 ! D2    D(16,1,2,10)          175.0895         estimate D2E/DX2                !
 ! D3    D(16,1,2,17)          -66.7056         estimate D2E/DX2                !
 ! D4    D(1,2,3,4)           -178.5052         estimate D2E/DX2                !
 ! D5    D(1,2,3,18)            58.3834         estimate D2E/DX2                !
 ! D6    D(1,2,3,19)           -56.9396         estimate D2E/DX2                !
 ! D7    D(10,2,3,4)            61.1684         estimate D2E/DX2                !
 ! D8    D(10,2,3,18)          -61.943          estimate D2E/DX2                !
 ! D9    D(10,2,3,19)         -177.266          estimate D2E/DX2                !
 ! D10   D(17,2,3,4)           -57.3074         estimate D2E/DX2                !
 ! D11   D(17,2,3,18)          179.5812         estimate D2E/DX2                !
 ! D12   D(17,2,3,19)           64.2582         estimate D2E/DX2                !
 ! D13   D(1,2,10,11)          -31.267          estimate D2E/DX2                !
 ! D14   D(1,2,10,15)          151.1445         estimate D2E/DX2                !
 ! D15   D(3,2,10,11)           90.3498         estimate D2E/DX2                !
 ! D16   D(3,2,10,15)          -87.2387         estimate D2E/DX2                !
 ! D17   D(17,2,10,11)        -151.2655         estimate D2E/DX2                !
 ! D18   D(17,2,10,15)          31.146          estimate D2E/DX2                !
 ! D19   D(2,3,4,5)            -95.2784         estimate D2E/DX2                !
 ! D20   D(2,3,4,9)             81.0362         estimate D2E/DX2                !
 ! D21   D(18,3,4,5)            26.0946         estimate D2E/DX2                !
 ! D22   D(18,3,4,9)          -157.5908         estimate D2E/DX2                !
 ! D23   D(19,3,4,5)           144.1836         estimate D2E/DX2                !
 ! D24   D(19,3,4,9)           -39.5018         estimate D2E/DX2                !
 ! D25   D(3,4,5,6)            176.2813         estimate D2E/DX2                !
 ! D26   D(3,4,5,20)            -2.793          estimate D2E/DX2                !
 ! D27   D(9,4,5,6)             -0.1065         estimate D2E/DX2                !
 ! D28   D(9,4,5,20)          -179.1809         estimate D2E/DX2                !
 ! D29   D(3,4,9,8)           -176.251          estimate D2E/DX2                !
 ! D30   D(3,4,9,24)             3.7585         estimate D2E/DX2                !
 ! D31   D(5,4,9,8)              0.15           estimate D2E/DX2                !
 ! D32   D(5,4,9,24)          -179.8404         estimate D2E/DX2                !
 ! D33   D(4,5,6,7)             -0.0617         estimate D2E/DX2                !
 ! D34   D(4,5,6,21)          -179.6705         estimate D2E/DX2                !
 ! D35   D(20,5,6,7)           179.0086         estimate D2E/DX2                !
 ! D36   D(20,5,6,21)           -0.6002         estimate D2E/DX2                !
 ! D37   D(5,6,7,8)              0.1882         estimate D2E/DX2                !
 ! D38   D(5,6,7,22)          -179.8163         estimate D2E/DX2                !
 ! D39   D(21,6,7,8)           179.7957         estimate D2E/DX2                !
 ! D40   D(21,6,7,22)           -0.2088         estimate D2E/DX2                !
 ! D41   D(6,7,8,9)             -0.1451         estimate D2E/DX2                !
 ! D42   D(6,7,8,23)           179.8026         estimate D2E/DX2                !
 ! D43   D(22,7,8,9)           179.8594         estimate D2E/DX2                !
 ! D44   D(22,7,8,23)           -0.1929         estimate D2E/DX2                !
 ! D45   D(7,8,9,4)             -0.0252         estimate D2E/DX2                !
 ! D46   D(7,8,9,24)           179.9652         estimate D2E/DX2                !
 ! D47   D(23,8,9,4)          -179.9731         estimate D2E/DX2                !
 ! D48   D(23,8,9,24)            0.0174         estimate D2E/DX2                !
 ! D49   D(2,10,11,12)        -177.1232         estimate D2E/DX2                !
 ! D50   D(2,10,11,25)           3.647          estimate D2E/DX2                !
 ! D51   D(15,10,11,12)          0.5485         estimate D2E/DX2                !
 ! D52   D(15,10,11,25)       -178.6813         estimate D2E/DX2                !
 ! D53   D(2,10,15,14)         177.0357         estimate D2E/DX2                !
 ! D54   D(2,10,15,28)          -2.6064         estimate D2E/DX2                !
 ! D55   D(11,10,15,14)         -0.6387         estimate D2E/DX2                !
 ! D56   D(11,10,15,28)        179.7193         estimate D2E/DX2                !
 ! D57   D(10,11,12,13)         -0.0698         estimate D2E/DX2                !
 ! D58   D(10,11,12,26)       -179.7892         estimate D2E/DX2                !
 ! D59   D(25,11,12,13)        179.1447         estimate D2E/DX2                !
 ! D60   D(25,11,12,26)         -0.5746         estimate D2E/DX2                !
 ! D61   D(11,12,13,14)         -0.4038         estimate D2E/DX2                !
 ! D62   D(11,12,13,27)        179.9639         estimate D2E/DX2                !
 ! D63   D(26,12,13,14)        179.3176         estimate D2E/DX2                !
 ! D64   D(26,12,13,27)         -0.3147         estimate D2E/DX2                !
 ! D65   D(12,13,14,15)          0.345          estimate D2E/DX2                !
 ! D66   D(27,13,14,15)        179.9903         estimate D2E/DX2                !
 ! D67   D(13,14,15,10)          0.1918         estimate D2E/DX2                !
 ! D68   D(13,14,15,28)        179.8444         estimate D2E/DX2                !
 --------------------------------------------------------------------------------
 Trust Radius=3.00D-01 FncErr=1.00D-07 GrdErr=1.00D-06 EigMax=2.50D+02 EigMin=1.00D-04
 Number of steps in this run=    154 maximum allowed number of steps=    168.
 GradGradGradGradGradGradGradGradGradGradGradGradGradGradGradGradGradGrad

                          Input orientation:                          
 ---------------------------------------------------------------------
 Center     Atomic      Atomic             Coordinates (Angstroms)
 Number     Number       Type             X           Y           Z
 ---------------------------------------------------------------------
      1          8           0       -1.666970    2.701940   -0.162550
      2          6           0       -0.730100    1.678160   -0.388700
      3          6           0        0.417010    1.760560    0.644270
      4          6           0        1.483370    0.715490    0.446120
      5          6           0        1.451150   -0.487360    1.159580
      6          6           0        2.393680   -1.485050    0.920250
      7          6           0        3.385540   -1.294720   -0.040620
      8          6           0        3.430630   -0.099380   -0.756980
      9          6           0        2.486060    0.896070   -0.513330
     10          6           0       -1.452600    0.354070   -0.313940
     11          6           0       -2.557960    0.179010    0.518250
     12          6           0       -3.149880   -1.078430    0.594890
     13          6           0       -2.612880   -2.115200   -0.167090
     14          7           0       -1.564320   -1.960440   -0.972360
     15          6           0       -1.006380   -0.755640   -1.039860
     16          1           0       -1.200330    3.541420   -0.132100
     17          1           0       -0.284130    1.768290   -1.399350
     18          1           0       -0.029820    1.678370    1.647330
     19          1           0        0.866280    2.766280    0.568400
     20          1           0        0.666000   -0.648810    1.902780
     21          1           0        2.348970   -2.419500    1.483560
     22          1           0        4.123090   -2.077200   -0.231240
     23          1           0        4.206300    0.059520   -1.509440
     24          1           0        2.528200    1.831600   -1.079020
     25          1           0       -2.947160    1.028120    1.083200
     26          1           0       -4.018580   -1.254550    1.232140
     27          1           0       -3.055930   -3.116590   -0.128080
     28          1           0       -0.142590   -0.654880   -1.708280
 ---------------------------------------------------------------------
                    Distance matrix (angstroms):
                    1          2          3          4          5
     1  O    0.000000
     2  C    1.406056   0.000000
     3  C    2.424897   1.545858   0.000000
     4  C    3.773739   2.554037   1.506173   0.000000
     5  C    4.652132   3.441584   2.527476   1.398897   0.000000
     6  C    5.932303   4.634355   3.810167   2.428135   1.393207
     7  C    6.443292   5.088975   4.314624   2.810002   2.415404
     8  C    5.846902   4.539488   3.808515   2.429668   2.782458
     9  C    4.542232   3.312232   2.523559   1.399479   2.404900
    10  C    2.362492   1.510235   2.528205   3.054216   3.363187
    11  C    2.760893   2.532011   3.371591   4.077421   4.114403
    12  C    4.130852   3.797575   4.559058   4.970643   4.673084
    13  C    4.909135   4.240702   4.985986   5.016781   4.574523
    14  N    4.733299   3.778358   4.514975   4.296638   3.975952
    15  C    3.627797   2.534506   3.345683   3.251341   3.308922
    16  H    0.960941   1.938736   2.527845   3.939856   4.992980
    17  H    2.076926   1.108344   2.160565   2.763730   3.827176
    18  H    2.646436   2.153093   1.101155   2.158654   2.668625
    19  H    2.637382   2.156032   1.104116   2.145109   3.358235
    20  H    4.575572   3.551727   2.729635   2.156680   1.093102
    21  H    6.713166   5.456817   4.680788   3.413753   2.155043
    22  H    7.507975   6.138483   5.406473   3.902058   3.406059
    23  H    6.579650   5.314518   4.678752   3.415971   3.874738
    24  H    4.381422   3.334157   2.726151   2.159496   3.398373
    25  H    2.447949   2.739415   3.470845   4.487004   4.652703
    26  H    4.809266   4.694892   5.395455   5.896638   5.523748
    27  H    5.982114   5.335451   6.036922   5.968232   5.374448
    28  H    3.997656   2.744000   3.417893   3.027061   3.285223
                    6          7          8          9         10
     6  C    0.000000
     7  C    1.394017   0.000000
     8  C    2.410072   1.394289   0.000000
     9  C    2.780902   2.414970   1.393735   0.000000
    10  C    4.438407   5.118673   4.924209   3.980774   0.000000
    11  C    5.239221   6.148936   6.129186   5.198122   1.394635
    12  C    5.567967   6.569807   6.788903   6.073765   2.399747
    13  C    5.161883   6.055594   6.398087   5.931848   2.732235
    14  N    4.412905   5.080594   5.334741   4.977543   2.408932
    15  C    3.991801   4.536303   4.494191   3.899041   1.399117
    16  H    6.268154   6.665345   5.923824   4.553316   3.202484
    17  H    4.809931   4.969372   4.207169   3.036404   2.131538
    18  H    4.050830   4.832507   4.573381   3.407359   2.761277
    19  H    4.531066   4.817603   4.067497   2.700280   3.460417
    20  H    2.156279   3.404394   3.875484   3.396595   3.226156
    21  H    1.092023   2.159336   3.401906   3.872902   5.037423
    22  H    2.160424   1.092058   2.160480   3.405844   6.083275
    23  H    3.402158   2.159872   1.092295   2.156682   5.791298
    24  H    3.874964   3.403995   2.155638   1.094074   4.314535
    25  H    5.904841   6.838249   6.733032   5.664470   2.154078
    26  H    6.423977   7.512824   7.796265   7.069807   3.400335
    27  H    5.784390   6.694729   7.181541   6.852993   3.827622
    28  H    3.745800   3.954515   3.739178   3.277675   2.162936
                   11         12         13         14         15
    11  C    0.000000
    12  C    1.391905   0.000000
    13  C    2.395017   1.394229   0.000000
    14  N    2.790427   2.397543   1.331123   0.000000
    15  C    2.389284   2.714994   2.278371   1.329435   0.000000
    16  H    3.684008   5.066781   5.830426   5.577543   4.396177
    17  H    3.372433   4.504812   4.692871   3.965430   2.649736
    18  H    3.148713   4.294456   4.935128   4.739030   3.754872
    19  H    4.292074   5.559860   6.039400   5.533863   4.300846
    20  H    3.605014   4.056611   4.145566   3.867962   3.386355
    21  H    5.635782   5.729359   5.238053   4.642857   4.516022
    22  H    7.091449   7.387566   6.736383   5.736682   5.358344
    23  H    7.062649   7.735407   7.282343   6.137487   5.296888
    24  H    5.581339   6.596275   6.545193   5.580292   4.380479
    25  H    1.091619   2.171887   3.399328   3.881889   3.384643
    26  H    2.167520   1.091671   2.162072   3.373647   3.805817
    27  H    3.395099   2.164627   1.095718   2.067460   3.256698
    28  H    3.389221   3.811532   3.257320   2.065764   1.096846
                   16         17         18         19         20
    16  H    0.000000
    17  H    2.364177   0.000000
    18  H    2.829739   3.058597   0.000000
    19  H    2.315690   2.488266   1.775002   0.000000
    20  H    5.018162   4.201093   2.442373   3.671992   0.000000
    21  H    7.123233   5.725554   4.741097   5.470667   2.478604
    22  H    7.740641   5.964550   5.905929   5.891140   4.306485
    23  H    6.576651   4.805827   5.525449   4.774903   4.967766
    24  H    4.209760   2.831222   3.741648   2.519841   4.302482
    25  H    3.293182   3.715190   3.041700   4.222386   4.066784
    26  H    5.727566   5.477994   4.968361   6.361563   4.770951
    27  H    6.911756   5.758564   5.941470   7.104715   4.905822
    28  H    4.605659   2.446880   4.088629   4.231480   3.700488
                   21         22         23         24         25
    21  H    0.000000
    22  H    2.491026   0.000000
    23  H    4.307350   2.491243   0.000000
    24  H    4.966970   4.305940   2.478215   0.000000
    25  H    6.332090   7.833211   7.670199   5.941409   0.000000
    26  H    6.478118   8.312943   8.768791   7.597770   2.526006
    27  H    5.682980   7.254606   8.045857   7.521395   4.319450
    28  H    4.416967   4.732934   4.411661   3.702927   4.300054
                   26         27         28
    26  H    0.000000
    27  H    2.498817   0.000000
    28  H    4.901936   4.128510   0.000000
 Stoichiometry    C13H13NO
 Framework group  C1[X(C13H13NO)]
 Deg. of freedom    78
 Full point group                 C1      NOp   1
 Largest Abelian subgroup         C1      NOp   1
 Largest concise Abelian subgroup C1      NOp   1
                         Standard orientation:                         
 ---------------------------------------------------------------------
 Center     Atomic      Atomic             Coordinates (Angstroms)
 Number     Number       Type             X           Y           Z
 ---------------------------------------------------------------------
      1          8           0       -1.666972    2.701940   -0.162550
      2          6           0       -0.730102    1.678160   -0.388700
      3          6           0        0.417008    1.760560    0.644270
      4          6           0        1.483368    0.715491    0.446120
      5          6           0        1.451149   -0.487359    1.159580
      6          6           0        2.393679   -1.485049    0.920250
      7          6           0        3.385539   -1.294719   -0.040620
      8          6           0        3.430629   -0.099379   -0.756980
      9          6           0        2.486058    0.896071   -0.513330
     10          6           0       -1.452601    0.354070   -0.313940
     11          6           0       -2.557961    0.179009    0.518250
     12          6           0       -3.149881   -1.078431    0.594890
     13          6           0       -2.612881   -2.115201   -0.167090
     14          7           0       -1.564321   -1.960440   -0.972360
     15          6           0       -1.006381   -0.755640   -1.039860
     16          1           0       -1.200333    3.541420   -0.132100
     17          1           0       -0.284132    1.768290   -1.399350
     18          1           0       -0.029822    1.678370    1.647330
     19          1           0        0.866278    2.766280    0.568400
     20          1           0        0.665999   -0.648810    1.902780
     21          1           0        2.348970   -2.419499    1.483560
     22          1           0        4.123089   -2.077198   -0.231240
     23          1           0        4.206299    0.059522   -1.509440
     24          1           0        2.528198    1.831601   -1.079020
     25          1           0       -2.947162    1.028119    1.083200
     26          1           0       -4.018581   -1.254551    1.232140
     27          1           0       -3.055930   -3.116591   -0.128080
     28          1           0       -0.142591   -0.654880   -1.708280
 ---------------------------------------------------------------------
 Rotational constants (GHZ):           0.9400047           0.4754796           0.3613978
 Standard basis: def2SVP (5D, 7F)
 There are   290 symmetry adapted cartesian basis functions of A   symmetry.
 There are   275 symmetry adapted basis functions of A   symmetry.
   275 basis functions,   466 primitive gaussians,   290 cartesian basis functions
    53 alpha electrons       53 beta electrons
       nuclear repulsion energy       934.5072977207 Hartrees.
 NAtoms=   28 NActive=   28 NUniq=   28 SFac= 1.00D+00 NAtFMM=   60 NAOKFM=F Big=F
 Integral buffers will be    131072 words long.
 Raffenetti 2 integral format.
 Two-electron integral symmetry is turned on.
 Nuclear repulsion after empirical dispersion term =      934.4872775206 Hartrees.
 One-electron integrals computed using PRISM.
   1 Symmetry operations used in ECPInt.
 ECPInt:  NShTT=    8385 NPrTT=   30369 LenC2=    8069 LenP2D=   21618.
 LDataN:  DoStor=T MaxTD1= 4 Len=   56
 NBasis=   275 RedAO= T EigKep=  2.75D-04  NBF=   275
 NBsUse=   275 1.00D-06 EigRej= -1.00D+00 NBFU=   275
 ExpMin= 1.22D-01 ExpMax= 2.27D+03 ExpMxC= 3.41D+02 IAcc=3 IRadAn=         5 AccDes= 0.00D+00
 Harris functional with IExCor= 4639 and IRadAn=       5 diagonalized for initial guess.
 HarFok:  IExCor= 4639 AccDes= 0.00D+00 IRadAn=         5 IDoV= 1 UseB2=F ITyADJ=14
 ICtDFT=  3500011 ScaDFX=  1.000000  1.000000  1.000000  1.000000
 FoFCou: FMM=F IPFlag=           0 FMFlag=      100000 FMFlg1=           0
         NFxFlg=           0 DoJE=T BraDBF=F KetDBF=T FulRan=T
         wScrn=  0.000000 ICntrl=       500 IOpCl=  0 I1Cent=   200000004 NGrid=           0
         NMat0=    1 NMatS0=      1 NMatT0=    0 NMatD0=    1 NMtDS0=    0 NMtDT0=    0
 Petite list used in FoFCou.
 Requested convergence on RMS density matrix=1.00D-08 within 128 cycles.
 Requested convergence on MAX density matrix=1.00D-06.
 Requested convergence on             energy=1.00D-06.
 No special actions if energy rises.
 Integral accuracy reduced to 1.0D-05 until final iterations.
 Initial convergence to 1.0D-05 achieved.  Increase integral accuracy.
 SCF Done:  E(RwB97XD) =  -632.519240301     A.U. after   14 cycles
            NFock= 14  Conv=0.99D-08     -V/T= 2.0108

 **********************************************************************

            Population analysis using the SCF Density.

 **********************************************************************

 Orbital symmetries:
       Occupied  (A) (A) (A) (A) (A) (A) (A) (A) (A) (A) (A) (A)
                 (A) (A) (A) (A) (A) (A) (A) (A) (A) (A) (A) (A)
                 (A) (A) (A) (A) (A) (A) (A) (A) (A) (A) (A) (A)
                 (A) (A) (A) (A) (A) (A) (A) (A) (A) (A) (A) (A)
                 (A) (A) (A) (A) (A)
       Virtual   (A) (A) (A) (A) (A) (A) (A) (A) (A) (A) (A) (A)
                 (A) (A) (A) (A) (A) (A) (A) (A) (A) (A) (A) (A)
                 (A) (A) (A) (A) (A) (A) (A) (A) (A) (A) (A) (A)
                 (A) (A) (A) (A) (A) (A) (A) (A) (A) (A) (A) (A)
                 (A) (A) (A) (A) (A) (A) (A) (A) (A) (A) (A) (A)
                 (A) (A) (A) (A) (A) (A) (A) (A) (A) (A) (A) (A)
                 (A) (A) (A) (A) (A) (A) (A) (A) (A) (A) (A) (A)
                 (A) (A) (A) (A) (A) (A) (A) (A) (A) (A) (A) (A)
                 (A) (A) (A) (A) (A) (A) (A) (A) (A) (A) (A) (A)
                 (A) (A) (A) (A) (A) (A) (A) (A) (A) (A) (A) (A)
                 (A) (A) (A) (A) (A) (A) (A) (A) (A) (A) (A) (A)
                 (A) (A) (A) (A) (A) (A) (A) (A) (A) (A) (A) (A)
                 (A) (A) (A) (A) (A) (A) (A) (A) (A) (A) (A) (A)
                 (A) (A) (A) (A) (A) (A) (A) (A) (A) (A) (A) (A)
                 (A) (A) (A) (A) (A) (A) (A) (A) (A) (A) (A) (A)
                 (A) (A) (A) (A) (A) (A) (A) (A) (A) (A) (A) (A)
                 (A) (A) (A) (A) (A) (A) (A) (A) (A) (A) (A) (A)
                 (A) (A) (A) (A) (A) (A) (A) (A) (A) (A) (A) (A)
                 (A) (A) (A) (A) (A) (A)
 The electronic state is 1-A.
 Alpha  occ. eigenvalues --  -19.26543 -14.43307 -10.36276 -10.32917 -10.32886
 Alpha  occ. eigenvalues --  -10.31361 -10.31289 -10.31141 -10.30929 -10.30618
 Alpha  occ. eigenvalues --  -10.30617 -10.30571 -10.30437 -10.30374 -10.30337
 Alpha  occ. eigenvalues --   -1.12908  -1.03404  -0.95895  -0.90886  -0.88149
 Alpha  occ. eigenvalues --   -0.85540  -0.84039  -0.80653  -0.74852  -0.71864
 Alpha  occ. eigenvalues --   -0.69969  -0.68977  -0.67189  -0.61743  -0.60961
 Alpha  occ. eigenvalues --   -0.60408  -0.56658  -0.55874  -0.54818  -0.53977
 Alpha  occ. eigenvalues --   -0.52846  -0.51795  -0.50803  -0.49670  -0.48324
 Alpha  occ. eigenvalues --   -0.47958  -0.46787  -0.46024  -0.45499  -0.43010
 Alpha  occ. eigenvalues --   -0.42464  -0.41679  -0.37540  -0.36204  -0.33744
 Alpha  occ. eigenvalues --   -0.33029  -0.32730  -0.32428
 Alpha virt. eigenvalues --    0.04514   0.05348   0.05828   0.05967   0.12413
 Alpha virt. eigenvalues --    0.14142   0.15718   0.16301   0.17613   0.18379
 Alpha virt. eigenvalues --    0.20111   0.20368   0.21219   0.21629   0.22402
 Alpha virt. eigenvalues --    0.23302   0.23563   0.24288   0.25354   0.27783
 Alpha virt. eigenvalues --    0.30707   0.31621   0.32857   0.33128   0.36460
 Alpha virt. eigenvalues --    0.37229   0.37570   0.37973   0.39382   0.40166
 Alpha virt. eigenvalues --    0.41293   0.44200   0.45475   0.46238   0.46985
 Alpha virt. eigenvalues --    0.48632   0.50685   0.51132   0.51859   0.52525
 Alpha virt. eigenvalues --    0.53915   0.54823   0.56147   0.56300   0.57246
 Alpha virt. eigenvalues --    0.58065   0.59355   0.59824   0.60126   0.61579
 Alpha virt. eigenvalues --    0.62227   0.63575   0.64830   0.66559   0.66839
 Alpha virt. eigenvalues --    0.67987   0.70230   0.70487   0.71735   0.72077
 Alpha virt. eigenvalues --    0.72426   0.73196   0.73482   0.74562   0.75231
 Alpha virt. eigenvalues --    0.75374   0.76234   0.76438   0.76847   0.77834
 Alpha virt. eigenvalues --    0.79177   0.79916   0.81069   0.81625   0.81837
 Alpha virt. eigenvalues --    0.83002   0.83325   0.83505   0.84368   0.85172
 Alpha virt. eigenvalues --    0.87564   0.88386   0.89341   0.91966   0.92305
 Alpha virt. eigenvalues --    0.96191   0.98657   1.00135   1.02425   1.04909
 Alpha virt. eigenvalues --    1.05770   1.08443   1.09560   1.13830   1.14057
 Alpha virt. eigenvalues --    1.16370   1.18143   1.20014   1.24007   1.25251
 Alpha virt. eigenvalues --    1.26633   1.29616   1.30900   1.32853   1.33529
 Alpha virt. eigenvalues --    1.33913   1.34985   1.36310   1.36793   1.38083
 Alpha virt. eigenvalues --    1.39831   1.40819   1.42630   1.43271   1.44509
 Alpha virt. eigenvalues --    1.46738   1.51311   1.51757   1.55946   1.60085
 Alpha virt. eigenvalues --    1.62098   1.64388   1.69984   1.72498   1.75826
 Alpha virt. eigenvalues --    1.77121   1.77344   1.79379   1.79856   1.79901
 Alpha virt. eigenvalues --    1.81769   1.82670   1.82969   1.83180   1.84010
 Alpha virt. eigenvalues --    1.84607   1.85670   1.86289   1.87407   1.88397
 Alpha virt. eigenvalues --    1.88950   1.89767   1.91831   1.92412   1.93144
 Alpha virt. eigenvalues --    1.94101   1.95403   1.98067   1.99738   2.01357
 Alpha virt. eigenvalues --    2.03046   2.03658   2.04391   2.05107   2.06262
 Alpha virt. eigenvalues --    2.07059   2.08202   2.09860   2.10315   2.12363
 Alpha virt. eigenvalues --    2.16424   2.18315   2.19221   2.20644   2.23461
 Alpha virt. eigenvalues --    2.24108   2.24818   2.25341   2.26589   2.30044
 Alpha virt. eigenvalues --    2.30553   2.33758   2.35490   2.38025   2.38766
 Alpha virt. eigenvalues --    2.39183   2.39661   2.42530   2.43054   2.44877
 Alpha virt. eigenvalues --    2.47331   2.49638   2.50461   2.52806   2.55758
 Alpha virt. eigenvalues --    2.58323   2.61090   2.63610   2.66008   2.69092
 Alpha virt. eigenvalues --    2.70660   2.71607   2.72630   2.72989   2.75565
 Alpha virt. eigenvalues --    2.80501   2.80821   2.81373   2.81691   2.89616
 Alpha virt. eigenvalues --    2.92640   2.94406   2.95563   2.96915   2.97754
 Alpha virt. eigenvalues --    3.00126   3.05289   3.06164   3.06928   3.10697
 Alpha virt. eigenvalues --    3.14118   3.15535   3.18683   3.21229   3.23938
 Alpha virt. eigenvalues --    3.26919   3.34342   3.43254   3.47791   3.72232
 Alpha virt. eigenvalues --    3.72672   3.86922
          Condensed to atoms (all electrons):
               1          2          3          4          5          6
     1  O    7.752485   0.342555  -0.048776   0.007753   0.000062   0.000000
     2  C    0.342555   4.690672   0.436945  -0.058286  -0.015170   0.000335
     3  C   -0.048776   0.436945   4.847835   0.296072  -0.075403   0.009929
     4  C    0.007753  -0.058286   0.296072   5.332870   0.335154   0.068735
     5  C    0.000062  -0.015170  -0.075403   0.335154   5.025863   0.342634
     6  C    0.000000   0.000335   0.009929   0.068735   0.342634   4.986478
     7  C    0.000000   0.000058  -0.000453  -0.138445   0.063749   0.323065
     8  C    0.000001   0.000242   0.009056   0.069622  -0.115154   0.060128
     9  C    0.000033  -0.004728  -0.087854   0.307252   0.036887  -0.115092
    10  C   -0.084470   0.191051  -0.067337   0.000443   0.002876  -0.000008
    11  C    0.005160  -0.065088  -0.012167   0.000695   0.000420   0.000101
    12  C    0.001104   0.011615  -0.000138  -0.000014  -0.000142  -0.000037
    13  C   -0.000025   0.000266   0.000133  -0.000001   0.000194   0.000065
    14  N   -0.000021   0.005495  -0.000120  -0.000279  -0.000503  -0.000039
    15  C    0.001599  -0.035778  -0.016634   0.003178   0.001221   0.000506
    16  H    0.326748  -0.027191  -0.007045   0.000689   0.000023  -0.000001
    17  H   -0.025468   0.400832  -0.044772  -0.003249   0.000147   0.000064
    18  H    0.005567  -0.001409   0.347987  -0.011371  -0.008736   0.000896
    19  H   -0.001382  -0.030847   0.354254  -0.002927   0.007394  -0.000539
    20  H   -0.000001  -0.001923  -0.012819  -0.068447   0.446555  -0.058834
    21  H   -0.000000  -0.000009  -0.000226   0.014539  -0.063221   0.446281
    22  H    0.000000   0.000002   0.000016  -0.001451   0.012587  -0.062430
    23  H   -0.000000  -0.000009  -0.000232   0.014179  -0.001663   0.012526
    24  H   -0.000042  -0.001601  -0.011413  -0.071567   0.012827  -0.001620
    25  H    0.016724  -0.012870  -0.001439   0.000155   0.000026   0.000002
    26  H   -0.000021  -0.000175  -0.000002   0.000000  -0.000005  -0.000000
    27  H   -0.000000   0.000066   0.000001  -0.000001   0.000006  -0.000003
    28  H   -0.000003  -0.004916  -0.002925   0.001374  -0.000663  -0.000554
               7          8          9         10         11         12
     1  O    0.000000   0.000001   0.000033  -0.084470   0.005160   0.001104
     2  C    0.000058   0.000242  -0.004728   0.191051  -0.065088   0.011615
     3  C   -0.000453   0.009056  -0.087854  -0.067337  -0.012167  -0.000138
     4  C   -0.138445   0.069622   0.307252   0.000443   0.000695  -0.000014
     5  C    0.063749  -0.115154   0.036887   0.002876   0.000420  -0.000142
     6  C    0.323065   0.060128  -0.115092  -0.000008   0.000101  -0.000037
     7  C    5.045152   0.325109   0.062559  -0.000081   0.000000   0.000000
     8  C    0.325109   4.985796   0.343664   0.000199  -0.000003   0.000000
     9  C    0.062559   0.343664   5.090369  -0.003854  -0.000008   0.000005
    10  C   -0.000081   0.000199  -0.003854   5.537227   0.410319   0.000401
    11  C    0.000000  -0.000003  -0.000008   0.410319   4.899751   0.409834
    12  C    0.000000   0.000000   0.000005   0.000401   0.409834   4.980197
    13  C    0.000000  -0.000001  -0.000005  -0.068242  -0.004006   0.436798
    14  N   -0.000037   0.000008   0.000049  -0.039528  -0.049154  -0.037741
    15  C   -0.000265  -0.000167  -0.000164   0.436422  -0.033786  -0.058789
    16  H    0.000000   0.000000  -0.000014   0.012351  -0.000034  -0.000016
    17  H    0.000013  -0.000710   0.008769  -0.064328   0.010562  -0.000177
    18  H    0.000047  -0.000538   0.010134  -0.021767   0.005744  -0.000359
    19  H    0.000031   0.000752  -0.010711   0.014649  -0.000263   0.000009
    20  H    0.012875  -0.001667   0.013048   0.001421   0.000384   0.000457
    21  H   -0.066894   0.012697  -0.001758  -0.000008   0.000002  -0.000002
    22  H    0.444269  -0.063446   0.012560   0.000000  -0.000000   0.000000
    23  H   -0.065627   0.445435  -0.064219   0.000003  -0.000000  -0.000000
    24  H    0.012783  -0.057642   0.443791   0.000104   0.000004   0.000000
    25  H   -0.000000  -0.000000   0.000006  -0.061155   0.441421  -0.053353
    26  H    0.000000  -0.000000   0.000000   0.012192  -0.057823   0.423111
    27  H    0.000000  -0.000000   0.000000   0.001123   0.006170  -0.067212
    28  H    0.000407   0.000804   0.001330  -0.071686   0.005826   0.000813
              13         14         15         16         17         18
     1  O   -0.000025  -0.000021   0.001599   0.326748  -0.025468   0.005567
     2  C    0.000266   0.005495  -0.035778  -0.027191   0.400832  -0.001409
     3  C    0.000133  -0.000120  -0.016634  -0.007045  -0.044772   0.347987
     4  C   -0.000001  -0.000279   0.003178   0.000689  -0.003249  -0.011371
     5  C    0.000194  -0.000503   0.001221   0.000023   0.000147  -0.008736
     6  C    0.000065  -0.000039   0.000506  -0.000001   0.000064   0.000896
     7  C    0.000000  -0.000037  -0.000265   0.000000   0.000013   0.000047
     8  C   -0.000001   0.000008  -0.000167   0.000000  -0.000710  -0.000538
     9  C   -0.000005   0.000049  -0.000164  -0.000014   0.008769   0.010134
    10  C   -0.068242  -0.039528   0.436422   0.012351  -0.064328  -0.021767
    11  C   -0.004006  -0.049154  -0.033786  -0.000034   0.010562   0.005744
    12  C    0.436798  -0.037741  -0.058789  -0.000016  -0.000177  -0.000359
    13  C    4.760110   0.523529  -0.065544   0.000003   0.000005  -0.000008
    14  N    0.523529   6.258072   0.547090   0.000005   0.000267  -0.000002
    15  C   -0.065544   0.547090   4.732887  -0.000281  -0.000062   0.000108
    16  H    0.000003   0.000005  -0.000281   0.516973  -0.004274  -0.001355
    17  H    0.000005   0.000267  -0.000062  -0.004274   0.699386   0.009718
    18  H   -0.000008  -0.000002   0.000108  -0.001355   0.009718   0.663293
    19  H   -0.000001   0.000004   0.000134   0.007321  -0.009937  -0.030405
    20  H    0.000183  -0.000090  -0.000324   0.000001   0.000013   0.004743
    21  H    0.000007   0.000013   0.000053   0.000000   0.000001  -0.000009
    22  H   -0.000000  -0.000000  -0.000005  -0.000000  -0.000001  -0.000001
    23  H    0.000000   0.000000  -0.000008   0.000000   0.000003   0.000006
    24  H   -0.000000   0.000001   0.000076  -0.000007   0.002255   0.000191
    25  H    0.008730  -0.000368   0.008997  -0.000918   0.000969   0.002071
    26  H   -0.045522   0.005603   0.000124   0.000000   0.000005  -0.000001
    27  H    0.422798  -0.038814   0.004439   0.000000  -0.000000  -0.000000
    28  H    0.004734  -0.033981   0.427805  -0.000001   0.005015   0.000011
              19         20         21         22         23         24
     1  O   -0.001382  -0.000001  -0.000000   0.000000  -0.000000  -0.000042
     2  C   -0.030847  -0.001923  -0.000009   0.000002  -0.000009  -0.001601
     3  C    0.354254  -0.012819  -0.000226   0.000016  -0.000232  -0.011413
     4  C   -0.002927  -0.068447   0.014539  -0.001451   0.014179  -0.071567
     5  C    0.007394   0.446555  -0.063221   0.012587  -0.001663   0.012827
     6  C   -0.000539  -0.058834   0.446281  -0.062430   0.012526  -0.001620
     7  C    0.000031   0.012875  -0.066894   0.444269  -0.065627   0.012783
     8  C    0.000752  -0.001667   0.012697  -0.063446   0.445435  -0.057642
     9  C   -0.010711   0.013048  -0.001758   0.012560  -0.064219   0.443791
    10  C    0.014649   0.001421  -0.000008   0.000000   0.000003   0.000104
    11  C   -0.000263   0.000384   0.000002  -0.000000  -0.000000   0.000004
    12  C    0.000009   0.000457  -0.000002   0.000000  -0.000000   0.000000
    13  C   -0.000001   0.000183   0.000007  -0.000000   0.000000  -0.000000
    14  N    0.000004  -0.000090   0.000013  -0.000000   0.000000   0.000001
    15  C    0.000134  -0.000324   0.000053  -0.000005  -0.000008   0.000076
    16  H    0.007321   0.000001   0.000000  -0.000000   0.000000  -0.000007
    17  H   -0.009937   0.000013   0.000001  -0.000001   0.000003   0.002255
    18  H   -0.030405   0.004743  -0.000009  -0.000001   0.000006   0.000191
    19  H    0.675632   0.000226   0.000008  -0.000001  -0.000004   0.004392
    20  H    0.000226   0.663699  -0.011656  -0.000213   0.000023  -0.000215
    21  H    0.000008  -0.011656   0.658051  -0.011071  -0.000219   0.000025
    22  H   -0.000001  -0.000213  -0.011071   0.656798  -0.011052  -0.000223
    23  H   -0.000004   0.000023  -0.000219  -0.011052   0.661396  -0.011735
    24  H    0.004392  -0.000215   0.000025  -0.000223  -0.011735   0.674634
    25  H   -0.000152  -0.000013   0.000000  -0.000000   0.000000   0.000001
    26  H   -0.000000   0.000010  -0.000000   0.000000  -0.000000   0.000000
    27  H    0.000000   0.000000  -0.000000   0.000000  -0.000000  -0.000000
    28  H    0.000003   0.000039  -0.000020   0.000000   0.000018  -0.000039
              25         26         27         28
     1  O    0.016724  -0.000021  -0.000000  -0.000003
     2  C   -0.012870  -0.000175   0.000066  -0.004916
     3  C   -0.001439  -0.000002   0.000001  -0.002925
     4  C    0.000155   0.000000  -0.000001   0.001374
     5  C    0.000026  -0.000005   0.000006  -0.000663
     6  C    0.000002  -0.000000  -0.000003  -0.000554
     7  C   -0.000000   0.000000   0.000000   0.000407
     8  C   -0.000000  -0.000000  -0.000000   0.000804
     9  C    0.000006   0.000000   0.000000   0.001330
    10  C   -0.061155   0.012192   0.001123  -0.071686
    11  C    0.441421  -0.057823   0.006170   0.005826
    12  C   -0.053353   0.423111  -0.067212   0.000813
    13  C    0.008730  -0.045522   0.422798   0.004734
    14  N   -0.000368   0.005603  -0.038814  -0.033981
    15  C    0.008997   0.000124   0.004439   0.427805
    16  H   -0.000918   0.000000   0.000000  -0.000001
    17  H    0.000969   0.000005  -0.000000   0.005015
    18  H    0.002071  -0.000001  -0.000000   0.000011
    19  H   -0.000152  -0.000000   0.000000   0.000003
    20  H   -0.000013   0.000010   0.000000   0.000039
    21  H    0.000000  -0.000000  -0.000000  -0.000020
    22  H   -0.000000   0.000000   0.000000   0.000000
    23  H    0.000000  -0.000000  -0.000000   0.000018
    24  H    0.000001   0.000000  -0.000000  -0.000039
    25  H    0.626315  -0.009697  -0.000234  -0.000218
    26  H   -0.009697   0.650711  -0.006121   0.000063
    27  H   -0.000234  -0.006121   0.643985  -0.000267
    28  H   -0.000218   0.000063  -0.000267   0.640046
 Mulliken charges:
               1
     1  O   -0.299581
     2  C    0.179866
     3  C    0.087527
     4  C   -0.096671
     5  C   -0.007964
     6  C   -0.012585
     7  C   -0.018315
     8  C   -0.014185
     9  C   -0.042051
    10  C   -0.138318
    11  C    0.025943
    12  C   -0.046362
    13  C    0.025800
    14  N   -0.139460
    15  C    0.047170
    16  H    0.177022
    17  H    0.014952
    18  H    0.025447
    19  H    0.022360
    20  H    0.012525
    21  H    0.023418
    22  H    0.023663
    23  H    0.021179
    24  H    0.005020
    25  H    0.035001
    26  H    0.027547
    27  H    0.034065
    28  H    0.026987
 Sum of Mulliken charges =  -0.00000
 Mulliken charges with hydrogens summed into heavy atoms:
               1
     1  O   -0.122559
     2  C    0.194817
     3  C    0.135333
     4  C   -0.096671
     5  C    0.004562
     6  C    0.010833
     7  C    0.005348
     8  C    0.006994
     9  C   -0.037030
    10  C   -0.138318
    11  C    0.060944
    12  C   -0.018815
    13  C    0.059865
    14  N   -0.139460
    15  C    0.074157
 Electronic spatial extent (au):  <R**2>=           3144.0502
 Charge=             -0.0000 electrons
 Dipole moment (field-independent basis, Debye):
    X=              0.9218    Y=              2.1740    Z=              1.1391  Tot=              2.6218
 Quadrupole moment (field-independent basis, Debye-Ang):
   XX=            -85.6649   YY=            -81.2267   ZZ=            -88.0690
   XY=              1.0947   XZ=             -7.7128   YZ=             -5.0483
 Traceless Quadrupole moment (field-independent basis, Debye-Ang):
   XX=             -0.6780   YY=              3.7601   ZZ=             -3.0821
   XY=              1.0947   XZ=             -7.7128   YZ=             -5.0483
 Octapole moment (field-independent basis, Debye-Ang**2):
  XXX=            -11.9847  YYY=             47.8294  ZZZ=              0.2495  XYY=              4.9317
  XXY=            -23.9504  XXZ=             -1.0652  XZZ=             -1.6716  YZZ=              8.8712
  YYZ=              9.3590  XYZ=             -1.0435
 Hexadecapole moment (field-independent basis, Debye-Ang**3):
 XXXX=          -2587.3465 YYYY=          -1045.1888 ZZZZ=           -387.3290 XXXY=             -2.4515
 XXXZ=           -118.4547 YYYX=            -25.4826 YYYZ=            -37.1424 ZZZX=            -16.4260
 ZZZY=            -11.5620 XXYY=           -614.5382 XXZZ=           -509.2874 YYZZ=           -275.7109
 XXYZ=            -14.2099 YYXZ=            -12.7436 ZZXY=            -13.9429
 N-N= 9.344872775206D+02 E-N=-3.336460595188D+03  KE= 6.257880288381D+02
   1 Symmetry operations used in ECPInt.
 ECPInt:  NShTT=    8385 NPrTT=   30369 LenC2=    8069 LenP2D=   21618.
 LDataN:  DoStor=T MaxTD1= 5 Len=  102
 Calling FoFJK, ICntrl=      2127 FMM=F ISym2X=0 I1Cent= 0 IOpClX= 0 NMat=1 NMatS=1 NMatT=0.
 ***** Axes restored to original set *****
 -------------------------------------------------------------------
 Center     Atomic                   Forces (Hartrees/Bohr)
 Number     Number              X              Y              Z
 -------------------------------------------------------------------
      1        8           0.000007177   -0.000000927   -0.000007577
      2        6           0.000000161    0.000006126   -0.000001651
      3        6          -0.000000109   -0.000007998    0.000001099
      4        6           0.000002446    0.000007556   -0.000007604
      5        6           0.000005248   -0.000007431    0.000001269
      6        6          -0.000005540    0.000006617    0.000002853
      7        6          -0.000002614    0.000002876    0.000002552
      8        6           0.000000719   -0.000010351    0.000003393
      9        6           0.000005420    0.000002401    0.000003923
     10        6          -0.000008863   -0.000010518   -0.000005027
     11        6          -0.000003687   -0.000000953   -0.000004676
     12        6          -0.000001543    0.000002500    0.000003328
     13        6          -0.000009471    0.000004172   -0.000002801
     14        7          -0.000005484   -0.000006612    0.000003625
     15        6           0.000015461    0.000015118    0.000008194
     16        1           0.000000157   -0.000002170   -0.000004075
     17        1          -0.000001282   -0.000000652   -0.000002451
     18        1           0.000003700    0.000005202   -0.000001235
     19        1           0.000000371    0.000002412   -0.000005650
     20        1          -0.000001459    0.000002921    0.000001608
     21        1          -0.000001980   -0.000001510    0.000004704
     22        1          -0.000001064   -0.000001687    0.000005246
     23        1           0.000000047   -0.000004155    0.000002972
     24        1           0.000000054   -0.000008193    0.000001879
     25        1           0.000002299    0.000004531   -0.000002724
     26        1           0.000003852    0.000002660   -0.000004640
     27        1           0.000000481    0.000001414    0.000005155
     28        1          -0.000004498   -0.000003348   -0.000001689
 -------------------------------------------------------------------
 Cartesian Forces:  Max     0.000015461 RMS     0.000005025

 GradGradGradGradGradGradGradGradGradGradGradGradGradGradGradGradGradGrad
 Berny optimization.
 FormGI is forming the generalized inverse of G from B-inverse, IUseBI=4.
 Internal  Forces:  Max     0.000010973 RMS     0.000002714
 Search for a local minimum.
 Step number   1 out of a maximum of  154
 All quantities printed in internal units (Hartrees-Bohrs-Radians)
 Mixed Optimization -- En-DIIS/RFO-DIIS
 Second derivative matrix not updated -- first step.
 ITU=  0
     Eigenvalues ---    0.00230   0.00631   0.00684   0.01513   0.01532
     Eigenvalues ---    0.01612   0.02108   0.02132   0.02142   0.02147
     Eigenvalues ---    0.02158   0.02166   0.02168   0.02169   0.02174
     Eigenvalues ---    0.02174   0.02183   0.02204   0.02264   0.02315
     Eigenvalues ---    0.02511   0.03985   0.05064   0.05363   0.05450
     Eigenvalues ---    0.07937   0.09409   0.12918   0.15998   0.15998
     Eigenvalues ---    0.16000   0.16000   0.16000   0.16000   0.16000
     Eigenvalues ---    0.16000   0.16000   0.16000   0.17643   0.19949
     Eigenvalues ---    0.21989   0.22000   0.22000   0.22000   0.23201
     Eigenvalues ---    0.23438   0.23455   0.24947   0.24977   0.28006
     Eigenvalues ---    0.31327   0.31738   0.32776   0.33231   0.33555
     Eigenvalues ---    0.34033   0.34160   0.34346   0.34457   0.34549
     Eigenvalues ---    0.34576   0.34580   0.34620   0.34626   0.42082
     Eigenvalues ---    0.42112   0.42309   0.44489   0.44631   0.45942
     Eigenvalues ---    0.46163   0.46215   0.46624   0.46716   0.46725
     Eigenvalues ---    0.55272   0.57055   0.58527
 RFO step:  Lambda= 0.00000000D+00 EMin= 2.30000000D-03
 Linear search not attempted -- first point.
 Iteration  1 RMS(Cart)=  0.00013583 RMS(Int)=  0.00000000
 Iteration  2 RMS(Cart)=  0.00000001 RMS(Int)=  0.00000000
 Variable       Old X    -DE/DX   Delta X   Delta X   Delta X     New X
                                 (Linear)    (Quad)   (Total)
    R1        2.65706  -0.00001   0.00000  -0.00001  -0.00001   2.65705
    R2        1.81591  -0.00000   0.00000  -0.00001  -0.00001   1.81591
    R3        2.92125   0.00001   0.00000   0.00002   0.00002   2.92127
    R4        2.85393   0.00001   0.00000   0.00002   0.00002   2.85395
    R5        2.09447  -0.00000   0.00000  -0.00000  -0.00000   2.09446
    R6        2.84626   0.00000   0.00000   0.00000   0.00000   2.84626
    R7        2.08088  -0.00000   0.00000  -0.00000  -0.00000   2.08088
    R8        2.08648   0.00000   0.00000   0.00001   0.00001   2.08648
    R9        2.64353   0.00000   0.00000   0.00001   0.00001   2.64354
   R10        2.64463  -0.00000   0.00000  -0.00001  -0.00001   2.64463
   R11        2.63278  -0.00001   0.00000  -0.00002  -0.00002   2.63276
   R12        2.06566   0.00000   0.00000   0.00000   0.00000   2.06566
   R13        2.63431  -0.00000   0.00000  -0.00001  -0.00001   2.63430
   R14        2.06362   0.00000   0.00000   0.00001   0.00001   2.06363
   R15        2.63482  -0.00001   0.00000  -0.00001  -0.00001   2.63481
   R16        2.06369  -0.00000   0.00000  -0.00000  -0.00000   2.06369
   R17        2.63378   0.00000   0.00000   0.00000   0.00000   2.63378
   R18        2.06414  -0.00000   0.00000  -0.00000  -0.00000   2.06414
   R19        2.06750  -0.00001   0.00000  -0.00002  -0.00002   2.06748
   R20        2.63548  -0.00000   0.00000  -0.00000  -0.00000   2.63548
   R21        2.64395  -0.00001   0.00000  -0.00002  -0.00002   2.64393
   R22        2.63032  -0.00000   0.00000  -0.00000  -0.00000   2.63031
   R23        2.06286   0.00000   0.00000   0.00000   0.00000   2.06286
   R24        2.63471  -0.00000   0.00000  -0.00001  -0.00001   2.63470
   R25        2.06296  -0.00001   0.00000  -0.00002  -0.00002   2.06294
   R26        2.51546   0.00000   0.00000   0.00000   0.00000   2.51546
   R27        2.07061  -0.00000   0.00000  -0.00000  -0.00000   2.07060
   R28        2.51227   0.00001   0.00000   0.00002   0.00002   2.51228
   R29        2.07274  -0.00000   0.00000  -0.00001  -0.00001   2.07273
    A1        1.89401   0.00000   0.00000   0.00001   0.00001   1.89402
    A2        1.92639  -0.00000   0.00000  -0.00001  -0.00001   1.92639
    A3        1.88773  -0.00000   0.00000  -0.00002  -0.00002   1.88771
    A4        1.93431   0.00000   0.00000  -0.00002  -0.00002   1.93428
    A5        1.94836   0.00001   0.00000   0.00005   0.00005   1.94841
    A6        1.88220  -0.00000   0.00000   0.00001   0.00001   1.88221
    A7        1.88487  -0.00000   0.00000  -0.00001  -0.00001   1.88486
    A8        1.98283   0.00001   0.00000   0.00006   0.00006   1.98289
    A9        1.87926  -0.00000   0.00000   0.00002   0.00002   1.87929
   A10        1.88030  -0.00001   0.00000  -0.00004  -0.00004   1.88025
   A11        1.93408  -0.00000   0.00000  -0.00000  -0.00000   1.93407
   A12        1.91229  -0.00000   0.00000  -0.00002  -0.00002   1.91228
   A13        1.87098   0.00000   0.00000  -0.00002  -0.00002   1.87096
   A14        2.10972  -0.00000   0.00000  -0.00002  -0.00002   2.10971
   A15        2.10357   0.00001   0.00000   0.00003   0.00003   2.10359
   A16        2.06816  -0.00000   0.00000  -0.00001  -0.00001   2.06815
   A17        2.10896   0.00000   0.00000   0.00001   0.00001   2.10896
   A18        2.08323  -0.00000   0.00000  -0.00001  -0.00001   2.08323
   A19        2.09088  -0.00000   0.00000   0.00000   0.00000   2.09088
   A20        2.09669  -0.00000   0.00000  -0.00000  -0.00000   2.09669
   A21        2.09032   0.00000   0.00000   0.00001   0.00001   2.09033
   A22        2.09615  -0.00000   0.00000  -0.00000  -0.00000   2.09615
   A23        2.08771   0.00000   0.00000   0.00000   0.00000   2.08772
   A24        2.09789  -0.00000   0.00000   0.00000   0.00000   2.09789
   A25        2.09758  -0.00000   0.00000  -0.00000  -0.00000   2.09758
   A26        2.09507   0.00000   0.00000   0.00000   0.00000   2.09507
   A27        2.09626   0.00000   0.00000   0.00000   0.00000   2.09626
   A28        2.09186  -0.00000   0.00000  -0.00000  -0.00000   2.09185
   A29        2.10978   0.00000   0.00000   0.00000   0.00000   2.10978
   A30        2.08565  -0.00000   0.00000  -0.00001  -0.00001   2.08564
   A31        2.08775   0.00000   0.00000   0.00001   0.00001   2.08776
   A32        2.11620   0.00000   0.00000   0.00000   0.00000   2.11620
   A33        2.11429  -0.00000   0.00000  -0.00001  -0.00001   2.11428
   A34        2.05196   0.00000   0.00000   0.00001   0.00001   2.05197
   A35        2.07522   0.00000   0.00000   0.00000   0.00000   2.07522
   A36        2.08721  -0.00000   0.00000  -0.00002  -0.00002   2.08719
   A37        2.12068   0.00000   0.00000   0.00001   0.00001   2.12069
   A38        2.06905   0.00000   0.00000  -0.00000  -0.00000   2.06905
   A39        2.11331   0.00000   0.00000   0.00002   0.00002   2.11332
   A40        2.10082  -0.00000   0.00000  -0.00001  -0.00001   2.10080
   A41        2.15025  -0.00000   0.00000  -0.00000  -0.00000   2.15025
   A42        2.09949   0.00000   0.00000   0.00000   0.00000   2.09949
   A43        2.03343   0.00000   0.00000   0.00000   0.00000   2.03343
   A44        2.05632   0.00000   0.00000   0.00001   0.00001   2.05633
   A45        2.16349  -0.00000   0.00000  -0.00002  -0.00002   2.16348
   A46        2.08804   0.00000   0.00000   0.00002   0.00002   2.08806
   A47        2.03164  -0.00000   0.00000  -0.00001  -0.00001   2.03163
    D1        0.91978  -0.00000   0.00000  -0.00007  -0.00007   0.91971
    D2        3.05589   0.00000   0.00000  -0.00002  -0.00002   3.05587
    D3       -1.16423  -0.00000   0.00000  -0.00006  -0.00006  -1.16429
    D4       -3.11550   0.00000   0.00000  -0.00002  -0.00002  -3.11553
    D5        1.01898  -0.00000   0.00000  -0.00007  -0.00007   1.01891
    D6       -0.99378   0.00000   0.00000  -0.00003  -0.00003  -0.99382
    D7        1.06759   0.00000   0.00000  -0.00003  -0.00003   1.06756
    D8       -1.08111  -0.00000   0.00000  -0.00008  -0.00008  -1.08119
    D9       -3.09388   0.00000   0.00000  -0.00004  -0.00004  -3.09392
   D10       -1.00020  -0.00000   0.00000  -0.00005  -0.00005  -1.00026
   D11        3.13428  -0.00000   0.00000  -0.00010  -0.00010   3.13418
   D12        1.12152  -0.00000   0.00000  -0.00007  -0.00007   1.12145
   D13       -0.54571  -0.00000   0.00000   0.00004   0.00004  -0.54567
   D14        2.63797  -0.00000   0.00000   0.00003   0.00003   2.63799
   D15        1.57690  -0.00000   0.00000   0.00005   0.00005   1.57695
   D16       -1.52260  -0.00000   0.00000   0.00003   0.00003  -1.52257
   D17       -2.64008   0.00000   0.00000   0.00008   0.00008  -2.64000
   D18        0.54360   0.00000   0.00000   0.00007   0.00007   0.54367
   D19       -1.66292  -0.00000   0.00000   0.00014   0.00014  -1.66278
   D20        1.41435   0.00000   0.00000   0.00021   0.00021   1.41456
   D21        0.45544   0.00000   0.00000   0.00020   0.00020   0.45564
   D22       -2.75048   0.00000   0.00000   0.00028   0.00028  -2.75020
   D23        2.51648   0.00000   0.00000   0.00016   0.00016   2.51664
   D24       -0.68944   0.00000   0.00000   0.00024   0.00024  -0.68920
   D25        3.07669   0.00000   0.00000   0.00002   0.00002   3.07671
   D26       -0.04875   0.00000   0.00000   0.00003   0.00003  -0.04872
   D27       -0.00186  -0.00000   0.00000  -0.00005  -0.00005  -0.00191
   D28       -3.12730  -0.00000   0.00000  -0.00004  -0.00004  -3.12734
   D29       -3.07616   0.00000   0.00000  -0.00001  -0.00001  -3.07617
   D30        0.06560  -0.00000   0.00000  -0.00006  -0.00006   0.06554
   D31        0.00262   0.00000   0.00000   0.00006   0.00006   0.00268
   D32       -3.13881   0.00000   0.00000   0.00001   0.00001  -3.13880
   D33       -0.00108   0.00000   0.00000   0.00002   0.00002  -0.00105
   D34       -3.13584   0.00000   0.00000   0.00002   0.00002  -3.13582
   D35        3.12429   0.00000   0.00000   0.00001   0.00001   3.12430
   D36       -0.01048   0.00000   0.00000   0.00001   0.00001  -0.01046
   D37        0.00329  -0.00000   0.00000  -0.00000  -0.00000   0.00329
   D38       -3.13839  -0.00000   0.00000  -0.00001  -0.00001  -3.13840
   D39        3.13803  -0.00000   0.00000  -0.00000  -0.00000   3.13803
   D40       -0.00364  -0.00000   0.00000  -0.00001  -0.00001  -0.00366
   D41       -0.00253   0.00000   0.00000   0.00001   0.00001  -0.00253
   D42        3.13815  -0.00000   0.00000  -0.00001  -0.00001   3.13814
   D43        3.13914   0.00000   0.00000   0.00002   0.00002   3.13916
   D44       -0.00337   0.00000   0.00000   0.00000   0.00000  -0.00337
   D45       -0.00044  -0.00000   0.00000  -0.00004  -0.00004  -0.00048
   D46        3.14099   0.00000   0.00000   0.00001   0.00001   3.14100
   D47       -3.14112  -0.00000   0.00000  -0.00002  -0.00002  -3.14114
   D48        0.00030   0.00000   0.00000   0.00003   0.00003   0.00033
   D49       -3.09138  -0.00000   0.00000  -0.00003  -0.00003  -3.09142
   D50        0.06365  -0.00000   0.00000  -0.00007  -0.00007   0.06358
   D51        0.00957  -0.00000   0.00000  -0.00002  -0.00002   0.00955
   D52       -3.11858  -0.00000   0.00000  -0.00005  -0.00005  -3.11863
   D53        3.08986   0.00000   0.00000   0.00009   0.00009   3.08994
   D54       -0.04549  -0.00000   0.00000  -0.00011  -0.00011  -0.04560
   D55       -0.01115   0.00000   0.00000   0.00007   0.00007  -0.01107
   D56        3.13669  -0.00000   0.00000  -0.00012  -0.00012   3.13657
   D57       -0.00122  -0.00000   0.00000  -0.00005  -0.00005  -0.00127
   D58       -3.13791  -0.00000   0.00000  -0.00004  -0.00004  -3.13795
   D59        3.12666  -0.00000   0.00000  -0.00002  -0.00002   3.12665
   D60       -0.01003  -0.00000   0.00000  -0.00000  -0.00000  -0.01003
   D61       -0.00705   0.00000   0.00000   0.00008   0.00008  -0.00697
   D62        3.14096  -0.00000   0.00000  -0.00007  -0.00007   3.14090
   D63        3.12968   0.00000   0.00000   0.00007   0.00007   3.12975
   D64       -0.00549  -0.00000   0.00000  -0.00008  -0.00008  -0.00557
   D65        0.00602  -0.00000   0.00000  -0.00003  -0.00003   0.00599
   D66        3.14142   0.00000   0.00000   0.00011   0.00011   3.14153
   D67        0.00335  -0.00000   0.00000  -0.00005  -0.00005   0.00330
   D68        3.13888   0.00000   0.00000   0.00014   0.00014   3.13902
         Item               Value     Threshold  Converged?
 Maximum Force            0.000011     0.000450     YES
 RMS     Force            0.000003     0.000300     YES
 Maximum Displacement     0.000505     0.001800     YES
 RMS     Displacement     0.000136     0.001200     YES
 Predicted change in Energy=-4.563012D-09
 Optimization completed.
    -- Stationary point found.
                           ----------------------------
                           !   Optimized Parameters   !
                           ! (Angstroms and Degrees)  !
 --------------------------                            --------------------------
 ! Name  Definition              Value          Derivative Info.                !
 --------------------------------------------------------------------------------
 ! R1    R(1,2)                  1.4061         -DE/DX =    0.0                 !
 ! R2    R(1,16)                 0.9609         -DE/DX =    0.0                 !
 ! R3    R(2,3)                  1.5459         -DE/DX =    0.0                 !
 ! R4    R(2,10)                 1.5102         -DE/DX =    0.0                 !
 ! R5    R(2,17)                 1.1083         -DE/DX =    0.0                 !
 ! R6    R(3,4)                  1.5062         -DE/DX =    0.0                 !
 ! R7    R(3,18)                 1.1012         -DE/DX =    0.0                 !
 ! R8    R(3,19)                 1.1041         -DE/DX =    0.0                 !
 ! R9    R(4,5)                  1.3989         -DE/DX =    0.0                 !
 ! R10   R(4,9)                  1.3995         -DE/DX =    0.0                 !
 ! R11   R(5,6)                  1.3932         -DE/DX =    0.0                 !
 ! R12   R(5,20)                 1.0931         -DE/DX =    0.0                 !
 ! R13   R(6,7)                  1.394          -DE/DX =    0.0                 !
 ! R14   R(6,21)                 1.092          -DE/DX =    0.0                 !
 ! R15   R(7,8)                  1.3943         -DE/DX =    0.0                 !
 ! R16   R(7,22)                 1.0921         -DE/DX =    0.0                 !
 ! R17   R(8,9)                  1.3937         -DE/DX =    0.0                 !
 ! R18   R(8,23)                 1.0923         -DE/DX =    0.0                 !
 ! R19   R(9,24)                 1.0941         -DE/DX =    0.0                 !
 ! R20   R(10,11)                1.3946         -DE/DX =    0.0                 !
 ! R21   R(10,15)                1.3991         -DE/DX =    0.0                 !
 ! R22   R(11,12)                1.3919         -DE/DX =    0.0                 !
 ! R23   R(11,25)                1.0916         -DE/DX =    0.0                 !
 ! R24   R(12,13)                1.3942         -DE/DX =    0.0                 !
 ! R25   R(12,26)                1.0917         -DE/DX =    0.0                 !
 ! R26   R(13,14)                1.3311         -DE/DX =    0.0                 !
 ! R27   R(13,27)                1.0957         -DE/DX =    0.0                 !
 ! R28   R(14,15)                1.3294         -DE/DX =    0.0                 !
 ! R29   R(15,28)                1.0968         -DE/DX =    0.0                 !
 ! A1    A(2,1,16)             108.5191         -DE/DX =    0.0                 !
 ! A2    A(1,2,3)              110.3742         -DE/DX =    0.0                 !
 ! A3    A(1,2,10)             108.1587         -DE/DX =    0.0                 !
 ! A4    A(1,2,17)             110.8277         -DE/DX =    0.0                 !
 ! A5    A(3,2,10)             111.6327         -DE/DX =    0.0                 !
 ! A6    A(3,2,17)             107.8424         -DE/DX =    0.0                 !
 ! A7    A(10,2,17)            107.9949         -DE/DX =    0.0                 !
 ! A8    A(2,3,4)              113.6078         -DE/DX =    0.0                 !
 ! A9    A(2,3,18)             107.6739         -DE/DX =    0.0                 !
 ! A10   A(2,3,19)             107.733          -DE/DX =    0.0                 !
 ! A11   A(4,3,18)             110.8143         -DE/DX =    0.0                 !
 ! A12   A(4,3,19)             109.5663         -DE/DX =    0.0                 !
 ! A13   A(18,3,19)            107.1994         -DE/DX =    0.0                 !
 ! A14   A(3,4,5)              120.8782         -DE/DX =    0.0                 !
 ! A15   A(3,4,9)              120.5254         -DE/DX =    0.0                 !
 ! A16   A(5,4,9)              118.4967         -DE/DX =    0.0                 !
 ! A17   A(4,5,6)              120.8343         -DE/DX =    0.0                 !
 ! A18   A(4,5,20)             119.3605         -DE/DX =    0.0                 !
 ! A19   A(6,5,20)             119.7987         -DE/DX =    0.0                 !
 ! A20   A(5,6,7)              120.1314         -DE/DX =    0.0                 !
 ! A21   A(5,6,21)             119.7666         -DE/DX =    0.0                 !
 ! A22   A(7,6,21)             120.1008         -DE/DX =    0.0                 !
 ! A23   A(6,7,8)              119.6171         -DE/DX =    0.0                 !
 ! A24   A(6,7,22)             120.2003         -DE/DX =    0.0                 !
 ! A25   A(8,7,22)             120.1826         -DE/DX =    0.0                 !
 ! A26   A(7,8,9)              120.0386         -DE/DX =    0.0                 !
 ! A27   A(7,8,23)             120.1069         -DE/DX =    0.0                 !
 ! A28   A(9,8,23)             119.8545         -DE/DX =    0.0                 !
 ! A29   A(4,9,8)              120.8815         -DE/DX =    0.0                 !
 ! A30   A(4,9,24)             119.499          -DE/DX =    0.0                 !
 ! A31   A(8,9,24)             119.6195         -DE/DX =    0.0                 !
 ! A32   A(2,10,11)            121.2493         -DE/DX =    0.0                 !
 ! A33   A(2,10,15)            121.1399         -DE/DX =    0.0                 !
 ! A34   A(11,10,15)           117.5689         -DE/DX =    0.0                 !
 ! A35   A(10,11,12)           118.9015         -DE/DX =    0.0                 !
 ! A36   A(10,11,25)           119.5881         -DE/DX =    0.0                 !
 ! A37   A(12,11,25)           121.5058         -DE/DX =    0.0                 !
 ! A38   A(11,12,13)           118.5479         -DE/DX =    0.0                 !
 ! A39   A(11,12,26)           121.0836         -DE/DX =    0.0                 !
 ! A40   A(13,12,26)           120.3679         -DE/DX =    0.0                 !
 ! A41   A(12,13,14)           123.2003         -DE/DX =    0.0                 !
 ! A42   A(12,13,27)           120.2918         -DE/DX =    0.0                 !
 ! A43   A(14,13,27)           116.5069         -DE/DX =    0.0                 !
 ! A44   A(13,14,15)           117.8186         -DE/DX =    0.0                 !
 ! A45   A(10,15,14)           123.959          -DE/DX =    0.0                 !
 ! A46   A(10,15,28)           119.6358         -DE/DX =    0.0                 !
 ! A47   A(14,15,28)           116.4042         -DE/DX =    0.0                 !
 ! D1    D(16,1,2,3)            52.6995         -DE/DX =    0.0                 !
 ! D2    D(16,1,2,10)          175.0895         -DE/DX =    0.0                 !
 ! D3    D(16,1,2,17)          -66.7056         -DE/DX =    0.0                 !
 ! D4    D(1,2,3,4)           -178.5052         -DE/DX =    0.0                 !
 ! D5    D(1,2,3,18)            58.3834         -DE/DX =    0.0                 !
 ! D6    D(1,2,3,19)           -56.9396         -DE/DX =    0.0                 !
 ! D7    D(10,2,3,4)            61.1684         -DE/DX =    0.0                 !
 ! D8    D(10,2,3,18)          -61.943          -DE/DX =    0.0                 !
 ! D9    D(10,2,3,19)         -177.266          -DE/DX =    0.0                 !
 ! D10   D(17,2,3,4)           -57.3074         -DE/DX =    0.0                 !
 ! D11   D(17,2,3,18)          179.5812         -DE/DX =    0.0                 !
 ! D12   D(17,2,3,19)           64.2582         -DE/DX =    0.0                 !
 ! D13   D(1,2,10,11)          -31.267          -DE/DX =    0.0                 !
 ! D14   D(1,2,10,15)          151.1445         -DE/DX =    0.0                 !
 ! D15   D(3,2,10,11)           90.3498         -DE/DX =    0.0                 !
 ! D16   D(3,2,10,15)          -87.2387         -DE/DX =    0.0                 !
 ! D17   D(17,2,10,11)        -151.2655         -DE/DX =    0.0                 !
 ! D18   D(17,2,10,15)          31.146          -DE/DX =    0.0                 !
 ! D19   D(2,3,4,5)            -95.2784         -DE/DX =    0.0                 !
 ! D20   D(2,3,4,9)             81.0362         -DE/DX =    0.0                 !
 ! D21   D(18,3,4,5)            26.0946         -DE/DX =    0.0                 !
 ! D22   D(18,3,4,9)          -157.5908         -DE/DX =    0.0                 !
 ! D23   D(19,3,4,5)           144.1836         -DE/DX =    0.0                 !
 ! D24   D(19,3,4,9)           -39.5018         -DE/DX =    0.0                 !
 ! D25   D(3,4,5,6)            176.2813         -DE/DX =    0.0                 !
 ! D26   D(3,4,5,20)            -2.793          -DE/DX =    0.0                 !
 ! D27   D(9,4,5,6)             -0.1065         -DE/DX =    0.0                 !
 ! D28   D(9,4,5,20)          -179.1809         -DE/DX =    0.0                 !
 ! D29   D(3,4,9,8)           -176.251          -DE/DX =    0.0                 !
 ! D30   D(3,4,9,24)             3.7585         -DE/DX =    0.0                 !
 ! D31   D(5,4,9,8)              0.15           -DE/DX =    0.0                 !
 ! D32   D(5,4,9,24)          -179.8404         -DE/DX =    0.0                 !
 ! D33   D(4,5,6,7)             -0.0617         -DE/DX =    0.0                 !
 ! D34   D(4,5,6,21)          -179.6705         -DE/DX =    0.0                 !
 ! D35   D(20,5,6,7)           179.0086         -DE/DX =    0.0                 !
 ! D36   D(20,5,6,21)           -0.6002         -DE/DX =    0.0                 !
 ! D37   D(5,6,7,8)              0.1882         -DE/DX =    0.0                 !
 ! D38   D(5,6,7,22)          -179.8163         -DE/DX =    0.0                 !
 ! D39   D(21,6,7,8)           179.7957         -DE/DX =    0.0                 !
 ! D40   D(21,6,7,22)           -0.2088         -DE/DX =    0.0                 !
 ! D41   D(6,7,8,9)             -0.1451         -DE/DX =    0.0                 !
 ! D42   D(6,7,8,23)           179.8026         -DE/DX =    0.0                 !
 ! D43   D(22,7,8,9)           179.8594         -DE/DX =    0.0                 !
 ! D44   D(22,7,8,23)           -0.1929         -DE/DX =    0.0                 !
 ! D45   D(7,8,9,4)             -0.0252         -DE/DX =    0.0                 !
 ! D46   D(7,8,9,24)           179.9652         -DE/DX =    0.0                 !
 ! D47   D(23,8,9,4)          -179.9731         -DE/DX =    0.0                 !
 ! D48   D(23,8,9,24)            0.0174         -DE/DX =    0.0                 !
 ! D49   D(2,10,11,12)        -177.1232         -DE/DX =    0.0                 !
 ! D50   D(2,10,11,25)           3.647          -DE/DX =    0.0                 !
 ! D51   D(15,10,11,12)          0.5485         -DE/DX =    0.0                 !
 ! D52   D(15,10,11,25)       -178.6813         -DE/DX =    0.0                 !
 ! D53   D(2,10,15,14)         177.0357         -DE/DX =    0.0                 !
 ! D54   D(2,10,15,28)          -2.6064         -DE/DX =    0.0                 !
 ! D55   D(11,10,15,14)         -0.6387         -DE/DX =    0.0                 !
 ! D56   D(11,10,15,28)        179.7193         -DE/DX =    0.0                 !
 ! D57   D(10,11,12,13)         -0.0698         -DE/DX =    0.0                 !
 ! D58   D(10,11,12,26)       -179.7892         -DE/DX =    0.0                 !
 ! D59   D(25,11,12,13)        179.1447         -DE/DX =    0.0                 !
 ! D60   D(25,11,12,26)         -0.5746         -DE/DX =    0.0                 !
 ! D61   D(11,12,13,14)         -0.4038         -DE/DX =    0.0                 !
 ! D62   D(11,12,13,27)        179.9639         -DE/DX =    0.0                 !
 ! D63   D(26,12,13,14)        179.3176         -DE/DX =    0.0                 !
 ! D64   D(26,12,13,27)         -0.3147         -DE/DX =    0.0                 !
 ! D65   D(12,13,14,15)          0.345          -DE/DX =    0.0                 !
 ! D66   D(27,13,14,15)        179.9903         -DE/DX =    0.0                 !
 ! D67   D(13,14,15,10)          0.1918         -DE/DX =    0.0                 !
 ! D68   D(13,14,15,28)        179.8444         -DE/DX =    0.0                 !
 --------------------------------------------------------------------------------
 GradGradGradGradGradGradGradGradGradGradGradGradGradGradGradGradGradGrad

                          Input orientation:                          
 ---------------------------------------------------------------------
 Center     Atomic      Atomic             Coordinates (Angstroms)
 Number     Number       Type             X           Y           Z
 ---------------------------------------------------------------------
      1          8           0       -1.666970    2.701940   -0.162550
      2          6           0       -0.730100    1.678160   -0.388700
      3          6           0        0.417010    1.760560    0.644270
      4          6           0        1.483370    0.715490    0.446120
      5          6           0        1.451150   -0.487360    1.159580
      6          6           0        2.393680   -1.485050    0.920250
      7          6           0        3.385540   -1.294720   -0.040620
      8          6           0        3.430630   -0.099380   -0.756980
      9          6           0        2.486060    0.896070   -0.513330
[...]
     3  C   -0.072153   0.340610   5.341101   0.120634  -0.060355   0.014371
     4  C    0.026136  -0.041223   0.120634   5.206679   0.337705   0.054491
     5  C   -0.000265  -0.015402  -0.060355   0.337705   5.138314   0.366571
     6  C   -0.000049   0.002623   0.014371   0.054491   0.366571   4.959749
     7  C    0.000012  -0.000558  -0.006560  -0.106355   0.056899   0.414461
     8  C   -0.000059   0.002910   0.016997   0.035529  -0.093102   0.031993
     9  C    0.000374   0.000914  -0.116285   0.366760   0.057145  -0.094561
    10  C   -0.112172   0.108137  -0.009318   0.009976   0.003041   0.000291
    11  C    0.012297  -0.064735  -0.017264   0.001311   0.001285   0.000079
    12  C   -0.001268   0.000807   0.004228  -0.001756  -0.000344  -0.000207
    13  C    0.000198  -0.001073  -0.000168   0.000685   0.000383   0.000772
    14  N   -0.000235   0.007251   0.000389   0.000466  -0.001318   0.001311
    15  C   -0.002417   0.008250  -0.013190   0.003042  -0.012003  -0.000982
    16  H    0.297594  -0.041475  -0.006193   0.002896   0.000059  -0.000009
    17  H   -0.032556   0.455378  -0.074688   0.006254   0.004419  -0.000319
    18  H    0.011683  -0.030083   0.397825  -0.029338   0.004823   0.001029
    19  H   -0.002164  -0.066077   0.410565  -0.032960   0.000974  -0.001316
    20  H    0.000150  -0.004256  -0.002494  -0.068878   0.450885  -0.051559
    21  H   -0.000000   0.000020  -0.000319   0.012895  -0.056397   0.442689
    22  H    0.000000   0.000006  -0.000014  -0.003120   0.010768  -0.053665
    23  H   -0.000000   0.000003  -0.000059   0.013377  -0.003781   0.010725
    24  H    0.000023  -0.002797  -0.001943  -0.075437   0.013020  -0.004293
    25  H    0.018469   0.001772  -0.004194   0.001100  -0.000010   0.000021
    26  H   -0.000124  -0.000100   0.000053  -0.000033   0.000000  -0.000011
    27  H   -0.000002   0.000080   0.000008  -0.000014   0.000073  -0.000036
    28  H    0.000040   0.004198  -0.002537  -0.006948   0.002455  -0.001455
               7          8          9         10         11         12
     1  O    0.000012  -0.000059   0.000374  -0.112172   0.012297  -0.001268
     2  C   -0.000558   0.002910   0.000914   0.108137  -0.064735   0.000807
     3  C   -0.006560   0.016997  -0.116285  -0.009318  -0.017264   0.004228
     4  C   -0.106355   0.035529   0.366760   0.009976   0.001311  -0.001756
     5  C    0.056899  -0.093102   0.057145   0.003041   0.001285  -0.000344
     6  C    0.414461   0.031993  -0.094561   0.000291   0.000079  -0.000207
     7  C    4.945825   0.426679   0.045565   0.000042   0.000036   0.000005
     8  C    0.426679   4.937093   0.402575  -0.000003  -0.000107   0.000010
     9  C    0.045565   0.402575   5.170200  -0.015089   0.000450  -0.000010
    10  C    0.000042  -0.000003  -0.015089   5.418615   0.409792  -0.023944
    11  C    0.000036  -0.000107   0.000450   0.409792   5.102751   0.455800
    12  C    0.000005   0.000010  -0.000010  -0.023944   0.455800   4.916829
    13  C   -0.000087   0.000020  -0.000225  -0.048311   0.017301   0.489691
    14  N   -0.000359   0.000132  -0.000160  -0.030950  -0.077189  -0.040258
    15  C    0.000586  -0.000476   0.005737   0.352704   0.007777  -0.023367
    16  H    0.000003  -0.000024   0.000062   0.021365  -0.002738   0.000091
    17  H    0.000292  -0.000985   0.006935  -0.096733   0.013040  -0.001040
    18  H    0.000205  -0.000579   0.006623  -0.019301   0.001936  -0.000240
    19  H    0.000465  -0.000716   0.003016   0.019216   0.000173   0.000038
    20  H    0.011103  -0.004171   0.013907  -0.001011   0.001300   0.000576
    21  H   -0.055474   0.010263  -0.003020  -0.000012  -0.000004   0.000001
    22  H    0.440693  -0.054747   0.010622   0.000005   0.000000  -0.000000
    23  H   -0.054739   0.444843  -0.059836  -0.000003   0.000000  -0.000000
    24  H    0.011078  -0.050396   0.451907  -0.000464   0.000013  -0.000001
    25  H    0.000000  -0.000001   0.000061  -0.051940   0.431849  -0.048510
    26  H    0.000001  -0.000000   0.000001   0.014367  -0.067768   0.427226
    27  H    0.000003  -0.000001   0.000003   0.001035   0.001068  -0.065232
    28  H    0.001103  -0.000753   0.001387  -0.086179   0.005738  -0.000618
              13         14         15         16         17         18
     1  O    0.000198  -0.000235  -0.002417   0.297594  -0.032556   0.011683
     2  C   -0.001073   0.007251   0.008250  -0.041475   0.455378  -0.030083
     3  C   -0.000168   0.000389  -0.013190  -0.006193  -0.074688   0.397825
     4  C    0.000685   0.000466   0.003042   0.002896   0.006254  -0.029338
     5  C    0.000383  -0.001318  -0.012003   0.000059   0.004419   0.004823
     6  C    0.000772   0.001311  -0.000982  -0.000009  -0.000319   0.001029
     7  C   -0.000087  -0.000359   0.000586   0.000003   0.000292   0.000205
     8  C    0.000020   0.000132  -0.000476  -0.000024  -0.000985  -0.000579
     9  C   -0.000225  -0.000160   0.005737   0.000062   0.006935   0.006623
    10  C   -0.048311  -0.030950   0.352704   0.021365  -0.096733  -0.019301
    11  C    0.017301  -0.077189   0.007777  -0.002738   0.013040   0.001936
    12  C    0.489691  -0.040258  -0.023367   0.000091  -0.001040  -0.000240
    13  C    4.764617   0.507489  -0.101608  -0.000010   0.000102   0.000002
    14  N    0.507489   6.433108   0.504335   0.000038  -0.000044  -0.000116
    15  C   -0.101608   0.504335   4.912044  -0.000578   0.008840   0.003560
    16  H   -0.000010   0.000038  -0.000578   0.417162  -0.005133  -0.000862
    17  H    0.000102  -0.000044   0.008840  -0.005133   0.610417   0.006360
    18  H    0.000002  -0.000116   0.003560  -0.000862   0.006360   0.533391
    19  H   -0.000009   0.000019  -0.001236   0.006682  -0.005490  -0.022337
    20  H    0.000184  -0.000236  -0.001802   0.000014   0.000052   0.001320
    21  H    0.000040   0.000069  -0.000164   0.000000   0.000001  -0.000032
    22  H   -0.000001  -0.000005  -0.000001   0.000000   0.000002  -0.000000
    23  H    0.000000   0.000001  -0.000040   0.000000  -0.000013   0.000006
    24  H   -0.000001   0.000001   0.000082   0.000085   0.002531   0.000508
    25  H    0.004834  -0.002091   0.007285  -0.001060   0.001729   0.002552
    26  H   -0.038229   0.007875  -0.002948   0.000003  -0.000002  -0.000021
    27  H    0.431453  -0.028143   0.001520   0.000000  -0.000003  -0.000002
    28  H    0.005403  -0.023313   0.446182  -0.000014   0.001634  -0.000042
              19         20         21         22         23         24
     1  O   -0.002164   0.000150  -0.000000   0.000000  -0.000000   0.000023
     2  C   -0.066077  -0.004256   0.000020   0.000006   0.000003  -0.002797
     3  C    0.410565  -0.002494  -0.000319  -0.000014  -0.000059  -0.001943
     4  C   -0.032960  -0.068878   0.012895  -0.003120   0.013377  -0.075437
     5  C    0.000974   0.450885  -0.056397   0.010768  -0.003781   0.013020
     6  C   -0.001316  -0.051559   0.442689  -0.053665   0.010725  -0.004293
     7  C    0.000465   0.011103  -0.055474   0.440693  -0.054739   0.011078
     8  C   -0.000716  -0.004171   0.010263  -0.054747   0.444843  -0.050396
     9  C    0.003016   0.013907  -0.003020   0.010622  -0.059836   0.451907
    10  C    0.019216  -0.001011  -0.000012   0.000005  -0.000003  -0.000464
    11  C    0.000173   0.001300  -0.000004   0.000000   0.000000   0.000013
    12  C    0.000038   0.000576   0.000001  -0.000000  -0.000000  -0.000001
    13  C   -0.000009   0.000184   0.000040  -0.000001   0.000000  -0.000001
    14  N    0.000019  -0.000236   0.000069  -0.000005   0.000001   0.000001
    15  C   -0.001236  -0.001802  -0.000164  -0.000001  -0.000040   0.000082
    16  H    0.006682   0.000014   0.000000   0.000000   0.000000   0.000085
    17  H   -0.005490   0.000052   0.000001   0.000002  -0.000013   0.002531
    18  H   -0.022337   0.001320  -0.000032  -0.000000   0.000006   0.000508
    19  H    0.576384   0.000436   0.000008  -0.000000  -0.000047   0.001199
    20  H    0.000436   0.535659  -0.006980  -0.000112   0.000033  -0.000056
    21  H    0.000008  -0.006980   0.542588  -0.006890  -0.000128   0.000038
    22  H   -0.000000  -0.000112  -0.006890   0.541834  -0.006850  -0.000128
    23  H   -0.000047   0.000033  -0.000128  -0.006850   0.543547  -0.007368
    24  H    0.001199  -0.000056   0.000038  -0.000128  -0.007368   0.548256
    25  H   -0.000242   0.000026   0.000000   0.000000   0.000000   0.000002
    26  H    0.000000   0.000007  -0.000000   0.000000  -0.000000   0.000000
    27  H    0.000000   0.000006  -0.000000   0.000000  -0.000000   0.000000
    28  H   -0.000002   0.000145  -0.000020  -0.000002  -0.000008   0.000004
              25         26         27         28
     1  O    0.018469  -0.000124  -0.000002   0.000040
     2  C    0.001772  -0.000100   0.000080   0.004198
     3  C   -0.004194   0.000053   0.000008  -0.002537
     4  C    0.001100  -0.000033  -0.000014  -0.006948
     5  C   -0.000010   0.000000   0.000073   0.002455
     6  C    0.000021  -0.000011  -0.000036  -0.001455
     7  C    0.000000   0.000001   0.000003   0.001103
     8  C   -0.000001  -0.000000  -0.000001  -0.000753
     9  C    0.000061   0.000001   0.000003   0.001387
    10  C   -0.051940   0.014367   0.001035  -0.086179
    11  C    0.431849  -0.067768   0.001068   0.005738
    12  C   -0.048510   0.427226  -0.065232  -0.000618
    13  C    0.004834  -0.038229   0.431453   0.005403
    14  N   -0.002091   0.007875  -0.028143  -0.023313
    15  C    0.007285  -0.002948   0.001520   0.446182
    16  H   -0.001060   0.000003   0.000000  -0.000014
    17  H    0.001729  -0.000002  -0.000003   0.001634
    18  H    0.002552  -0.000021  -0.000002  -0.000042
    19  H   -0.000242   0.000000   0.000000  -0.000002
    20  H    0.000026   0.000007   0.000006   0.000145
    21  H    0.000000  -0.000000  -0.000000  -0.000020
    22  H    0.000000   0.000000   0.000000  -0.000002
    23  H    0.000000  -0.000000  -0.000000  -0.000008
    24  H    0.000002   0.000000   0.000000   0.000004
    25  H    0.493281  -0.006468  -0.000208  -0.000130
    26  H   -0.006468   0.541470  -0.001594   0.000078
    27  H   -0.000208  -0.001594   0.533787  -0.000162
    28  H   -0.000130   0.000078  -0.000162   0.511321
 Mulliken charges:
               1
     1  O   -0.455866
     2  C    0.109531
     3  C   -0.259049
     4  C    0.166127
     5  C   -0.205844
     6  C   -0.092713
     7  C   -0.130922
     8  C   -0.102924
     9  C   -0.255059
    10  C    0.136847
    11  C   -0.234190
    12  C   -0.088506
    13  C   -0.033449
    14  N   -0.258068
    15  C   -0.101132
    16  H    0.312039
    17  H    0.099018
    18  H    0.131132
    19  H    0.113423
    20  H    0.125752
    21  H    0.120829
    22  H    0.121606
    23  H    0.120337
    24  H    0.114136
    25  H    0.151872
    26  H    0.126217
    27  H    0.126360
    28  H    0.142495
 Sum of Mulliken charges =  -0.00000
 Mulliken charges with hydrogens summed into heavy atoms:
               1
     1  O   -0.143826
     2  C    0.208549
     3  C   -0.014493
     4  C    0.166127
     5  C   -0.080092
     6  C    0.028116
     7  C   -0.009316
     8  C    0.017412
     9  C   -0.140922
    10  C    0.136847
    11  C   -0.082318
    12  C    0.037710
    13  C    0.092911
    14  N   -0.258068
    15  C    0.041363
 Electronic spatial extent (au):  <R**2>=           3144.9954
 Charge=             -0.0000 electrons
 Dipole moment (field-independent basis, Debye):
    X=              0.9223    Y=              2.1261    Z=              1.1576  Tot=              2.5906
 Quadrupole moment (field-independent basis, Debye-Ang):
   XX=            -85.9747   YY=            -81.6867   ZZ=            -88.5705
   XY=              1.3109   XZ=             -8.1392   YZ=             -5.1918
 Traceless Quadrupole moment (field-independent basis, Debye-Ang):
   XX=             -0.5641   YY=              3.7239   ZZ=             -3.1598
   XY=              1.3109   XZ=             -8.1392   YZ=             -5.1918
 Octapole moment (field-independent basis, Debye-Ang**2):
  XXX=            -12.4595  YYY=             46.4211  ZZZ=              0.5711  XYY=              5.6369
  XXY=            -25.5720  XXZ=             -1.0718  XZZ=             -1.2558  YZZ=              9.0533
  YYZ=              9.9122  XYZ=             -1.1257
 Hexadecapole moment (field-independent basis, Debye-Ang**3):
 XXXX=          -2603.7895 YYYY=          -1059.8454 ZZZZ=           -395.9068 XXXY=             -0.7239
 XXXZ=           -128.8720 YYYX=            -20.0436 YYYZ=            -39.6375 ZZZX=            -18.4596
 ZZZY=            -13.0217 XXYY=           -616.5806 XXZZ=           -514.2238 YYZZ=           -281.4339
 XXYZ=            -14.7045 YYXZ=            -13.4200 ZZXY=            -13.2753
 N-N= 9.344872775206D+02 E-N=-3.341764152154D+03  KE= 6.298096157519D+02
 Breneman (CHELPG) radii used.
 Read replacement radii for each type of atom:
 Atom Element Radius
    1     8    1.70
    2     6    1.50
    3     6    1.50
    4     6    1.50
    5     6    1.50
    6     6    1.50
    7     6    1.50
    8     6    1.50
    9     6    1.50
   10     6    1.50
   11     6    1.50
   12     6    1.50
   13     6    1.50
   14     7    1.70
   15     6    1.50
   16     1    1.45
   17     1    1.45
   18     1    1.45
   19     1    1.45
   20     1    1.45
   21     1    1.45
   22     1    1.45
   23     1    1.45
   24     1    1.45
   25     1    1.45
   26     1    1.45
   27     1    1.45
   28     1    1.45
 Generate Potential Derived Charges using the Breneman model, NDens= 1.
 Grid spacing= 0.300 Box extension= 2.800
 NStep X,Y,Z=   48     41     32   Total possible points=       62976
 Number of Points to Fit=   16977

 **********************************************************************

            Electrostatic Properties Using The SCF Density.

 **********************************************************************

       Atomic Center    1 is at  -1.666972  2.701940 -0.162550
       Atomic Center    2 is at  -0.730102  1.678160 -0.388700
       Atomic Center    3 is at   0.417008  1.760560  0.644270
       Atomic Center    4 is at   1.483368  0.715491  0.446120
       Atomic Center    5 is at   1.451149 -0.487359  1.159580
       Atomic Center    6 is at   2.393679 -1.485049  0.920250
       Atomic Center    7 is at   3.385539 -1.294719 -0.040620
       Atomic Center    8 is at   3.430629 -0.099379 -0.756980
       Atomic Center    9 is at   2.486058  0.896071 -0.513330
       Atomic Center   10 is at  -1.452601  0.354070 -0.313940
       Atomic Center   11 is at  -2.557961  0.179009  0.518250
       Atomic Center   12 is at  -3.149881 -1.078431  0.594890
       Atomic Center   13 is at  -2.612881 -2.115201 -0.167090
       Atomic Center   14 is at  -1.564321 -1.960440 -0.972360
       Atomic Center   15 is at  -1.006381 -0.755640 -1.039860
       Atomic Center   16 is at  -1.200333  3.541420 -0.132100
       Atomic Center   17 is at  -0.284132  1.768290 -1.399350
       Atomic Center   18 is at  -0.029822  1.678370  1.647330
       Atomic Center   19 is at   0.866278  2.766280  0.568400
       Atomic Center   20 is at   0.665999 -0.648810  1.902780
       Atomic Center   21 is at   2.348970 -2.419499  1.483560
       Atomic Center   22 is at   4.123089 -2.077198 -0.231240
       Atomic Center   23 is at   4.206299  0.059522 -1.509440
       Atomic Center   24 is at   2.528198  1.831601 -1.079020
       Atomic Center   25 is at  -2.947162  1.028119  1.083200
       Atomic Center   26 is at  -4.018581 -1.254551  1.232140
       Atomic Center   27 is at  -3.055930 -3.116591 -0.128080
       Atomic Center   28 is at  -0.142591 -0.654880 -1.708280
   16977 points will be used for fitting atomic charges
 Fitting point charges to electrostatic potential
 Charges from ESP fit, RMS=   0.00381 RRMS=   0.26503:
 ESP charges:
               1
     1  O   -0.715022
     2  C    0.489278
     3  C   -0.136443
     4  C    0.099953
     5  C   -0.107379
     6  C   -0.080121
     7  C   -0.112287
     8  C   -0.060321
     9  C   -0.172859
    10  C   -0.203928
    11  C    0.143714
    12  C   -0.385323
    13  C    0.408161
    14  N   -0.631316
    15  C    0.376979
    16  H    0.425856
    17  H   -0.064268
    18  H    0.026992
    19  H    0.018502
    20  H    0.070928
    21  H    0.095166
    22  H    0.094392
    23  H    0.083811
    24  H    0.103781
    25  H    0.089873
    26  H    0.130663
    27  H    0.012672
    28  H   -0.001452
 Sum of ESP charges =   0.00000
 ESP charges with hydrogens summed into heavy atoms:
               1
     1  O   -0.289166
     2  C    0.425010
     3  C   -0.090949
     4  C    0.099953
     5  C   -0.036451
     6  C    0.015045
     7  C   -0.017895
     8  C    0.023490
     9  C   -0.069078
    10  C   -0.203928
    11  C    0.233587
    12  C   -0.254660
    13  C    0.420833
    14  N   -0.631316
    15  C    0.375527
 Charge=   0.00000 Dipole=     1.0299     2.1633     1.2011 Tot=     2.6802
 -----------------------------------------------------------------

              Electrostatic Properties (Atomic Units)

 -----------------------------------------------------------------
    Center     Electric         -------- Electric Field --------
               Potential          X             Y             Z
 -----------------------------------------------------------------
    1 Atom    -22.347091
    2 Atom    -14.698021
    3 Atom    -14.754742
    4 Atom    -14.755626
    5 Atom    -14.768446
    6 Atom    -14.767252
    7 Atom    -14.767647
    8 Atom    -14.765500
    9 Atom    -14.765810
   10 Atom    -14.759611
   11 Atom    -14.758250
   12 Atom    -14.765246
   13 Atom    -14.742370
   14 Atom    -18.406035
   15 Atom    -14.742287
   16 Atom     -0.992553
   17 Atom     -1.114063
   18 Atom     -1.109100
   19 Atom     -1.103755
   20 Atom     -1.106101
   21 Atom     -1.106645
   22 Atom     -1.105940
   23 Atom     -1.104117
   24 Atom     -1.100981
   25 Atom     -1.100366
   26 Atom     -1.098904
   27 Atom     -1.111466
   28 Atom     -1.111825
 -----------------------------------------------------------------
 Unable to Open any file for archive entry.
 1\1\GINC-NOTCH033\SP\RwB97XD\def2TZVP\C13H13N1O1\U6053008\12-Jul-2024\
 0\\#N Guess=Read Geom=Check Integral(Ultrafine) Density Pop=(ChelpG,Re
 adRadii) NMR wB97XD def2TZVP\\12365813_9\\0,1\O,0,-1.66697,2.70194,-0.
 16255\C,0,-0.7301,1.67816,-0.3887\C,0,0.41701,1.76056,0.64427\C,0,1.48
 337,0.71549,0.44612\C,0,1.45115,-0.48736,1.15958\C,0,2.39368,-1.48505,
 0.92025\C,0,3.38554,-1.29472,-0.04062\C,0,3.43063,-0.09938,-0.75698\C,
 0,2.48606,0.89607,-0.51333\C,0,-1.4526,0.35407,-0.31394\C,0,-2.55796,0
 .17901,0.51825\C,0,-3.14988,-1.07843,0.59489\C,0,-2.61288,-2.1152,-0.1
 6709\N,0,-1.56432,-1.96044,-0.97236\C,0,-1.00638,-0.75564,-1.03986\H,0
 ,-1.20033,3.54142,-0.1321\H,0,-0.28413,1.76829,-1.39935\H,0,-0.02982,1
 .67837,1.64733\H,0,0.86628,2.76628,0.5684\H,0,0.666,-0.64881,1.90278\H
 ,0,2.34897,-2.4195,1.48356\H,0,4.12309,-2.0772,-0.23124\H,0,4.2063,0.0
 5952,-1.50944\H,0,2.5282,1.8316,-1.07902\H,0,-2.94716,1.02812,1.0832\H
 ,0,-4.01858,-1.25455,1.23214\H,0,-3.05593,-3.11659,-0.12808\H,0,-0.142
 59,-0.65488,-1.70828\\Version=ES64L-G16RevC.01\State=1-A\HF=-633.19611
 67\RMSD=3.043e-09\Dipole=0.3628653,0.8364907,0.4554351\Quadrupole=-0.4
 193925,2.7686589,-2.3492664,0.9746095,-6.0512901,-3.8599785\PG=C01 [X(
 C13H13N1O1)]\\@
 The archive entry for this job was punched.


 The cat could very well be man's best friend
 but would never stoop to admitting it.
                               -- Doug Larson
 Job cpu time:       0 days  1 hours 27 minutes 55.2 seconds.
 Elapsed time:       0 days  0 hours  5 minutes 48.2 seconds.
 File lengths (MBytes):  RWF=    183 Int=      0 D2E=      0 Chk=     27 Scr=      2
 Normal termination of Gaussian 16 at Fri Jul 12 13:39:03 2024.
