 Entering Gaussian System, Link 0=g16
 Input=12387732_2.com
 Output=12387732_2.log
 Initial command:
 /uufs/chpc.utah.edu/sys/installdir/gaussian16/C01/AVX/g16/l1.exe "/scratch/general/vast/u6053008/1287192-notchpeak.peaks/Gau-3972822.inp" -scrdir="/scratch/general/vast/u6053008/1287192-notchpeak.peaks/"
 Entering Link 1 = /uufs/chpc.utah.edu/sys/installdir/gaussian16/C01/AVX/g16/l1.exe PID=   3972823.
  
 Copyright (c) 1988-2019, Gaussian, Inc.  All Rights Reserved.
  
 This is part of the Gaussian(R) 16 program.  It is based on
 the Gaussian(R) 09 system (copyright 2009, Gaussian, Inc.),
 the Gaussian(R) 03 system (copyright 2003, Gaussian, Inc.),
 the Gaussian(R) 98 system (copyright 1998, Gaussian, Inc.),
 the Gaussian(R) 94 system (copyright 1995, Gaussian, Inc.),
 the Gaussian 92(TM) system (copyright 1992, Gaussian, Inc.),
 the Gaussian 90(TM) system (copyright 1990, Gaussian, Inc.),
 the Gaussian 88(TM) system (copyright 1988, Gaussian, Inc.),
 the Gaussian 86(TM) system (copyright 1986, Carnegie Mellon
 University), and the Gaussian 82(TM) system (copyright 1983,
 Carnegie Mellon University). Gaussian is a federally registered
 trademark of Gaussian, Inc.
  
 This software contains proprietary and confidential information,
 including trade secrets, belonging to Gaussian, Inc.
  
 This software is provided under written license and may be
 used, copied, transmitted, or stored only in accord with that
 written license.
  
 The following legend is applicable only to US Government
 contracts under FAR:
  
                    RESTRICTED RIGHTS LEGEND
  
 Use, reproduction and disclosure by the US Government is
 subject to restrictions as set forth in subparagraphs (a)
 and (c) of the Commercial Computer Software - Restricted
 Rights clause in FAR 52.227-19.
  
 Gaussian, Inc.
 340 Quinnipiac St., Bldg. 40, Wallingford CT 06492
  
  
 ---------------------------------------------------------------
 Warning -- This program may not be used in any manner that
 competes with the business of Gaussian, Inc. or will provide
 assistance to any competitor of Gaussian, Inc.  The licensee
 of this program is prohibited from giving any competitor of
 Gaussian, Inc. access to this program.  By using this program,
 the user acknowledges that Gaussian, Inc. is engaged in the
 business of creating and licensing software in the field of
 computational chemistry and represents and warrants to the
 licensee that it is not a competitor of Gaussian, Inc. and that
 it will not use this program in any manner prohibited above.
 ---------------------------------------------------------------
  

 Cite this work as:
 Gaussian 16, Revision C.01,
 M. J. Frisch, G. W. Trucks, H. B. Schlegel, G. E. Scuseria, 
 M. A. Robb, J. R. Cheeseman, G. Scalmani, V. Barone, 
 G. A. Petersson, H. Nakatsuji, X. Li, M. Caricato, A. V. Marenich, 
 J. Bloino, B. G. Janesko, R. Gomperts, B. Mennucci, H. P. Hratchian, 
 J. V. Ortiz, A. F. Izmaylov, J. L. Sonnenberg, D. Williams-Young, 
 F. Ding, F. Lipparini, F. Egidi, J. Goings, B. Peng, A. Petrone, 
 T. Henderson, D. Ranasinghe, V. G. Zakrzewski, J. Gao, N. Rega, 
 G. Zheng, W. Liang, M. Hada, M. Ehara, K. Toyota, R. Fukuda, 
 J. Hasegawa, M. Ishida, T. Nakajima, Y. Honda, O. Kitao, H. Nakai, 
 T. Vreven, K. Throssell, J. A. Montgomery, Jr., J. E. Peralta, 
 F. Ogliaro, M. J. Bearpark, J. J. Heyd, E. N. Brothers, K. N. Kudin, 
 V. N. Staroverov, T. A. Keith, R. Kobayashi, J. Normand, 
 K. Raghavachari, A. P. Rendell, J. C. Burant, S. S. Iyengar, 
 J. Tomasi, M. Cossi, J. M. Millam, M. Klene, C. Adamo, R. Cammi, 
 J. W. Ochterski, R. L. Martin, K. Morokuma, O. Farkas, 
 J. B. Foresman, and D. J. Fox, Gaussian, Inc., Wallingford CT, 2019.
 
 ******************************************
 Gaussian 16:  ES64L-G16RevC.01  3-Jul-2019
                12-Jul-2024 
 ******************************************
 %NProcShared=16
 Will use up to   16 processors via shared memory.
 %Mem=32GB
 %chk=12387732_2.chk
 ------------------------------------------------------
 #N OPT FREQ=NORAMAN Integral(Ultrafine) wB97XD def2SVP
 ------------------------------------------------------
 1/18=20,19=15,26=4,38=1/1,3;
 2/9=110,12=2,17=6,18=5,40=1/2;
 3/5=43,7=101,11=2,25=1,30=1,71=1,74=-58,75=-5/1,2,3;
 4//1;
 5/5=2,38=5/2;
 6/7=2,8=2,9=2,10=2,28=1/1;
 7//1,2,3,16;
 1/18=20,19=15,26=4/3(2);
 2/9=110/2;
 99//99;
 2/9=110/2;
 3/5=43,7=101,11=2,25=1,30=1,71=1,74=-58,75=-5/1,2,3;
 4/5=5,16=3,69=1/1;
 5/5=2,38=5/2;
 7//1,2,3,16;
 1/18=20,19=15,26=4/3(-5);
 2/9=110/2;
 6/7=2,8=2,9=2,10=2,19=2,28=1/1;
 99/9=1/99;
 ----------
 12387732_2
 ----------
 Symbolic Z-matrix:
 Charge =  0 Multiplicity = 1
 C                    -3.7538   -0.35489   0.00026 
 O                    -2.44018   0.17561   0.00019 
 C                    -1.44837  -0.70893  -0.00011 
 O                    -1.62864  -1.90277  -0.0004 
 C                    -0.08732  -0.0945   -0.00002 
 C                     0.99374  -0.97552   0.00003 
 C                     2.31263  -0.51874   0.00008 
 C                     3.48457  -1.46186   0.00012 
 C                     2.47289   0.86704   0.00004 
 N                     1.4644    1.73367  -0.00004 
 C                     0.21677   1.28629  -0.00006 
 O                    -0.73985   2.21397  -0.00014 
 H                    -4.42953   0.50731   0.00207 
 H                    -3.92693  -0.97303  -0.89261 
 H                    -3.92571  -0.97595   0.89132 
 H                     0.76606  -2.04459   0.00004 
 H                     3.47226  -2.11339  -0.887 
 H                     3.47186  -2.11387   0.88688 
 H                     4.43691  -0.91312   0.00047 
 H                     3.47947   1.30193   0.00007 
 H                    -0.27239   3.06119  -0.0002 
 

 GradGradGradGradGradGradGradGradGradGradGradGradGradGradGradGradGradGrad
 Berny optimization.
 Initialization pass.
                           ----------------------------
                           !    Initial Parameters    !
                           ! (Angstroms and Degrees)  !
 --------------------------                            --------------------------
 ! Name  Definition              Value          Derivative Info.                !
 --------------------------------------------------------------------------------
 ! R1    R(1,2)                  1.4167         estimate D2E/DX2                !
 ! R2    R(1,13)                 1.0954         estimate D2E/DX2                !
 ! R3    R(1,14)                 1.0997         estimate D2E/DX2                !
 ! R4    R(1,15)                 1.0997         estimate D2E/DX2                !
 ! R5    R(2,3)                  1.3289         estimate D2E/DX2                !
 ! R6    R(3,4)                  1.2074         estimate D2E/DX2                !
 ! R7    R(3,5)                  1.4933         estimate D2E/DX2                !
 ! R8    R(5,6)                  1.3946         estimate D2E/DX2                !
 ! R9    R(5,11)                 1.4139         estimate D2E/DX2                !
 ! R10   R(6,7)                  1.3958         estimate D2E/DX2                !
 ! R11   R(6,16)                 1.093          estimate D2E/DX2                !
 ! R12   R(7,8)                  1.5043         estimate D2E/DX2                !
 ! R13   R(7,9)                  1.395          estimate D2E/DX2                !
 ! R14   R(8,17)                 1.1007         estimate D2E/DX2                !
 ! R15   R(8,18)                 1.1007         estimate D2E/DX2                !
 ! R16   R(8,19)                 1.0991         estimate D2E/DX2                !
 ! R17   R(9,10)                 1.3297         estimate D2E/DX2                !
 ! R18   R(9,20)                 1.0965         estimate D2E/DX2                !
 ! R19   R(10,11)                1.3254         estimate D2E/DX2                !
 ! R20   R(11,12)                1.3326         estimate D2E/DX2                !
 ! R21   R(12,21)                0.9676         estimate D2E/DX2                !
 ! A1    A(2,1,13)             106.0956         estimate D2E/DX2                !
 ! A2    A(2,1,14)             110.8812         estimate D2E/DX2                !
 ! A3    A(2,1,15)             110.8843         estimate D2E/DX2                !
 ! A4    A(13,1,14)            110.2826         estimate D2E/DX2                !
 ! A5    A(13,1,15)            110.2886         estimate D2E/DX2                !
 ! A6    A(14,1,15)            108.4115         estimate D2E/DX2                !
 ! A7    A(1,2,3)              116.2809         estimate D2E/DX2                !
 ! A8    A(2,3,4)              123.1412         estimate D2E/DX2                !
 ! A9    A(2,3,5)              113.9758         estimate D2E/DX2                !
 ! A10   A(4,3,5)              122.883          estimate D2E/DX2                !
 ! A11   A(3,5,6)              116.5251         estimate D2E/DX2                !
 ! A12   A(3,5,11)             126.7162         estimate D2E/DX2                !
 ! A13   A(6,5,11)             116.7587         estimate D2E/DX2                !
 ! A14   A(5,6,7)              121.7185         estimate D2E/DX2                !
 ! A15   A(5,6,16)             117.156          estimate D2E/DX2                !
 ! A16   A(7,6,16)             121.1255         estimate D2E/DX2                !
 ! A17   A(6,7,8)              122.0717         estimate D2E/DX2                !
 ! A18   A(6,7,9)              115.6996         estimate D2E/DX2                !
 ! A19   A(8,7,9)              122.2287         estimate D2E/DX2                !
 ! A20   A(7,8,17)             111.2451         estimate D2E/DX2                !
 ! A21   A(7,8,18)             111.2472         estimate D2E/DX2                !
 ! A22   A(7,8,19)             111.224          estimate D2E/DX2                !
 ! A23   A(17,8,18)            107.3691         estimate D2E/DX2                !
 ! A24   A(17,8,19)            107.7856         estimate D2E/DX2                !
 ! A25   A(18,8,19)            107.7868         estimate D2E/DX2                !
 ! A26   A(7,9,10)             124.0769         estimate D2E/DX2                !
 ! A27   A(7,9,20)             119.9633         estimate D2E/DX2                !
 ! A28   A(10,9,20)            115.9598         estimate D2E/DX2                !
 ! A29   A(9,10,11)            119.5994         estimate D2E/DX2                !
 ! A30   A(5,11,10)            122.1469         estimate D2E/DX2                !
 ! A31   A(5,11,12)            121.7002         estimate D2E/DX2                !
 ! A32   A(10,11,12)           116.1529         estimate D2E/DX2                !
 ! A33   A(11,12,21)           105.232          estimate D2E/DX2                !
 ! D1    D(13,1,2,3)           179.9153         estimate D2E/DX2                !
 ! D2    D(14,1,2,3)           -60.3335         estimate D2E/DX2                !
 ! D3    D(15,1,2,3)            60.1552         estimate D2E/DX2                !
 ! D4    D(1,2,3,4)              0.0048         estimate D2E/DX2                !
 ! D5    D(1,2,3,5)           -179.9937         estimate D2E/DX2                !
 ! D6    D(2,3,5,6)            179.9837         estimate D2E/DX2                !
 ! D7    D(2,3,5,11)            -0.0203         estimate D2E/DX2                !
 ! D8    D(4,3,5,6)             -0.0147         estimate D2E/DX2                !
 ! D9    D(4,3,5,11)           179.9812         estimate D2E/DX2                !
 ! D10   D(3,5,6,7)            179.9983         estimate D2E/DX2                !
 ! D11   D(3,5,6,16)            -0.0024         estimate D2E/DX2                !
 ! D12   D(11,5,6,7)             0.0019         estimate D2E/DX2                !
 ! D13   D(11,5,6,16)         -179.9988         estimate D2E/DX2                !
 ! D14   D(3,5,11,10)         -179.9965         estimate D2E/DX2                !
 ! D15   D(3,5,11,12)            0.0025         estimate D2E/DX2                !
 ! D16   D(6,5,11,10)           -0.0006         estimate D2E/DX2                !
 ! D17   D(6,5,11,12)          179.9984         estimate D2E/DX2                !
 ! D18   D(5,6,7,8)           -179.9994         estimate D2E/DX2                !
 ! D19   D(5,6,7,9)             -0.0017         estimate D2E/DX2                !
 ! D20   D(16,6,7,8)             0.0013         estimate D2E/DX2                !
 ! D21   D(16,6,7,9)           179.999          estimate D2E/DX2                !
 ! D22   D(6,7,8,17)            59.8479         estimate D2E/DX2                !
 ! D23   D(6,7,8,18)           -59.81           estimate D2E/DX2                !
 ! D24   D(6,7,8,19)          -179.9825         estimate D2E/DX2                !
 ! D25   D(9,7,8,17)          -120.1496         estimate D2E/DX2                !
 ! D26   D(9,7,8,18)           120.1924         estimate D2E/DX2                !
 ! D27   D(9,7,8,19)             0.02           estimate D2E/DX2                !
 ! D28   D(6,7,9,10)             0.0            estimate D2E/DX2                !
 ! D29   D(6,7,9,20)          -179.9997         estimate D2E/DX2                !
 ! D30   D(8,7,9,10)           179.9977         estimate D2E/DX2                !
 ! D31   D(8,7,9,20)            -0.002          estimate D2E/DX2                !
 ! D32   D(7,9,10,11)            0.0013         estimate D2E/DX2                !
 ! D33   D(20,9,10,11)        -179.999          estimate D2E/DX2                !
 ! D34   D(9,10,11,5)           -0.001          estimate D2E/DX2                !
 ! D35   D(9,10,11,12)         179.9999         estimate D2E/DX2                !
 ! D36   D(5,11,12,21)        -179.997          estimate D2E/DX2                !
 ! D37   D(10,11,12,21)          0.002          estimate D2E/DX2                !
 --------------------------------------------------------------------------------
 Trust Radius=3.00D-01 FncErr=1.00D-07 GrdErr=1.00D-06 EigMax=2.50D+02 EigMin=1.00D-04
 Number of steps in this run=    101 maximum allowed number of steps=    126.
 GradGradGradGradGradGradGradGradGradGradGradGradGradGradGradGradGradGrad

                          Input orientation:                          
 ---------------------------------------------------------------------
 Center     Atomic      Atomic             Coordinates (Angstroms)
 Number     Number       Type             X           Y           Z
 ---------------------------------------------------------------------
      1          6           0       -3.753800   -0.354890    0.000260
      2          8           0       -2.440180    0.175610    0.000190
      3          6           0       -1.448370   -0.708930   -0.000110
      4          8           0       -1.628640   -1.902770   -0.000400
      5          6           0       -0.087320   -0.094500   -0.000020
      6          6           0        0.993740   -0.975520    0.000030
      7          6           0        2.312630   -0.518740    0.000080
      8          6           0        3.484570   -1.461860    0.000120
      9          6           0        2.472890    0.867040    0.000040
     10          7           0        1.464400    1.733670   -0.000040
     11          6           0        0.216770    1.286290   -0.000060
     12          8           0       -0.739850    2.213970   -0.000140
     13          1           0       -4.429530    0.507310    0.002070
     14          1           0       -3.926930   -0.973030   -0.892610
     15          1           0       -3.925710   -0.975950    0.891320
     16          1           0        0.766060   -2.044590    0.000040
     17          1           0        3.472260   -2.113390   -0.887000
     18          1           0        3.471860   -2.113870    0.886880
     19          1           0        4.436910   -0.913120    0.000470
     20          1           0        3.479470    1.301930    0.000070
     21          1           0       -0.272390    3.061190   -0.000200
 ---------------------------------------------------------------------
                    Distance matrix (angstroms):
                    1          2          3          4          5
     1  C    0.000000
     2  O    1.416696   0.000000
     3  C    2.332456   1.328946   0.000000
     4  O    2.629114   2.231202   1.207374   0.000000
     5  C    3.675715   2.368314   1.493312   2.376028   0.000000
     6  C    4.787935   3.621727   2.456618   2.781487   1.394592
     7  C    6.068642   4.803262   3.765806   4.177218   2.437158
     8  C    7.322526   6.146867   4.990070   5.132185   3.824666
     9  C    6.345454   4.961485   4.226105   4.949181   2.734819
    10  N    5.620649   4.203962   3.801384   4.773949   2.397924
    11  C    4.296382   2.879756   2.598768   3.684514   1.413878
    12  O    3.960169   2.654437   3.007548   4.211591   2.398922
    13  H    1.095447   2.016815   3.219714   3.695061   4.383716
    14  H    1.099676   2.080118   2.647558   2.634880   4.038705
    15  H    1.099662   2.080145   2.646349   2.632620   4.037905
    16  H    4.825373   3.899906   2.586056   2.398896   2.128640
    17  H    7.489693   6.401841   5.193427   5.181660   4.187274
    18  H    7.489344   6.401574   5.193195   5.181402   4.187148
    19  H    8.209711   6.962737   5.888821   6.145755   4.597695
    20  H    7.420596   6.025849   5.322327   6.030165   3.830406
    21  H    4.877481   3.609139   3.949270   5.145903   3.161112
                    6          7          8          9         10
     6  C    0.000000
     7  C    1.395750   0.000000
     8  C    2.537865   1.504300   0.000000
     9  C    2.362819   1.395016   2.539148   0.000000
    10  N    2.749769   2.406833   3.780542   1.329699   0.000000
    11  C    2.391541   2.766001   4.269759   2.294744   1.325417
    12  O    3.630176   4.096991   5.599772   3.483665   2.255971
    13  H    5.622335   6.819788   8.155404   6.911788   6.020164
    14  H    5.000980   6.319445   7.481060   6.718659   6.098307
    15  H    4.999539   6.318246   7.479478   6.718115   6.098348
    16  H    1.093046   2.172578   2.780265   3.375035   3.842256
    17  H    2.867862   2.162073   1.100738   3.266274   4.429229
    18  H    2.867651   2.162098   1.100737   3.266535   4.429457
    19  H    3.443735   2.160579   1.099121   2.650725   3.980115
    20  H    3.371295   2.162488   2.763795   1.096509   2.060802
    21  H    4.230616   4.415680   5.879858   3.514379   2.186035
                   11         12         13         14         15
    11  C    0.000000
    12  O    1.332558   0.000000
    13  H    4.711148   4.065271   0.000000
    14  H    4.803272   4.594665   1.801240   0.000000
    15  H    4.803377   4.595650   1.801294   1.783933   0.000000
    16  H    3.375867   4.516979   5.788467   4.895837   4.893779
    17  H    4.789854   6.103641   8.372383   7.486552   7.693254
    18  H    4.789923   6.103729   8.371705   7.694816   7.484579
    19  H    4.758885   6.047937   8.979498   8.411599   8.410171
    20  H    3.262737   4.316767   7.948818   7.799172   7.798702
    21  H    1.841072   0.967626   4.878947   5.516066   5.517251
                   16         17         18         19         20
    16  H    0.000000
    17  H    2.848700   0.000000
    18  H    2.848269   1.773880   0.000000
    19  H    3.841271   1.777302   1.777314   0.000000
    20  H    4.308340   3.528648   3.529048   2.413118   0.000000
    21  H    5.210314   6.448651   6.448842   6.162195   4.143845
                   21
    21  H    0.000000
 Stoichiometry    C8H9NO3
 Framework group  C1[X(C8H9NO3)]
 Deg. of freedom    57
 Full point group                 C1      NOp   1
 Largest Abelian subgroup         C1      NOp   1
 Largest concise Abelian subgroup C1      NOp   1
                         Standard orientation:                         
 ---------------------------------------------------------------------
 Center     Atomic      Atomic             Coordinates (Angstroms)
 Number     Number       Type             X           Y           Z
 ---------------------------------------------------------------------
      1          6           0        3.753801   -0.354892   -0.000260
      2          8           0        2.440181    0.175609   -0.000190
      3          6           0        1.448371   -0.708931    0.000110
      4          8           0        1.628640   -1.902771    0.000400
      5          6           0        0.087321   -0.094500    0.000020
      6          6           0       -0.993739   -0.975519   -0.000030
      7          6           0       -2.312629   -0.518739   -0.000080
      8          6           0       -3.484570   -1.461858   -0.000120
      9          6           0       -2.472888    0.867041   -0.000040
     10          7           0       -1.464398    1.733671    0.000040
     11          6           0       -0.216768    1.286290    0.000060
     12          8           0        0.739852    2.213970    0.000140
     13          1           0        4.429531    0.507308   -0.002070
     14          1           0        3.926931   -0.973032    0.892610
     15          1           0        3.925711   -0.975952   -0.891320
     16          1           0       -0.766060   -2.044590   -0.000040
     17          1           0       -3.472260   -2.113388    0.887000
     18          1           0       -3.471860   -2.113868   -0.886880
     19          1           0       -4.436909   -0.913118   -0.000470
     20          1           0       -3.479468    1.301932   -0.000070
     21          1           0        0.272393    3.061190    0.000200
 ---------------------------------------------------------------------
 Rotational constants (GHZ):           1.7675362           0.6498091           0.4779997
 Standard basis: def2SVP (5D, 7F)
 There are   225 symmetry adapted cartesian basis functions of A   symmetry.
 There are   213 symmetry adapted basis functions of A   symmetry.
   213 basis functions,   363 primitive gaussians,   225 cartesian basis functions
    44 alpha electrons       44 beta electrons
       nuclear repulsion energy       690.6387012741 Hartrees.
 NAtoms=   21 NActive=   21 NUniq=   21 SFac= 1.00D+00 NAtFMM=   60 NAOKFM=F Big=F
 Integral buffers will be    131072 words long.
 Raffenetti 2 integral format.
 Two-electron integral symmetry is turned on.
 Nuclear repulsion after empirical dispersion term =      690.6287706675 Hartrees.
 One-electron integrals computed using PRISM.
   1 Symmetry operations used in ECPInt.
 ECPInt:  NShTT=    4950 NPrTT=   18138 LenC2=    4717 LenP2D=   12850.
 LDataN:  DoStor=T MaxTD1= 4 Len=   56
 NBasis=   213 RedAO= T EigKep=  5.79D-04  NBF=   213
 NBsUse=   213 1.00D-06 EigRej= -1.00D+00 NBFU=   213
 ExpMin= 1.22D-01 ExpMax= 2.27D+03 ExpMxC= 3.41D+02 IAcc=3 IRadAn=         5 AccDes= 0.00D+00
 Harris functional with IExCor= 4639 and IRadAn=       5 diagonalized for initial guess.
 HarFok:  IExCor= 4639 AccDes= 0.00D+00 IRadAn=         5 IDoV= 1 UseB2=F ITyADJ=14
 ICtDFT=  3500011 ScaDFX=  1.000000  1.000000  1.000000  1.000000
 FoFCou: FMM=F IPFlag=           0 FMFlag=      100000 FMFlg1=           0
         NFxFlg=           0 DoJE=T BraDBF=F KetDBF=T FulRan=T
         wScrn=  0.000000 ICntrl=       500 IOpCl=  0 I1Cent=   200000004 NGrid=           0
         NMat0=    1 NMatS0=      1 NMatT0=    0 NMatD0=    1 NMtDS0=    0 NMtDT0=    0
 Petite list used in FoFCou.
 Requested convergence on RMS density matrix=1.00D-08 within 128 cycles.
 Requested convergence on MAX density matrix=1.00D-06.
 Requested convergence on             energy=1.00D-06.
 No special actions if energy rises.
 Integral accuracy reduced to 1.0D-05 until final iterations.
 Initial convergence to 1.0D-05 achieved.  Increase integral accuracy.
 SCF Done:  E(RwB97XD) =  -590.092081748     A.U. after   16 cycles
            NFock= 16  Conv=0.56D-08     -V/T= 2.0094

 **********************************************************************

            Population analysis using the SCF Density.

 **********************************************************************

 Orbital symmetries:
       Occupied  (A) (A) (A) (A) (A) (A) (A) (A) (A) (A) (A) (A)
                 (A) (A) (A) (A) (A) (A) (A) (A) (A) (A) (A) (A)
                 (A) (A) (A) (A) (A) (A) (A) (A) (A) (A) (A) (A)
                 (A) (A) (A) (A) (A) (A) (A) (A)
       Virtual   (A) (A) (A) (A) (A) (A) (A) (A) (A) (A) (A) (A)
                 (A) (A) (A) (A) (A) (A) (A) (A) (A) (A) (A) (A)
                 (A) (A) (A) (A) (A) (A) (A) (A) (A) (A) (A) (A)
                 (A) (A) (A) (A) (A) (A) (A) (A) (A) (A) (A) (A)
                 (A) (A) (A) (A) (A) (A) (A) (A) (A) (A) (A) (A)
                 (A) (A) (A) (A) (A) (A) (A) (A) (A) (A) (A) (A)
                 (A) (A) (A) (A) (A) (A) (A) (A) (A) (A) (A) (A)
                 (A) (A) (A) (A) (A) (A) (A) (A) (A) (A) (A) (A)
                 (A) (A) (A) (A) (A) (A) (A) (A) (A) (A) (A) (A)
                 (A) (A) (A) (A) (A) (A) (A) (A) (A) (A) (A) (A)
                 (A) (A) (A) (A) (A) (A) (A) (A) (A) (A) (A) (A)
                 (A) (A) (A) (A) (A) (A) (A) (A) (A) (A) (A) (A)
                 (A) (A) (A) (A) (A) (A) (A) (A) (A) (A) (A) (A)
                 (A) (A) (A) (A) (A) (A) (A) (A) (A) (A) (A) (A)
                 (A)
 The electronic state is 1-A.
 Alpha  occ. eigenvalues --  -19.30088 -19.29456 -19.23946 -14.44628 -10.42920
 Alpha  occ. eigenvalues --  -10.40557 -10.35252 -10.34721 -10.32549 -10.32142
 Alpha  occ. eigenvalues --  -10.31591 -10.30776  -1.20633  -1.17980  -1.10713
 Alpha  occ. eigenvalues --   -1.04155  -0.92041  -0.88685  -0.82591  -0.79262
 Alpha  occ. eigenvalues --   -0.74638  -0.72375  -0.66160  -0.65263  -0.63032
 Alpha  occ. eigenvalues --   -0.59365  -0.58036  -0.55908  -0.54551  -0.54156
 Alpha  occ. eigenvalues --   -0.51279  -0.51006  -0.50715  -0.48490  -0.48320
 Alpha  occ. eigenvalues --   -0.47464  -0.46051  -0.43891  -0.43150  -0.38760
 Alpha  occ. eigenvalues --   -0.37503  -0.37138  -0.35268  -0.31493
 Alpha virt. eigenvalues --    0.01272   0.05661   0.12622   0.14687   0.15542
 Alpha virt. eigenvalues --    0.16251   0.18151   0.19367   0.20739   0.21130
 Alpha virt. eigenvalues --    0.22037   0.22538   0.22750   0.26658   0.27563
 Alpha virt. eigenvalues --    0.30273   0.31667   0.33276   0.35096   0.36415
 Alpha virt. eigenvalues --    0.38545   0.39863   0.44275   0.46942   0.48439
 Alpha virt. eigenvalues --    0.49393   0.50897   0.51344   0.52363   0.52767
 Alpha virt. eigenvalues --    0.54786   0.55078   0.58503   0.59598   0.61152
 Alpha virt. eigenvalues --    0.64031   0.64107   0.65939   0.66680   0.67657
 Alpha virt. eigenvalues --    0.69139   0.70461   0.72084   0.72525   0.73062
 Alpha virt. eigenvalues --    0.73871   0.74245   0.75003   0.75624   0.76140
 Alpha virt. eigenvalues --    0.77138   0.77363   0.78973   0.79817   0.80931
 Alpha virt. eigenvalues --    0.82098   0.85867   0.87351   0.90492   0.90622
 Alpha virt. eigenvalues --    0.93955   0.94618   0.98658   1.02250   1.06998
 Alpha virt. eigenvalues --    1.08580   1.09322   1.09646   1.10423   1.14588
 Alpha virt. eigenvalues --    1.17559   1.21862   1.21964   1.28020   1.30334
 Alpha virt. eigenvalues --    1.32036   1.33387   1.34862   1.35672   1.36671
 Alpha virt. eigenvalues --    1.40596   1.41025   1.44522   1.44953   1.51264
 Alpha virt. eigenvalues --    1.53026   1.53062   1.56283   1.59665   1.61145
 Alpha virt. eigenvalues --    1.62578   1.66184   1.66347   1.67612   1.68245
 Alpha virt. eigenvalues --    1.75404   1.77287   1.79790   1.80736   1.81490
 Alpha virt. eigenvalues --    1.81698   1.85288   1.85841   1.85957   1.88047
 Alpha virt. eigenvalues --    1.88350   1.89947   1.90581   1.93326   1.94392
 Alpha virt. eigenvalues --    1.98119   1.98203   2.02112   2.03089   2.04705
 Alpha virt. eigenvalues --    2.05829   2.09023   2.11940   2.15851   2.19836
 Alpha virt. eigenvalues --    2.21701   2.22508   2.27268   2.28469   2.31442
 Alpha virt. eigenvalues --    2.32266   2.36128   2.37646   2.39373   2.42177
 Alpha virt. eigenvalues --    2.42812   2.47982   2.48981   2.49871   2.54617
 Alpha virt. eigenvalues --    2.58726   2.60352   2.64432   2.67655   2.72577
 Alpha virt. eigenvalues --    2.72906   2.74719   2.79547   2.80760   2.81479
 Alpha virt. eigenvalues --    2.86659   2.88422   2.88786   2.98029   2.98792
 Alpha virt. eigenvalues --    2.99522   3.00906   3.04071   3.04089   3.06766
 Alpha virt. eigenvalues --    3.08524   3.08665   3.14935   3.17464   3.27483
 Alpha virt. eigenvalues --    3.28702   3.31505   3.41778   3.48206   3.56944
 Alpha virt. eigenvalues --    3.63741   3.75839   3.78804   3.92930
          Condensed to atoms (all electrons):
               1          2          3          4          5          6
     1  C    4.407793   0.268083  -0.033212   0.002345   0.011823  -0.000299
     2  O    0.268083   7.897640   0.436944  -0.084331  -0.144525   0.003358
     3  C   -0.033212   0.436944   4.560847   0.739814   0.098929  -0.055982
     4  O    0.002345  -0.084331   0.739814   7.690748  -0.145437   0.011067
     5  C    0.011823  -0.144525   0.098929  -0.145437   5.892307   0.478280
     6  C   -0.000299   0.003358  -0.055982   0.011067   0.478280   4.891407
     7  C    0.000001   0.000033   0.020877   0.002013   0.004962   0.365311
     8  C   -0.000000  -0.000000  -0.000167  -0.000026   0.009380  -0.073945
     9  C    0.000000   0.000005  -0.000914  -0.000014  -0.062625  -0.013266
    10  N    0.000003   0.000042   0.005711  -0.000009  -0.095385  -0.038472
    11  C   -0.000287   0.007811  -0.031982   0.001966   0.269142  -0.051226
    12  O    0.000019  -0.006881   0.006527  -0.000000  -0.112021   0.000490
    13  H    0.398937  -0.022793   0.004494   0.000742   0.000326   0.000013
    14  H    0.405665  -0.026480  -0.004874   0.007066   0.000272   0.000002
    15  H    0.405629  -0.026479  -0.004900   0.007134   0.000275   0.000002
    16  H   -0.000065   0.000773  -0.018112   0.020041  -0.047933   0.436311
    17  H    0.000000  -0.000000  -0.000008  -0.000003   0.000479  -0.006502
    18  H    0.000000  -0.000000  -0.000008  -0.000003   0.000480  -0.006505
    19  H    0.000000  -0.000000   0.000006  -0.000000  -0.000477   0.009500
    20  H    0.000000  -0.000000   0.000068  -0.000000   0.001144   0.006811
    21  H   -0.000004   0.000263  -0.000840   0.000005   0.017054   0.000063
               7          8          9         10         11         12
     1  C    0.000001  -0.000000   0.000000   0.000003  -0.000287   0.000019
     2  O    0.000033  -0.000000   0.000005   0.000042   0.007811  -0.006881
     3  C    0.020877  -0.000167  -0.000914   0.005711  -0.031982   0.006527
     4  O    0.002013  -0.000026  -0.000014  -0.000009   0.001966  -0.000000
     5  C    0.004962   0.009380  -0.062625  -0.095385   0.269142  -0.112021
     6  C    0.365311  -0.073945  -0.013266  -0.038472  -0.051226   0.000490
     7  C    5.204047   0.386096   0.465758  -0.046427  -0.068349   0.000609
     8  C    0.386096   4.542126  -0.056441   0.005310   0.001532   0.000007
     9  C    0.465758  -0.056441   4.720421   0.520887  -0.040579   0.001128
    10  N   -0.046427   0.005310   0.520887   6.400800   0.545062  -0.089248
    11  C   -0.068349   0.001532  -0.040579   0.545062   4.738925   0.478775
    12  O    0.000609   0.000007   0.001128  -0.089248   0.478775   7.571423
    13  H   -0.000001   0.000000   0.000000  -0.000000  -0.000139   0.000198
    14  H   -0.000000   0.000000   0.000000   0.000000   0.000029  -0.000020
    15  H   -0.000000   0.000000   0.000000   0.000000   0.000029  -0.000020
    16  H   -0.061279  -0.009159   0.009348  -0.000130   0.011967  -0.000052
    17  H   -0.016006   0.390885   0.001394  -0.000133  -0.000016  -0.000000
    18  H   -0.016008   0.390887   0.001402  -0.000134  -0.000017  -0.000000
    19  H   -0.021210   0.390536  -0.007584   0.000233   0.000038  -0.000000
    20  H   -0.062282  -0.007521   0.419344  -0.033750   0.003715  -0.000060
    21  H    0.000202  -0.000010   0.001252   0.007133  -0.016396   0.316277
              13         14         15         16         17         18
     1  C    0.398937   0.405665   0.405629  -0.000065   0.000000   0.000000
     2  O   -0.022793  -0.026480  -0.026479   0.000773  -0.000000  -0.000000
     3  C    0.004494  -0.004874  -0.004900  -0.018112  -0.000008  -0.000008
     4  O    0.000742   0.007066   0.007134   0.020041  -0.000003  -0.000003
     5  C    0.000326   0.000272   0.000275  -0.047933   0.000479   0.000480
     6  C    0.000013   0.000002   0.000002   0.436311  -0.006502  -0.006505
     7  C   -0.000001  -0.000000  -0.000000  -0.061279  -0.016006  -0.016008
     8  C    0.000000   0.000000   0.000000  -0.009159   0.390885   0.390887
     9  C    0.000000   0.000000   0.000000   0.009348   0.001394   0.001402
    10  N   -0.000000   0.000000   0.000000  -0.000130  -0.000133  -0.000134
    11  C   -0.000139   0.000029   0.000029   0.011967  -0.000016  -0.000017
    12  O    0.000198  -0.000020  -0.000020  -0.000052  -0.000000  -0.000000
    13  H    0.609625  -0.023657  -0.023641  -0.000001   0.000000   0.000000
    14  H   -0.023657   0.621208  -0.030452  -0.000007  -0.000000   0.000000
    15  H   -0.023641  -0.030452   0.621155  -0.000007   0.000000  -0.000000
    16  H   -0.000001  -0.000007  -0.000007   0.616084   0.001680   0.001682
    17  H    0.000000  -0.000000   0.000000   0.001680   0.611610  -0.020307
    18  H    0.000000   0.000000  -0.000000   0.001682  -0.020307   0.611618
    19  H   -0.000000  -0.000000  -0.000000  -0.000017  -0.019853  -0.019856
    20  H    0.000000  -0.000000  -0.000000  -0.000240   0.000040   0.000040
    21  H   -0.000013   0.000001   0.000001   0.000018   0.000000   0.000000
              19         20         21
     1  C    0.000000   0.000000  -0.000004
     2  O   -0.000000  -0.000000   0.000263
     3  C    0.000006   0.000068  -0.000840
     4  O   -0.000000  -0.000000   0.000005
     5  C   -0.000477   0.001144   0.017054
     6  C    0.009500   0.006811   0.000063
     7  C   -0.021210  -0.062282   0.000202
     8  C    0.390536  -0.007521  -0.000010
     9  C   -0.007584   0.419344   0.001252
    10  N    0.000233  -0.033750   0.007133
    11  C    0.000038   0.003715  -0.016396
    12  O   -0.000000  -0.000060   0.316277
    13  H   -0.000000   0.000000  -0.000013
    14  H   -0.000000  -0.000000   0.000001
    15  H   -0.000000  -0.000000   0.000001
    16  H   -0.000017  -0.000240   0.000018
    17  H   -0.019853   0.000040   0.000000
    18  H   -0.019856   0.000040   0.000000
    19  H    0.626111   0.006222  -0.000000
    20  H    0.006222   0.638859  -0.000320
    21  H   -0.000000  -0.000320   0.485502
 Mulliken charges:
               1
     1  C    0.133568
     2  O   -0.303465
     3  C    0.276779
     4  O   -0.253117
     5  C   -0.176449
     6  C    0.043585
     7  C   -0.158347
     8  C    0.030511
     9  C    0.040483
    10  N   -0.181493
    11  C    0.149999
    12  O   -0.167149
    13  H    0.055910
    14  H    0.051247
    15  H    0.051274
    16  H    0.039099
    17  H    0.056742
    18  H    0.056730
    19  H    0.036352
    20  H    0.027931
    21  H    0.189810
 Sum of Mulliken charges =  -0.00000
 Mulliken charges with hydrogens summed into heavy atoms:
               1
     1  C    0.291999
     2  O   -0.303465
     3  C    0.276779
     4  O   -0.253117
     5  C   -0.176449
     6  C    0.082684
     7  C   -0.158347
     8  C    0.180335
     9  C    0.068414
    10  N   -0.181493
    11  C    0.149999
    12  O    0.022660
 Electronic spatial extent (au):  <R**2>=           2282.1578
 Charge=             -0.0000 electrons
 Dipole moment (field-independent basis, Debye):
    X=             -0.7506    Y=              0.6667    Z=             -0.0006  Tot=              1.0039
 Quadrupole moment (field-independent basis, Debye-Ang):
   XX=            -55.7955   YY=            -69.8270   ZZ=            -69.2820
   XY=              4.4994   XZ=             -0.0017   YZ=              0.0022
 Traceless Quadrupole moment (field-independent basis, Debye-Ang):
   XX=              9.1727   YY=             -4.8588   ZZ=             -4.3139
   XY=              4.4994   XZ=             -0.0017   YZ=              0.0022
 Octapole moment (field-independent basis, Debye-Ang**2):
  XXX=             41.0343  YYY=             32.2900  ZZZ=              0.0048  XYY=             -2.3625
  XXY=             -6.0180  XXZ=             -0.0063  XZZ=             11.0210  YZZ=             -0.3177
  YYZ=             -0.0048  XYZ=              0.0025
 Hexadecapole moment (field-independent basis, Debye-Ang**3):
 XXXX=          -1822.7461 YYYY=           -675.5085 ZZZZ=            -78.8771 XXXY=            -14.6048
 XXXZ=             -0.0209 YYYX=             49.9188 YYYZ=              0.0198 ZZZX=              0.0088
 ZZZY=             -0.0029 XXYY=           -494.4209 XXZZ=           -367.3371 YYZZ=           -134.7932
 XXYZ=             -0.0062 YYXZ=             -0.0158 ZZXY=             -1.8029
 N-N= 6.906287706675D+02 E-N=-2.757972260705D+03  KE= 5.846229265850D+02
   1 Symmetry operations used in ECPInt.
 ECPInt:  NShTT=    4950 NPrTT=   18138 LenC2=    4717 LenP2D=   12850.
 LDataN:  DoStor=T MaxTD1= 5 Len=  102
 Calling FoFJK, ICntrl=      2127 FMM=F ISym2X=0 I1Cent= 0 IOpClX= 0 NMat=1 NMatS=1 NMatT=0.
 ***** Axes restored to original set *****
 -------------------------------------------------------------------
 Center     Atomic                   Forces (Hartrees/Bohr)
 Number     Number              X              Y              Z
 -------------------------------------------------------------------
      1        6          -0.000001175    0.000007555   -0.000005767
      2        8          -0.000005140   -0.000004452    0.000007882
      3        6           0.000003972    0.000007839   -0.000004480
      4        8          -0.000002827   -0.000005865    0.000000839
      5        6           0.000004262    0.000007629   -0.000002769
      6        6          -0.000005196   -0.000002340    0.000001244
      7        6           0.000009388   -0.000005264    0.000000711
      8        6          -0.000010711    0.000011208   -0.000001884
      9        6          -0.000005976    0.000003786   -0.000000251
     10        7          -0.000000560   -0.000008550    0.000001214
     11        6           0.000002582   -0.000000771    0.000000543
     12        8          -0.000003837    0.000001156   -0.000000912
     13        1           0.000002573   -0.000005114   -0.000001083
     14        1           0.000001846   -0.000001384    0.000002773
     15        1          -0.000001079    0.000002234    0.000001335
     16        1          -0.000000651   -0.000002304   -0.000000607
     17        1           0.000002021   -0.000004300    0.000002089
     18        1           0.000000968   -0.000002097   -0.000002062
     19        1           0.000004290   -0.000000535    0.000000587
     20        1           0.000004042    0.000002465    0.000000024
     21        1           0.000001207   -0.000000898    0.000000574
 -------------------------------------------------------------------
 Cartesian Forces:  Max     0.000011208 RMS     0.000004197

 GradGradGradGradGradGradGradGradGradGradGradGradGradGradGradGradGradGrad
 Berny optimization.
 FormGI is forming the generalized inverse of G from B-inverse, IUseBI=4.
 Internal  Forces:  Max     0.000006331 RMS     0.000002376
 Search for a local minimum.
 Step number   1 out of a maximum of  101
 All quantities printed in internal units (Hartrees-Bohrs-Radians)
 Mixed Optimization -- En-DIIS/RFO-DIIS
 Second derivative matrix not updated -- first step.
 ITU=  0
     Eigenvalues ---    0.00709   0.00854   0.01449   0.01471   0.01531
     Eigenvalues ---    0.01654   0.02046   0.02152   0.02167   0.02242
     Eigenvalues ---    0.02308   0.02526   0.02584   0.02632   0.07146
     Eigenvalues ---    0.07167   0.10220   0.10644   0.16000   0.16000
     Eigenvalues ---    0.16000   0.16000   0.16000   0.16000   0.16000
     Eigenvalues ---    0.16000   0.16000   0.23281   0.23476   0.25000
     Eigenvalues ---    0.25000   0.25000   0.25000   0.25000   0.25000
     Eigenvalues ---    0.25000   0.31930   0.33089   0.33601   0.33601
     Eigenvalues ---    0.33718   0.33720   0.33779   0.34071   0.34191
     Eigenvalues ---    0.34463   0.41296   0.42962   0.44180   0.45185
     Eigenvalues ---    0.46446   0.53865   0.57476   0.58905   0.59328
     Eigenvalues ---    0.59755   1.01204
 RFO step:  Lambda= 0.00000000D+00 EMin= 7.09065848D-03
 Linear search not attempted -- first point.
 Iteration  1 RMS(Cart)=  0.00014740 RMS(Int)=  0.00000003
 Iteration  2 RMS(Cart)=  0.00000003 RMS(Int)=  0.00000000
 Variable       Old X    -DE/DX   Delta X   Delta X   Delta X     New X
                                 (Linear)    (Quad)   (Total)
    R1        2.67717  -0.00000   0.00000  -0.00001  -0.00001   2.67716
    R2        2.07009  -0.00001   0.00000  -0.00002  -0.00002   2.07008
    R3        2.07809  -0.00000   0.00000  -0.00001  -0.00001   2.07808
    R4        2.07806   0.00000   0.00000   0.00000   0.00000   2.07806
    R5        2.51134   0.00000   0.00000   0.00000   0.00000   2.51135
    R6        2.28161   0.00001   0.00000   0.00001   0.00001   2.28161
    R7        2.82195   0.00000   0.00000   0.00000   0.00000   2.82196
    R8        2.63540   0.00000   0.00000   0.00001   0.00001   2.63540
    R9        2.67184  -0.00001   0.00000  -0.00001  -0.00001   2.67183
   R10        2.63759   0.00001   0.00000   0.00001   0.00001   2.63760
   R11        2.06556   0.00000   0.00000   0.00001   0.00001   2.06556
   R12        2.84272  -0.00001   0.00000  -0.00002  -0.00002   2.84270
   R13        2.63620   0.00000   0.00000   0.00000   0.00000   2.63620
   R14        2.08009   0.00000   0.00000   0.00000   0.00000   2.08010
   R15        2.08009  -0.00000   0.00000  -0.00000  -0.00000   2.08009
   R16        2.07704   0.00000   0.00000   0.00001   0.00001   2.07705
   R17        2.51277  -0.00000   0.00000  -0.00001  -0.00001   2.51276
   R18        2.07210   0.00000   0.00000   0.00001   0.00001   2.07212
   R19        2.50467  -0.00000   0.00000  -0.00001  -0.00001   2.50467
   R20        2.51817   0.00000   0.00000   0.00000   0.00000   2.51817
   R21        1.82855  -0.00000   0.00000  -0.00000  -0.00000   1.82855
    A1        1.85172   0.00000   0.00000   0.00001   0.00001   1.85173
    A2        1.93524  -0.00000   0.00000  -0.00001  -0.00001   1.93524
    A3        1.93530  -0.00000   0.00000  -0.00000  -0.00000   1.93529
    A4        1.92479   0.00000   0.00000   0.00001   0.00001   1.92480
    A5        1.92490  -0.00000   0.00000  -0.00001  -0.00001   1.92489
    A6        1.89214  -0.00000   0.00000  -0.00000  -0.00000   1.89213
    A7        2.02948   0.00000   0.00000   0.00001   0.00001   2.02949
    A8        2.14922  -0.00000   0.00000  -0.00001  -0.00001   2.14921
    A9        1.98925   0.00000   0.00000   0.00001   0.00001   1.98926
   A10        2.14471   0.00000   0.00000   0.00000   0.00000   2.14472
   A11        2.03375  -0.00000   0.00000  -0.00000  -0.00000   2.03374
   A12        2.21161  -0.00000   0.00000  -0.00001  -0.00001   2.21161
   A13        2.03782   0.00000   0.00000   0.00001   0.00001   2.03783
   A14        2.12439  -0.00000   0.00000  -0.00001  -0.00001   2.12438
   A15        2.04476   0.00000   0.00000   0.00000   0.00000   2.04476
   A16        2.11404   0.00000   0.00000   0.00000   0.00000   2.11404
   A17        2.13055   0.00000   0.00000   0.00001   0.00001   2.13056
   A18        2.01934  -0.00000   0.00000  -0.00001  -0.00001   2.01933
   A19        2.13329  -0.00000   0.00000  -0.00000  -0.00000   2.13329
   A20        1.94159   0.00000   0.00000   0.00003   0.00003   1.94162
   A21        1.94163   0.00000   0.00000   0.00000   0.00000   1.94163
   A22        1.94122   0.00000   0.00000   0.00002   0.00002   1.94125
   A23        1.87394  -0.00001   0.00000  -0.00004  -0.00004   1.87390
   A24        1.88121  -0.00000   0.00000  -0.00000  -0.00000   1.88121
   A25        1.88123  -0.00000   0.00000  -0.00001  -0.00001   1.88122
   A26        2.16555  -0.00000   0.00000  -0.00000  -0.00000   2.16555
   A27        2.09376   0.00000   0.00000   0.00001   0.00001   2.09376
   A28        2.02388  -0.00000   0.00000  -0.00000  -0.00000   2.02388
   A29        2.08740   0.00000   0.00000   0.00001   0.00001   2.08742
   A30        2.13187  -0.00000   0.00000  -0.00001  -0.00001   2.13186
   A31        2.12407  -0.00000   0.00000   0.00000   0.00000   2.12407
   A32        2.02725   0.00000   0.00000   0.00001   0.00001   2.02726
   A33        1.83665  -0.00000   0.00000  -0.00002  -0.00002   1.83663
    D1        3.14011   0.00000   0.00000   0.00030   0.00030   3.14042
    D2       -1.05302   0.00001   0.00000   0.00032   0.00032  -1.05270
    D3        1.04991   0.00000   0.00000   0.00031   0.00031   1.05021
    D4        0.00008  -0.00000   0.00000   0.00000   0.00000   0.00008
    D5       -3.14148  -0.00000   0.00000  -0.00002  -0.00002  -3.14150
    D6        3.14131   0.00000   0.00000   0.00009   0.00009   3.14140
    D7       -0.00035   0.00000   0.00000   0.00013   0.00013  -0.00022
    D8       -0.00026   0.00000   0.00000   0.00007   0.00007  -0.00018
    D9        3.14127   0.00000   0.00000   0.00012   0.00012   3.14138
   D10        3.14156   0.00000   0.00000   0.00002   0.00002   3.14158
   D11       -0.00004   0.00000   0.00000   0.00004   0.00004  -0.00000
   D12        0.00003  -0.00000   0.00000  -0.00002  -0.00002   0.00001
   D13       -3.14157   0.00000   0.00000   0.00000   0.00000  -3.14157
   D14       -3.14153  -0.00000   0.00000  -0.00004  -0.00004  -3.14158
   D15        0.00004  -0.00000   0.00000  -0.00003  -0.00003   0.00001
   D16       -0.00001  -0.00000   0.00000  -0.00000  -0.00000  -0.00001
   D17        3.14157   0.00000   0.00000   0.00001   0.00001   3.14158
   D18       -3.14158   0.00000   0.00000   0.00001   0.00001  -3.14157
   D19       -0.00003   0.00000   0.00000   0.00002   0.00002  -0.00001
   D20        0.00002  -0.00000   0.00000  -0.00001  -0.00001   0.00001
   D21        3.14158  -0.00000   0.00000   0.00000   0.00000   3.14158
   D22        1.04454  -0.00000   0.00000  -0.00003  -0.00003   1.04451
   D23       -1.04388   0.00000   0.00000   0.00000   0.00000  -1.04388
   D24       -3.14129   0.00000   0.00000   0.00000   0.00000  -3.14129
   D25       -2.09701  -0.00000   0.00000  -0.00004  -0.00004  -2.09705
   D26        2.09775   0.00000   0.00000  -0.00001  -0.00001   2.09774
   D27        0.00035   0.00000   0.00000  -0.00001  -0.00001   0.00034
   D28        0.00000  -0.00000   0.00000  -0.00001  -0.00001  -0.00000
   D29       -3.14159  -0.00000   0.00000  -0.00001  -0.00001   3.14159
   D30        3.14155   0.00000   0.00000   0.00001   0.00001   3.14156
   D31       -0.00003  -0.00000   0.00000  -0.00000  -0.00000  -0.00004
   D32        0.00002  -0.00000   0.00000  -0.00001  -0.00001   0.00001
   D33       -3.14157  -0.00000   0.00000  -0.00001  -0.00001  -3.14158
   D34       -0.00002   0.00000   0.00000   0.00002   0.00002  -0.00000
   D35        3.14159   0.00000   0.00000   0.00001   0.00001  -3.14159
   D36       -3.14154  -0.00000   0.00000  -0.00003  -0.00003  -3.14157
   D37        0.00004  -0.00000   0.00000  -0.00001  -0.00001   0.00002
         Item               Value     Threshold  Converged?
 Maximum Force            0.000006     0.000450     YES
 RMS     Force            0.000002     0.000300     YES
 Maximum Displacement     0.000825     0.001800     YES
 RMS     Displacement     0.000147     0.001200     YES
 Predicted change in Energy=-3.166872D-09
 Optimization completed.
    -- Stationary point found.
                           ----------------------------
                           !   Optimized Parameters   !
                           ! (Angstroms and Degrees)  !
 --------------------------                            --------------------------
 ! Name  Definition              Value          Derivative Info.                !
 --------------------------------------------------------------------------------
 ! R1    R(1,2)                  1.4167         -DE/DX =    0.0                 !
 ! R2    R(1,13)                 1.0954         -DE/DX =    0.0                 !
 ! R3    R(1,14)                 1.0997         -DE/DX =    0.0                 !
 ! R4    R(1,15)                 1.0997         -DE/DX =    0.0                 !
 ! R5    R(2,3)                  1.3289         -DE/DX =    0.0                 !
 ! R6    R(3,4)                  1.2074         -DE/DX =    0.0                 !
 ! R7    R(3,5)                  1.4933         -DE/DX =    0.0                 !
 ! R8    R(5,6)                  1.3946         -DE/DX =    0.0                 !
 ! R9    R(5,11)                 1.4139         -DE/DX =    0.0                 !
 ! R10   R(6,7)                  1.3958         -DE/DX =    0.0                 !
 ! R11   R(6,16)                 1.093          -DE/DX =    0.0                 !
 ! R12   R(7,8)                  1.5043         -DE/DX =    0.0                 !
 ! R13   R(7,9)                  1.395          -DE/DX =    0.0                 !
 ! R14   R(8,17)                 1.1007         -DE/DX =    0.0                 !
 ! R15   R(8,18)                 1.1007         -DE/DX =    0.0                 !
 ! R16   R(8,19)                 1.0991         -DE/DX =    0.0                 !
 ! R17   R(9,10)                 1.3297         -DE/DX =    0.0                 !
 ! R18   R(9,20)                 1.0965         -DE/DX =    0.0                 !
 ! R19   R(10,11)                1.3254         -DE/DX =    0.0                 !
 ! R20   R(11,12)                1.3326         -DE/DX =    0.0                 !
 ! R21   R(12,21)                0.9676         -DE/DX =    0.0                 !
 ! A1    A(2,1,13)             106.0956         -DE/DX =    0.0                 !
 ! A2    A(2,1,14)             110.8812         -DE/DX =    0.0                 !
 ! A3    A(2,1,15)             110.8843         -DE/DX =    0.0                 !
 ! A4    A(13,1,14)            110.2826         -DE/DX =    0.0                 !
 ! A5    A(13,1,15)            110.2886         -DE/DX =    0.0                 !
 ! A6    A(14,1,15)            108.4115         -DE/DX =    0.0                 !
 ! A7    A(1,2,3)              116.2809         -DE/DX =    0.0                 !
 ! A8    A(2,3,4)              123.1412         -DE/DX =    0.0                 !
 ! A9    A(2,3,5)              113.9758         -DE/DX =    0.0                 !
 ! A10   A(4,3,5)              122.883          -DE/DX =    0.0                 !
 ! A11   A(3,5,6)              116.5251         -DE/DX =    0.0                 !
 ! A12   A(3,5,11)             126.7162         -DE/DX =    0.0                 !
 ! A13   A(6,5,11)             116.7587         -DE/DX =    0.0                 !
 ! A14   A(5,6,7)              121.7185         -DE/DX =    0.0                 !
 ! A15   A(5,6,16)             117.156          -DE/DX =    0.0                 !
 ! A16   A(7,6,16)             121.1255         -DE/DX =    0.0                 !
 ! A17   A(6,7,8)              122.0717         -DE/DX =    0.0                 !
 ! A18   A(6,7,9)              115.6996         -DE/DX =    0.0                 !
 ! A19   A(8,7,9)              122.2287         -DE/DX =    0.0                 !
 ! A20   A(7,8,17)             111.2451         -DE/DX =    0.0                 !
 ! A21   A(7,8,18)             111.2472         -DE/DX =    0.0                 !
 ! A22   A(7,8,19)             111.224          -DE/DX =    0.0                 !
 ! A23   A(17,8,18)            107.3691         -DE/DX =    0.0                 !
 ! A24   A(17,8,19)            107.7856         -DE/DX =    0.0                 !
 ! A25   A(18,8,19)            107.7868         -DE/DX =    0.0                 !
 ! A26   A(7,9,10)             124.0769         -DE/DX =    0.0                 !
 ! A27   A(7,9,20)             119.9633         -DE/DX =    0.0                 !
 ! A28   A(10,9,20)            115.9598         -DE/DX =    0.0                 !
 ! A29   A(9,10,11)            119.5994         -DE/DX =    0.0                 !
 ! A30   A(5,11,10)            122.1469         -DE/DX =    0.0                 !
 ! A31   A(5,11,12)            121.7002         -DE/DX =    0.0                 !
 ! A32   A(10,11,12)           116.1529         -DE/DX =    0.0                 !
 ! A33   A(11,12,21)           105.232          -DE/DX =    0.0                 !
 ! D1    D(13,1,2,3)           179.9153         -DE/DX =    0.0                 !
 ! D2    D(14,1,2,3)           -60.3335         -DE/DX =    0.0                 !
 ! D3    D(15,1,2,3)            60.1552         -DE/DX =    0.0                 !
 ! D4    D(1,2,3,4)              0.0048         -DE/DX =    0.0                 !
 ! D5    D(1,2,3,5)           -179.9937         -DE/DX =    0.0                 !
 ! D6    D(2,3,5,6)            179.9837         -DE/DX =    0.0                 !
 ! D7    D(2,3,5,11)            -0.0203         -DE/DX =    0.0                 !
 ! D8    D(4,3,5,6)             -0.0147         -DE/DX =    0.0                 !
 ! D9    D(4,3,5,11)           179.9812         -DE/DX =    0.0                 !
 ! D10   D(3,5,6,7)            179.9983         -DE/DX =    0.0                 !
 ! D11   D(3,5,6,16)            -0.0024         -DE/DX =    0.0                 !
 ! D12   D(11,5,6,7)             0.0019         -DE/DX =    0.0                 !
 ! D13   D(11,5,6,16)         -179.9988         -DE/DX =    0.0                 !
 ! D14   D(3,5,11,10)         -179.9965         -DE/DX =    0.0                 !
 ! D15   D(3,5,11,12)            0.0025         -DE/DX =    0.0                 !
 ! D16   D(6,5,11,10)           -0.0006         -DE/DX =    0.0                 !
 ! D17   D(6,5,11,12)          179.9984         -DE/DX =    0.0                 !
 ! D18   D(5,6,7,8)           -179.9994         -DE/DX =    0.0                 !
 ! D19   D(5,6,7,9)             -0.0017         -DE/DX =    0.0                 !
 ! D20   D(16,6,7,8)             0.0013         -DE/DX =    0.0                 !
 ! D21   D(16,6,7,9)           179.999          -DE/DX =    0.0                 !
 ! D22   D(6,7,8,17)            59.8479         -DE/DX =    0.0                 !
 ! D23   D(6,7,8,18)           -59.81           -DE/DX =    0.0                 !
 ! D24   D(6,7,8,19)          -179.9825         -DE/DX =    0.0                 !
 ! D25   D(9,7,8,17)          -120.1496         -DE/DX =    0.0                 !
 ! D26   D(9,7,8,18)           120.1924         -DE/DX =    0.0                 !
 ! D27   D(9,7,8,19)             0.02           -DE/DX =    0.0                 !
 ! D28   D(6,7,9,10)             0.0            -DE/DX =    0.0                 !
 ! D29   D(6,7,9,20)           180.0003         -DE/DX =    0.0                 !
 ! D30   D(8,7,9,10)           179.9977         -DE/DX =    0.0                 !
 ! D31   D(8,7,9,20)            -0.002          -DE/DX =    0.0                 !
 ! D32   D(7,9,10,11)            0.0013         -DE/DX =    0.0                 !
 ! D33   D(20,9,10,11)        -179.999          -DE/DX =    0.0                 !
 ! D34   D(9,10,11,5)           -0.001          -DE/DX =    0.0                 !
 ! D35   D(9,10,11,12)        -180.0001         -DE/DX =    0.0                 !
 ! D36   D(5,11,12,21)        -179.997          -DE/DX =    0.0                 !
 ! D37   D(10,11,12,21)          0.002          -DE/DX =    0.0                 !
 --------------------------------------------------------------------------------
 GradGradGradGradGradGradGradGradGradGradGradGradGradGradGradGradGradGrad

                          Input orientation:                          
 ---------------------------------------------------------------------
 Center     Atomic      Atomic             Coordinates (Angstroms)
 Number     Number       Type             X           Y           Z
 ---------------------------------------------------------------------
      1          6           0       -3.753800   -0.354890    0.000260
      2          8           0       -2.440180    0.175610    0.000190
      3          6           0       -1.448370   -0.708930   -0.000110
      4          8           0       -1.628640   -1.902770   -0.000400
      5          6           0       -0.087320   -0.094500   -0.000020
      6          6           0        0.993740   -0.975520    0.000030
      7          6           0        2.312630   -0.518740    0.000080
      8          6           0        3.484570   -1.461860    0.000120
      9          6           0        2.472890    0.867040    0.000040
     10          7           0        1.464400    1.733670   -0.000040
     11          6           0        0.216770    1.286290   -0.000060
     12          8           0       -0.739850    2.213970   -0.000140
     13          1           0       -4.429530    0.507310    0.002070
     14          1           0       -3.926930   -0.973030   -0.892610
     15          1           0       -3.925710   -0.975950    0.891320
     16          1           0        0.766060   -2.044590    0.000040
     17          1           0        3.472260   -2.113390   -0.887000
     18          1           0        3.471860   -2.113870    0.886880
     19          1           0        4.436910   -0.913120    0.000470
     20          1           0        3.479470    1.301930    0.000070
     21          1           0       -0.272390    3.061190   -0.000200
 ---------------------------------------------------------------------
                    Distance matrix (angstroms):
                    1          2          3          4          5
     1  C    0.000000
     2  O    1.416696   0.000000
     3  C    2.332456   1.328946   0.000000
     4  O    2.629114   2.231202   1.207374   0.000000
     5  C    3.675715   2.368314   1.493312   2.376028   0.000000
     6  C    4.787935   3.621727   2.456618   2.781487   1.394592
     7  C    6.068642   4.803262   3.765806   4.177218   2.437158
     8  C    7.322526   6.146867   4.990070   5.132185   3.824666
     9  C    6.345454   4.961485   4.226105   4.949181   2.734819
    10  N    5.620649   4.203962   3.801384   4.773949   2.397924
    11  C    4.296382   2.879756   2.598768   3.684514   1.413878
    12  O    3.960169   2.654437   3.007548   4.211591   2.398922
    13  H    1.095447   2.016815   3.219714   3.695061   4.383716
    14  H    1.099676   2.080118   2.647558   2.634880   4.038705
    15  H    1.099662   2.080145   2.646349   2.632620   4.037905
    16  H    4.825373   3.899906   2.586056   2.398896   2.128640
    17  H    7.489693   6.401841   5.193427   5.181660   4.187274
    18  H    7.489344   6.401574   5.193195   5.181402   4.187148
    19  H    8.209711   6.962737   5.888821   6.145755   4.597695
    20  H    7.420596   6.025849   5.322327   6.030165   3.830406
    21  H    4.877481   3.609139   3.949270   5.145903   3.161112
                    6          7          8          9         10
     6  C    0.000000
     7  C    1.395750   0.000000
     8  C    2.537865   1.504300   0.000000
     9  C    2.362819   1.395016   2.539148   0.000000
    10  N    2.749769   2.406833   3.780542   1.329699   0.000000
    11  C    2.391541   2.766001   4.269759   2.294744   1.325417
    12  O    3.630176   4.096991   5.599772   3.483665   2.255971
    13  H    5.622335   6.819788   8.155404   6.911788   6.020164
    14  H    5.000980   6.319445   7.481060   6.718659   6.098307
    15  H    4.999539   6.318246   7.479478   6.718115   6.098348
    16  H    1.093046   2.172578   2.780265   3.375035   3.842256
    17  H    2.867862   2.162073   1.100738   3.266274   4.429229
    18  H    2.867651   2.162098   1.100737   3.266535   4.429457
    19  H    3.443735   2.160579   1.099121   2.650725   3.980115
    20  H    3.371295   2.162488   2.763795   1.096509   2.060802
    21  H    4.230616   4.415680   5.879858   3.514379   2.186035
                   11         12         13         14         15
    11  C    0.000000
    12  O    1.332558   0.000000
    13  H    4.711148   4.065271   0.000000
    14  H    4.803272   4.594665   1.801240   0.000000
    15  H    4.803377   4.595650   1.801294   1.783933   0.000000
    16  H    3.375867   4.516979   5.788467   4.895837   4.893779
    17  H    4.789854   6.103641   8.372383   7.486552   7.693254
    18  H    4.789923   6.103729   8.371705   7.694816   7.484579
    19  H    4.758885   6.047937   8.979498   8.411599   8.410171
    20  H    3.262737   4.316767   7.948818   7.799172   7.798702
    21  H    1.841072   0.967626   4.878947   5.516066   5.517251
                   16         17         18         19         20
    16  H    0.000000
    17  H    2.848700   0.000000
    18  H    2.848269   1.773880   0.000000
    19  H    3.841271   1.777302   1.777314   0.000000
    20  H    4.308340   3.528648   3.529048   2.413118   0.000000
    21  H    5.210314   6.448651   6.448842   6.162195   4.143845
                   21
    21  H    0.000000
 Stoichiometry    C8H9NO3
 Framework group  C1[X(C8H9NO3)]
 Deg. of freedom    57
 Full point group                 C1      NOp   1
 Largest Abelian subgroup         C1      NOp   1
 Largest concise Abelian subgroup C1      NOp   1
                         Standard orientation:                         
 ---------------------------------------------------------------------
 Center     Atomic      Atomic             Coordinates (Angstroms)
 Number     Number       Type             X           Y           Z
 ---------------------------------------------------------------------
      1          6           0        3.753801   -0.354892   -0.000260
      2          8           0        2.440181    0.175609   -0.000190
      3          6           0        1.448371   -0.708931    0.000110
      4          8           0        1.628640   -1.902771    0.000400
      5          6           0        0.087321   -0.094500    0.000020
      6          6           0       -0.993739   -0.975519   -0.000030
      7          6           0       -2.312629   -0.518739   -0.000080
      8          6           0       -3.484570   -1.461858   -0.000120
      9          6           0       -2.472888    0.867041   -0.000040
     10          7           0       -1.464398    1.733671    0.000040
     11          6           0       -0.216768    1.286290    0.000060
     12          8           0        0.739852    2.213970    0.000140
     13          1           0        4.429531    0.507308   -0.002070
     14          1           0        3.926931   -0.973032    0.892610
     15          1           0        3.925711   -0.975952   -0.891320
     16          1           0       -0.766060   -2.044590   -0.000040
     17          1           0       -3.472260   -2.113388    0.887000
     18          1           0       -3.471860   -2.113868   -0.886880
     19          1           0       -4.436909   -0.913118   -0.000470
     20          1           0       -3.479468    1.301932   -0.000070
     21          1           0        0.272393    3.061190    0.000200
 ---------------------------------------------------------------------
 Rotational constants (GHZ):           1.7675362           0.6498091           0.4779997
 Unable to Open any file for archive entry.
 1\1\GINC-NOTCH346\FOpt\RwB97XD\def2SVP\C8H9N1O3\U6053008\12-Jul-2024\0
 \\#N OPT FREQ=NORAMAN Integral(Ultrafine) wB97XD def2SVP\\12387732_2\\
 0,1\C,-3.7538,-0.35489,0.00026\O,-2.44018,0.17561,0.00019\C,-1.44837,-
 0.70893,-0.00011\O,-1.62864,-1.90277,-0.0004\C,-0.08732,-0.0945,-0.000
 02\C,0.99374,-0.97552,0.00003\C,2.31263,-0.51874,0.00008\C,3.48457,-1.
 46186,0.00012\C,2.47289,0.86704,0.00004\N,1.4644,1.73367,-0.00004\C,0.
 21677,1.28629,-0.00006\O,-0.73985,2.21397,-0.00014\H,-4.42953,0.50731,
 0.00207\H,-3.92693,-0.97303,-0.89261\H,-3.92571,-0.97595,0.89132\H,0.7
 6606,-2.04459,0.00004\H,3.47226,-2.11339,-0.887\H,3.47186,-2.11387,0.8
 8688\H,4.43691,-0.91312,0.00047\H,3.47947,1.30193,0.00007\H,-0.27239,3
 .06119,-0.0002\\Version=ES64L-G16RevC.01\State=1-A\HF=-590.0920817\RMS
 D=5.602e-09\RMSF=4.197e-06\Dipole=0.2953077,0.2622812,0.0002377\Quadru
 pole=6.8196582,-3.6124118,-3.2072464,-3.3451859,-0.0012631,-0.001661\P
 G=C01 [X(C8H9N1O3)]\\@
 The archive entry for this job was punched.


 YOU KNOW YOU'VE SPOKEN TOO LONG WHEN THE AUDIENCE STOPS LOOKING AT
 THEIR WATCHES AND STARTS SHAKING THEM.
 Job cpu time:       0 days  0 hours  9 minutes 43.1 seconds.
 Elapsed time:       0 days  0 hours  0 minutes 37.1 seconds.
 File lengths (MBytes):  RWF=     44 Int=      0 D2E=      0 Chk=      5 Scr=      2
 Normal termination of Gaussian 16 at Fri Jul 12 13:11:13 2024.
 Link1:  Proceeding to internal job step number  2.
 --------------------------------------------------------------------
 #N Geom=AllCheck Guess=TCheck SCRF=Check GenChk RwB97XD/def2SVP Freq
 --------------------------------------------------------------------
 1/10=4,29=7,30=1,38=1,40=1/1,3;
 2/12=2,40=1/2;
 3/5=43,7=101,11=2,14=-4,25=1,30=1,70=2,71=2,74=-58,75=-5,116=1,140=1/1,2,3;
 4/5=101/1;
 5/5=2,38=6,98=1/2;
 8/6=4,10=90,11=11/1;
 11/6=1,8=1,9=11,15=111,16=1/1,2,10;
 10/6=1/2;
 6/7=2,8=2,9=2,10=2,28=1/1;
 7/8=1,10=1,25=1/1,2,3,16;
 1/10=4,30=1/3;
 99//99;
 Structure from the checkpoint file:  "12387732_2.chk"
 ----------
 12387732_2
 ----------
 Charge =  0 Multiplicity = 1
 Redundant internal coordinates found in file.  (old form).
 C,0,-3.7538,-0.35489,0.00026
 O,0,-2.44018,0.17561,0.00019
 C,0,-1.44837,-0.70893,-0.00011
 O,0,-1.62864,-1.90277,-0.0004
 C,0,-0.08732,-0.0945,-0.00002
 C,0,0.99374,-0.97552,0.00003
 C,0,2.31263,-0.51874,0.00008
 C,0,3.48457,-1.46186,0.00012
 C,0,2.47289,0.86704,0.00004
 N,0,1.4644,1.73367,-0.00004
 C,0,0.21677,1.28629,-0.00006
 O,0,-0.73985,2.21397,-0.00014
 H,0,-4.42953,0.50731,0.00207
 H,0,-3.92693,-0.97303,-0.89261
 H,0,-3.92571,-0.97595,0.89132
 H,0,0.76606,-2.04459,0.00004
 H,0,3.47226,-2.11339,-0.887
 H,0,3.47186,-2.11387,0.88688
 H,0,4.43691,-0.91312,0.00047
 H,0,3.47947,1.30193,0.00007
 H,0,-0.27239,3.06119,-0.0002
 Recover connectivity data from disk.

 GradGradGradGradGradGradGradGradGradGradGradGradGradGradGradGradGradGrad
 Berny optimization.
 Initialization pass.
                           ----------------------------
                           !    Initial Parameters    !
                           ! (Angstroms and Degrees)  !
 --------------------------                            --------------------------
 ! Name  Definition              Value          Derivative Info.                !
 --------------------------------------------------------------------------------
 ! R1    R(1,2)                  1.4167         calculate D2E/DX2 analytically  !
 ! R2    R(1,13)                 1.0954         calculate D2E/DX2 analytically  !
 ! R3    R(1,14)                 1.0997         calculate D2E/DX2 analytically  !
 ! R4    R(1,15)                 1.0997         calculate D2E/DX2 analytically  !
 ! R5    R(2,3)                  1.3289         calculate D2E/DX2 analytically  !
 ! R6    R(3,4)                  1.2074         calculate D2E/DX2 analytically  !
 ! R7    R(3,5)                  1.4933         calculate D2E/DX2 analytically  !
 ! R8    R(5,6)                  1.3946         calculate D2E/DX2 analytically  !
 ! R9    R(5,11)                 1.4139         calculate D2E/DX2 analytically  !
 ! R10   R(6,7)                  1.3958         calculate D2E/DX2 analytically  !
 ! R11   R(6,16)                 1.093          calculate D2E/DX2 analytically  !
 ! R12   R(7,8)                  1.5043         calculate D2E/DX2 analytically  !
 ! R13   R(7,9)                  1.395          calculate D2E/DX2 analytically  !
 ! R14   R(8,17)                 1.1007         calculate D2E/DX2 analytically  !
 ! R15   R(8,18)                 1.1007         calculate D2E/DX2 analytically  !
 ! R16   R(8,19)                 1.0991         calculate D2E/DX2 analytically  !
 ! R17   R(9,10)                 1.3297         calculate D2E/DX2 analytically  !
 ! R18   R(9,20)                 1.0965         calculate D2E/DX2 analytically  !
 ! R19   R(10,11)                1.3254         calculate D2E/DX2 analytically  !
 ! R20   R(11,12)                1.3326         calculate D2E/DX2 analytically  !
 ! R21   R(12,21)                0.9676         calculate D2E/DX2 analytically  !
 ! A1    A(2,1,13)             106.0956         calculate D2E/DX2 analytically  !
 ! A2    A(2,1,14)             110.8812         calculate D2E/DX2 analytically  !
 ! A3    A(2,1,15)             110.8843         calculate D2E/DX2 analytically  !
 ! A4    A(13,1,14)            110.2826         calculate D2E/DX2 analytically  !
 ! A5    A(13,1,15)            110.2886         calculate D2E/DX2 analytically  !
 ! A6    A(14,1,15)            108.4115         calculate D2E/DX2 analytically  !
 ! A7    A(1,2,3)              116.2809         calculate D2E/DX2 analytically  !
 ! A8    A(2,3,4)              123.1412         calculate D2E/DX2 analytically  !
 ! A9    A(2,3,5)              113.9758         calculate D2E/DX2 analytically  !
 ! A10   A(4,3,5)              122.883          calculate D2E/DX2 analytically  !
 ! A11   A(3,5,6)              116.5251         calculate D2E/DX2 analytically  !
 ! A12   A(3,5,11)             126.7162         calculate D2E/DX2 analytically  !
 ! A13   A(6,5,11)             116.7587         calculate D2E/DX2 analytically  !
 ! A14   A(5,6,7)              121.7185         calculate D2E/DX2 analytically  !
 ! A15   A(5,6,16)             117.156          calculate D2E/DX2 analytically  !
 ! A16   A(7,6,16)             121.1255         calculate D2E/DX2 analytically  !
 ! A17   A(6,7,8)              122.0717         calculate D2E/DX2 analytically  !
 ! A18   A(6,7,9)              115.6996         calculate D2E/DX2 analytically  !
 ! A19   A(8,7,9)              122.2287         calculate D2E/DX2 analytically  !
 ! A20   A(7,8,17)             111.2451         calculate D2E/DX2 analytically  !
 ! A21   A(7,8,18)             111.2472         calculate D2E/DX2 analytically  !
 ! A22   A(7,8,19)             111.224          calculate D2E/DX2 analytically  !
 ! A23   A(17,8,18)            107.3691         calculate D2E/DX2 analytically  !
 ! A24   A(17,8,19)            107.7856         calculate D2E/DX2 analytically  !
 ! A25   A(18,8,19)            107.7868         calculate D2E/DX2 analytically  !
 ! A26   A(7,9,10)             124.0769         calculate D2E/DX2 analytically  !
 ! A27   A(7,9,20)             119.9633         calculate D2E/DX2 analytically  !
 ! A28   A(10,9,20)            115.9598         calculate D2E/DX2 analytically  !
 ! A29   A(9,10,11)            119.5994         calculate D2E/DX2 analytically  !
 ! A30   A(5,11,10)            122.1469         calculate D2E/DX2 analytically  !
 ! A31   A(5,11,12)            121.7002         calculate D2E/DX2 analytically  !
 ! A32   A(10,11,12)           116.1529         calculate D2E/DX2 analytically  !
 ! A33   A(11,12,21)           105.232          calculate D2E/DX2 analytically  !
 ! D1    D(13,1,2,3)           179.9153         calculate D2E/DX2 analytically  !
 ! D2    D(14,1,2,3)           -60.3335         calculate D2E/DX2 analytically  !
 ! D3    D(15,1,2,3)            60.1552         calculate D2E/DX2 analytically  !
 ! D4    D(1,2,3,4)              0.0048         calculate D2E/DX2 analytically  !
 ! D5    D(1,2,3,5)           -179.9937         calculate D2E/DX2 analytically  !
 ! D6    D(2,3,5,6)            179.9837         calculate D2E/DX2 analytically  !
 ! D7    D(2,3,5,11)            -0.0203         calculate D2E/DX2 analytically  !
 ! D8    D(4,3,5,6)             -0.0147         calculate D2E/DX2 analytically  !
 ! D9    D(4,3,5,11)           179.9812         calculate D2E/DX2 analytically  !
 ! D10   D(3,5,6,7)            179.9983         calculate D2E/DX2 analytically  !
 ! D11   D(3,5,6,16)            -0.0024         calculate D2E/DX2 analytically  !
 ! D12   D(11,5,6,7)             0.0019         calculate D2E/DX2 analytically  !
 ! D13   D(11,5,6,16)         -179.9988         calculate D2E/DX2 analytically  !
 ! D14   D(3,5,11,10)         -179.9965         calculate D2E/DX2 analytically  !
 ! D15   D(3,5,11,12)            0.0025         calculate D2E/DX2 analytically  !
 ! D16   D(6,5,11,10)           -0.0006         calculate D2E/DX2 analytically  !
 ! D17   D(6,5,11,12)          179.9984         calculate D2E/DX2 analytically  !
 ! D18   D(5,6,7,8)           -179.9994         calculate D2E/DX2 analytically  !
 ! D19   D(5,6,7,9)             -0.0017         calculate D2E/DX2 analytically  !
 ! D20   D(16,6,7,8)             0.0013         calculate D2E/DX2 analytically  !
 ! D21   D(16,6,7,9)           179.999          calculate D2E/DX2 analytically  !
 ! D22   D(6,7,8,17)            59.8479         calculate D2E/DX2 analytically  !
 ! D23   D(6,7,8,18)           -59.81           calculate D2E/DX2 analytically  !
 ! D24   D(6,7,8,19)          -179.9825         calculate D2E/DX2 analytically  !
 ! D25   D(9,7,8,17)          -120.1496         calculate D2E/DX2 analytically  !
 ! D26   D(9,7,8,18)           120.1924         calculate D2E/DX2 analytically  !
 ! D27   D(9,7,8,19)             0.02           calculate D2E/DX2 analytically  !
 ! D28   D(6,7,9,10)             0.0            calculate D2E/DX2 analytically  !
 ! D29   D(6,7,9,20)          -179.9997         calculate D2E/DX2 analytically  !
 ! D30   D(8,7,9,10)           179.9977         calculate D2E/DX2 analytically  !
 ! D31   D(8,7,9,20)            -0.002          calculate D2E/DX2 analytically  !
 ! D32   D(7,9,10,11)            0.0013         calculate D2E/DX2 analytically  !
 ! D33   D(20,9,10,11)        -179.999          calculate D2E/DX2 analytically  !
 ! D34   D(9,10,11,5)           -0.001          calculate D2E/DX2 analytically  !
 ! D35   D(9,10,11,12)         179.9999         calculate D2E/DX2 analytically  !
 ! D36   D(5,11,12,21)        -179.997          calculate D2E/DX2 analytically  !
 ! D37   D(10,11,12,21)          0.002          calculate D2E/DX2 analytically  !
 --------------------------------------------------------------------------------
 Trust Radius=3.00D-01 FncErr=1.00D-07 GrdErr=1.00D-07 EigMax=2.50D+02 EigMin=1.00D-04
 Number of steps in this run=      2 maximum allowed number of steps=      2.
 GradGradGradGradGradGradGradGradGradGradGradGradGradGradGradGradGradGrad

                          Input orientation:                          
 ---------------------------------------------------------------------
 Center     Atomic      Atomic             Coordinates (Angstroms)
 Number     Number       Type             X           Y           Z
 ---------------------------------------------------------------------
      1          6           0       -3.753800   -0.354890    0.000260
      2          8           0       -2.440180    0.175610    0.000190
      3          6           0       -1.448370   -0.708930   -0.000110
      4          8           0       -1.628640   -1.902770   -0.000400
      5          6           0       -0.087320   -0.094500   -0.000020
      6          6           0        0.993740   -0.975520    0.000030
      7          6           0        2.312630   -0.518740    0.000080
      8          6           0        3.484570   -1.461860    0.000120
      9          6           0        2.472890    0.867040    0.000040
     10          7           0        1.464400    1.733670   -0.000040
     11          6           0        0.216770    1.286290   -0.000060
     12          8           0       -0.739850    2.213970   -0.000140
     13          1           0       -4.429530    0.507310    0.002070
     14          1           0       -3.926930   -0.973030   -0.892610
     15          1           0       -3.925710   -0.975950    0.891320
     16          1           0        0.766060   -2.044590    0.000040
     17          1           0        3.472260   -2.113390   -0.887000
     18          1           0        3.471860   -2.113870    0.886880
     19          1           0        4.436910   -0.913120    0.000470
     20          1           0        3.479470    1.301930    0.000070
     21          1           0       -0.272390    3.061190   -0.000200
 ---------------------------------------------------------------------
                    Distance matrix (angstroms):
                    1          2          3          4          5
     1  C    0.000000
     2  O    1.416696   0.000000
     3  C    2.332456   1.328946   0.000000
     4  O    2.629114   2.231202   1.207374   0.000000
     5  C    3.675715   2.368314   1.493312   2.376028   0.000000
     6  C    4.787935   3.621727   2.456618   2.781487   1.394592
     7  C    6.068642   4.803262   3.765806   4.177218   2.437158
     8  C    7.322526   6.146867   4.990070   5.132185   3.824666
     9  C    6.345454   4.961485   4.226105   4.949181   2.734819
    10  N    5.620649   4.203962   3.801384   4.773949   2.397924
    11  C    4.296382   2.879756   2.598768   3.684514   1.413878
    12  O    3.960169   2.654437   3.007548   4.211591   2.398922
    13  H    1.095447   2.016815   3.219714   3.695061   4.383716
    14  H    1.099676   2.080118   2.647558   2.634880   4.038705
    15  H    1.099662   2.080145   2.646349   2.632620   4.037905
    16  H    4.825373   3.899906   2.586056   2.398896   2.128640
    17  H    7.489693   6.401841   5.193427   5.181660   4.187274
    18  H    7.489344   6.401574   5.193195   5.181402   4.187148
    19  H    8.209711   6.962737   5.888821   6.145755   4.597695
    20  H    7.420596   6.025849   5.322327   6.030165   3.830406
    21  H    4.877481   3.609139   3.949270   5.145903   3.161112
                    6          7          8          9         10
     6  C    0.000000
     7  C    1.395750   0.000000
     8  C    2.537865   1.504300   0.000000
     9  C    2.362819   1.395016   2.539148   0.000000
    10  N    2.749769   2.406833   3.780542   1.329699   0.000000
    11  C    2.391541   2.766001   4.269759   2.294744   1.325417
    12  O    3.630176   4.096991   5.599772   3.483665   2.255971
    13  H    5.622335   6.819788   8.155404   6.911788   6.020164
    14  H    5.000980   6.319445   7.481060   6.718659   6.098307
    15  H    4.999539   6.318246   7.479478   6.718115   6.098348
    16  H    1.093046   2.172578   2.780265   3.375035   3.842256
    17  H    2.867862   2.162073   1.100738   3.266274   4.429229
    18  H    2.867651   2.162098   1.100737   3.266535   4.429457
    19  H    3.443735   2.160579   1.099121   2.650725   3.980115
    20  H    3.371295   2.162488   2.763795   1.096509   2.060802
    21  H    4.230616   4.415680   5.879858   3.514379   2.186035
                   11         12         13         14         15
    11  C    0.000000
    12  O    1.332558   0.000000
    13  H    4.711148   4.065271   0.000000
    14  H    4.803272   4.594665   1.801240   0.000000
    15  H    4.803377   4.595650   1.801294   1.783933   0.000000
    16  H    3.375867   4.516979   5.788467   4.895837   4.893779
    17  H    4.789854   6.103641   8.372383   7.486552   7.693254
    18  H    4.789923   6.103729   8.371705   7.694816   7.484579
    19  H    4.758885   6.047937   8.979498   8.411599   8.410171
    20  H    3.262737   4.316767   7.948818   7.799172   7.798702
    21  H    1.841072   0.967626   4.878947   5.516066   5.517251
                   16         17         18         19         20
    16  H    0.000000
    17  H    2.848700   0.000000
    18  H    2.848269   1.773880   0.000000
    19  H    3.841271   1.777302   1.777314   0.000000
    20  H    4.308340   3.528648   3.529048   2.413118   0.000000
[...]
 Alpha virt. eigenvalues --    0.32651   0.33352   0.34468   0.35156   0.36782
 Alpha virt. eigenvalues --    0.36803   0.38497   0.39409   0.40561   0.40782
 Alpha virt. eigenvalues --    0.40884   0.43585   0.43845   0.43929   0.44868
 Alpha virt. eigenvalues --    0.45260   0.46001   0.47074   0.47337   0.47749
 Alpha virt. eigenvalues --    0.50561   0.51611   0.51934   0.51944   0.53652
 Alpha virt. eigenvalues --    0.53784   0.54082   0.55624   0.56037   0.56427
 Alpha virt. eigenvalues --    0.57839   0.58880   0.60300   0.60383   0.60578
 Alpha virt. eigenvalues --    0.62151   0.64300   0.65040   0.65272   0.66217
 Alpha virt. eigenvalues --    0.66999   0.69005   0.69296   0.71205   0.71771
 Alpha virt. eigenvalues --    0.73157   0.74493   0.75502   0.75550   0.76184
 Alpha virt. eigenvalues --    0.78669   0.79773   0.80958   0.82704   0.82876
 Alpha virt. eigenvalues --    0.85236   0.86072   0.88578   0.89162   0.90260
 Alpha virt. eigenvalues --    0.91837   0.94313   0.95022   0.96083   0.97771
 Alpha virt. eigenvalues --    0.99232   1.00354   1.01595   1.02589   1.03795
 Alpha virt. eigenvalues --    1.05196   1.05981   1.08070   1.08939   1.11337
 Alpha virt. eigenvalues --    1.14759   1.15735   1.17135   1.18656   1.19189
 Alpha virt. eigenvalues --    1.22276   1.25534   1.28689   1.28985   1.29303
 Alpha virt. eigenvalues --    1.31684   1.34561   1.36175   1.37727   1.40793
 Alpha virt. eigenvalues --    1.41565   1.41708   1.43300   1.45544   1.45552
 Alpha virt. eigenvalues --    1.50379   1.50754   1.51808   1.55632   1.56327
 Alpha virt. eigenvalues --    1.56639   1.58979   1.59029   1.59805   1.60789
 Alpha virt. eigenvalues --    1.61060   1.61190   1.62506   1.64726   1.65182
 Alpha virt. eigenvalues --    1.66848   1.67299   1.70124   1.70729   1.71271
 Alpha virt. eigenvalues --    1.73208   1.74819   1.75566   1.79976   1.81544
 Alpha virt. eigenvalues --    1.82809   1.84895   1.85570   1.85612   1.91508
 Alpha virt. eigenvalues --    1.92553   1.93091   1.97824   1.98556   2.01472
 Alpha virt. eigenvalues --    2.02268   2.02475   2.02636   2.04106   2.07133
 Alpha virt. eigenvalues --    2.07703   2.08108   2.09618   2.11538   2.11995
 Alpha virt. eigenvalues --    2.13735   2.14749   2.15076   2.18439   2.19432
 Alpha virt. eigenvalues --    2.21483   2.22206   2.23521   2.26059   2.26513
 Alpha virt. eigenvalues --    2.28200   2.32115   2.32414   2.33625   2.34513
 Alpha virt. eigenvalues --    2.38454   2.40577   2.41454   2.42787   2.43248
 Alpha virt. eigenvalues --    2.45212   2.45806   2.47422   2.49934   2.51836
 Alpha virt. eigenvalues --    2.53229   2.56443   2.56522   2.60125   2.60995
 Alpha virt. eigenvalues --    2.61143   2.62074   2.62849   2.64302   2.66437
 Alpha virt. eigenvalues --    2.68304   2.71093   2.73267   2.76290   2.77028
 Alpha virt. eigenvalues --    2.80550   2.80668   2.82154   2.84093   2.85526
 Alpha virt. eigenvalues --    2.86351   2.88031   2.88323   2.90348   2.91581
 Alpha virt. eigenvalues --    2.93031   2.94766   2.96983   2.98219   3.00100
 Alpha virt. eigenvalues --    3.01217   3.03546   3.03769   3.04528   3.06188
 Alpha virt. eigenvalues --    3.06518   3.07717   3.10748   3.11908   3.13184
 Alpha virt. eigenvalues --    3.15069   3.15704   3.16667   3.20061   3.21064
 Alpha virt. eigenvalues --    3.21378   3.23775   3.24475   3.26524   3.26568
 Alpha virt. eigenvalues --    3.27981   3.29200   3.30442   3.31203   3.32248
 Alpha virt. eigenvalues --    3.33032   3.34377   3.35882   3.36106   3.37506
 Alpha virt. eigenvalues --    3.38144   3.40817   3.40841   3.41211   3.41763
 Alpha virt. eigenvalues --    3.42998   3.43042   3.44600   3.45652   3.48666
 Alpha virt. eigenvalues --    3.49115   3.52151   3.52444   3.53149   3.55150
 Alpha virt. eigenvalues --    3.57490   3.59612   3.60814   3.63856   3.65407
 Alpha virt. eigenvalues --    3.66185   3.69905   3.70078   3.72983   3.75879
 Alpha virt. eigenvalues --    3.76252   3.77068   3.80751   3.82961   3.83859
 Alpha virt. eigenvalues --    3.85166   3.91643   3.93235   3.96862   3.98866
 Alpha virt. eigenvalues --    3.99232   4.02655   4.06164   4.10356   4.11563
 Alpha virt. eigenvalues --    4.19061   4.19310   4.21632   4.23171   4.25205
 Alpha virt. eigenvalues --    4.25404   4.30674   4.30965   4.35748   4.37877
 Alpha virt. eigenvalues --    4.40471   4.42773   4.46153   4.47107   4.50412
 Alpha virt. eigenvalues --    4.51218   4.52042   4.59068   4.59948   4.62336
 Alpha virt. eigenvalues --    4.63363   4.66305   4.68363   4.70009   4.79126
 Alpha virt. eigenvalues --    4.81811   4.93965   4.94325   4.99255   4.99859
 Alpha virt. eigenvalues --    5.10113   5.14863   5.18166   5.23643   5.25436
 Alpha virt. eigenvalues --    5.27429   5.29707   5.31938   5.34173   5.37450
 Alpha virt. eigenvalues --    5.38772   5.43119   5.44622   5.50930   5.53909
 Alpha virt. eigenvalues --    5.59899   5.60572   5.65049   5.72159   5.77107
 Alpha virt. eigenvalues --    5.77852   5.82424   5.86747   5.93387   5.97793
 Alpha virt. eigenvalues --    5.99805   6.08181   6.09228   6.23295   6.28932
 Alpha virt. eigenvalues --    6.34317   6.44472   6.46216   6.51735   6.53476
 Alpha virt. eigenvalues --    6.65495   6.69785   6.75058   6.80854   6.84860
 Alpha virt. eigenvalues --    6.85910   6.93169   6.98630   7.06113   7.10191
 Alpha virt. eigenvalues --    7.16301   7.25513   7.38527   7.47676   7.55989
 Alpha virt. eigenvalues --   22.45732  22.48105  22.65492  22.89595  23.11015
 Alpha virt. eigenvalues --   23.17220  23.34333  23.66697  32.62700  44.01318
 Alpha virt. eigenvalues --   44.08487  44.29044
          Condensed to atoms (all electrons):
               1          2          3          4          5          6
     1  C    4.775628   0.222460  -0.045362   0.007196   0.005836  -0.001639
     2  O    0.222460   7.913405   0.427923  -0.081643  -0.139125   0.009015
     3  C   -0.045362   0.427923   4.441501   0.633165   0.291463  -0.070623
     4  O    0.007196  -0.081643   0.633165   7.911268  -0.159760   0.036816
     5  C    0.005836  -0.139125   0.291463  -0.159760   5.604488   0.329325
     6  C   -0.001639   0.009015  -0.070623   0.036816   0.329325   5.250906
     7  C   -0.000101  -0.000171   0.004095   0.002988   0.009756   0.362301
     8  C   -0.000003  -0.000006  -0.001054  -0.000297   0.013682  -0.082881
     9  C    0.000017   0.000315   0.000598   0.000353  -0.035326  -0.006190
    10  N    0.000069   0.000069   0.002538  -0.000324  -0.070092  -0.055508
    11  C    0.000804   0.005170  -0.061130   0.001910   0.325666   0.004225
    12  O    0.001127  -0.012376   0.000478  -0.000029  -0.093436  -0.003714
    13  H    0.396310  -0.033594   0.004887   0.001696   0.003466  -0.000053
    14  H    0.419178  -0.033744  -0.008945   0.005057  -0.003316  -0.000048
    15  H    0.419173  -0.033744  -0.008975   0.005102  -0.003331  -0.000048
    16  H   -0.000171   0.000924  -0.016521   0.022519  -0.035226   0.425278
    17  H    0.000000   0.000000   0.000005  -0.000005   0.000461  -0.007961
    18  H    0.000000   0.000000   0.000005  -0.000005   0.000464  -0.007964
    19  H    0.000000  -0.000000  -0.000016   0.000001  -0.001029   0.015562
    20  H    0.000000   0.000000   0.000113  -0.000002  -0.003642   0.011941
    21  H   -0.000038   0.000315  -0.000418   0.000024   0.022370  -0.000036
               7          8          9         10         11         12
     1  C   -0.000101  -0.000003   0.000017   0.000069   0.000804   0.001127
     2  O   -0.000171  -0.000006   0.000315   0.000069   0.005170  -0.012376
     3  C    0.004095  -0.001054   0.000598   0.002538  -0.061130   0.000478
     4  O    0.002988  -0.000297   0.000353  -0.000324   0.001910  -0.000029
     5  C    0.009756   0.013682  -0.035326  -0.070092   0.325666  -0.093436
     6  C    0.362301  -0.082881  -0.006190  -0.055508   0.004225  -0.003714
     7  C    5.101317   0.281715   0.535801  -0.066989  -0.073735   0.004647
     8  C    0.281715   4.952910  -0.053071   0.009375  -0.001701   0.000084
     9  C    0.535801  -0.053071   4.707099   0.542644  -0.077416  -0.002381
    10  N   -0.066989   0.009375   0.542644   6.563312   0.514318  -0.096299
    11  C   -0.073735  -0.001701  -0.077416   0.514318   4.662505   0.414239
    12  O    0.004647   0.000084  -0.002381  -0.096299   0.414239   7.881564
    13  H    0.000001   0.000000  -0.000002   0.000003  -0.000176   0.000188
    14  H   -0.000003  -0.000000   0.000002   0.000002   0.000010  -0.000062
    15  H   -0.000003  -0.000000   0.000002   0.000002   0.000012  -0.000062
    16  H   -0.049574  -0.002779   0.004683  -0.001159   0.012213  -0.000077
    17  H   -0.033650   0.411645  -0.001670  -0.000214  -0.000037  -0.000002
    18  H   -0.033678   0.411682  -0.001662  -0.000214  -0.000037  -0.000002
    19  H   -0.063929   0.424306  -0.003002   0.000230   0.000580  -0.000001
    20  H   -0.080637  -0.005550   0.434019  -0.025098   0.005234  -0.000134
    21  H    0.000599  -0.000020   0.002079   0.013454  -0.040726   0.291141
              13         14         15         16         17         18
     1  C    0.396310   0.419178   0.419173  -0.000171   0.000000   0.000000
     2  O   -0.033594  -0.033744  -0.033744   0.000924   0.000000   0.000000
     3  C    0.004887  -0.008945  -0.008975  -0.016521   0.000005   0.000005
     4  O    0.001696   0.005057   0.005102   0.022519  -0.000005  -0.000005
     5  C    0.003466  -0.003316  -0.003331  -0.035226   0.000461   0.000464
     6  C   -0.000053  -0.000048  -0.000048   0.425278  -0.007961  -0.007964
     7  C    0.000001  -0.000003  -0.000003  -0.049574  -0.033650  -0.033678
     8  C    0.000000  -0.000000  -0.000000  -0.002779   0.411645   0.411682
     9  C   -0.000002   0.000002   0.000002   0.004683  -0.001670  -0.001662
    10  N    0.000003   0.000002   0.000002  -0.001159  -0.000214  -0.000214
    11  C   -0.000176   0.000010   0.000012   0.012213  -0.000037  -0.000037
    12  O    0.000188  -0.000062  -0.000062  -0.000077  -0.000002  -0.000002
    13  H    0.540589  -0.023761  -0.023745  -0.000001  -0.000000  -0.000000
    14  H   -0.023761   0.552783  -0.037838  -0.000022   0.000000   0.000000
    15  H   -0.023745  -0.037838   0.552708  -0.000022   0.000000   0.000000
    16  H   -0.000001  -0.000022  -0.000022   0.472314  -0.000174  -0.000175
    17  H   -0.000000   0.000000   0.000000  -0.000174   0.549788  -0.031831
    18  H   -0.000000   0.000000   0.000000  -0.000175  -0.031831   0.549776
    19  H   -0.000000   0.000000   0.000000   0.000179  -0.020889  -0.020890
    20  H   -0.000000   0.000000   0.000000  -0.000100  -0.000040  -0.000040
    21  H   -0.000011   0.000000   0.000000   0.000026   0.000000   0.000000
              19         20         21
     1  C    0.000000   0.000000  -0.000038
     2  O   -0.000000   0.000000   0.000315
     3  C   -0.000016   0.000113  -0.000418
     4  O    0.000001  -0.000002   0.000024
     5  C   -0.001029  -0.003642   0.022370
     6  C    0.015562   0.011941  -0.000036
     7  C   -0.063929  -0.080637   0.000599
     8  C    0.424306  -0.005550  -0.000020
     9  C   -0.003002   0.434019   0.002079
    10  N    0.000230  -0.025098   0.013454
    11  C    0.000580   0.005234  -0.040726
    12  O   -0.000001  -0.000134   0.291141
    13  H   -0.000000  -0.000000  -0.000011
    14  H    0.000000   0.000000   0.000000
    15  H    0.000000   0.000000   0.000000
    16  H    0.000179  -0.000100   0.000026
    17  H   -0.020889  -0.000040   0.000000
    18  H   -0.020890  -0.000040   0.000000
    19  H    0.544300   0.003309   0.000000
    20  H    0.003309   0.536421  -0.000334
    21  H    0.000000  -0.000334   0.380637
 Mulliken charges:
               1
     1  C   -0.200487
     2  O   -0.245192
     3  C    0.406273
     4  O   -0.386031
     5  C   -0.062697
     6  C   -0.208704
     7  C    0.099250
     8  C   -0.358038
     9  C   -0.046894
    10  N   -0.330116
    11  C    0.308075
    12  O   -0.384895
    13  H    0.134204
    14  H    0.130707
    15  H    0.130770
    16  H    0.167867
    17  H    0.134576
    18  H    0.134573
    19  H    0.121287
    20  H    0.124539
    21  H    0.330935
 Sum of Mulliken charges =  -0.00000
 Mulliken charges with hydrogens summed into heavy atoms:
               1
     1  C    0.195195
     2  O   -0.245192
     3  C    0.406273
     4  O   -0.386031
     5  C   -0.062697
     6  C   -0.040837
     7  C    0.099250
     8  C    0.032398
     9  C    0.077645
    10  N   -0.330116
    11  C    0.308075
    12  O   -0.053960
 Electronic spatial extent (au):  <R**2>=           2283.4441
 Charge=              0.0000 electrons
 Dipole moment (field-independent basis, Debye):
    X=             -0.8989    Y=              0.7315    Z=             -0.0007  Tot=              1.1589
 Quadrupole moment (field-independent basis, Debye-Ang):
   XX=            -56.2588   YY=            -70.6003   ZZ=            -69.7755
   XY=              4.8608   XZ=             -0.0018   YZ=              0.0024
 Traceless Quadrupole moment (field-independent basis, Debye-Ang):
   XX=              9.2861   YY=             -5.0554   ZZ=             -4.2307
   XY=              4.8608   XZ=             -0.0018   YZ=              0.0024
 Octapole moment (field-independent basis, Debye-Ang**2):
  XXX=             36.8619  YYY=             32.4711  ZZZ=              0.0052  XYY=             -2.6222
  XXY=             -4.2352  XXZ=             -0.0072  XZZ=             10.7703  YZZ=             -0.8018
  YYZ=             -0.0058  XYZ=              0.0026
 Hexadecapole moment (field-independent basis, Debye-Ang**3):
 XXXX=          -1847.4051 YYYY=           -692.9937 ZZZZ=            -82.8008 XXXY=            -13.5161
 XXXZ=             -0.0207 YYYX=             52.6764 YYYZ=              0.0222 ZZZX=              0.0105
 ZZZY=             -0.0027 XXYY=           -502.1098 XXZZ=           -372.1156 YYZZ=           -138.6598
 XXYZ=             -0.0069 YYXZ=             -0.0185 ZZXY=             -1.2411
 N-N= 6.906287706675D+02 E-N=-2.762401873019D+03  KE= 5.879377536484D+02
 Breneman (CHELPG) radii used.
 Read replacement radii for each type of atom:
 Atom Element Radius
    1     6    1.50
    2     8    1.70
    3     6    1.50
    4     8    1.70
    5     6    1.50
    6     6    1.50
    7     6    1.50
    8     6    1.50
    9     6    1.50
   10     7    1.70
   11     6    1.50
   12     8    1.70
   13     1    1.45
   14     1    1.45
   15     1    1.45
   16     1    1.45
   17     1    1.45
   18     1    1.45
   19     1    1.45
   20     1    1.45
   21     1    1.45
 Generate Potential Derived Charges using the Breneman model, NDens= 1.
 Grid spacing= 0.300 Box extension= 2.800
 NStep X,Y,Z=   50     37     26   Total possible points=       48100
 Number of Points to Fit=   14011

 **********************************************************************

            Electrostatic Properties Using The SCF Density.

 **********************************************************************

       Atomic Center    1 is at   3.753801 -0.354892 -0.000260
       Atomic Center    2 is at   2.440181  0.175609 -0.000190
       Atomic Center    3 is at   1.448371 -0.708931  0.000110
       Atomic Center    4 is at   1.628640 -1.902771  0.000400
       Atomic Center    5 is at   0.087321 -0.094500  0.000020
       Atomic Center    6 is at  -0.993739 -0.975519 -0.000030
       Atomic Center    7 is at  -2.312629 -0.518739 -0.000080
       Atomic Center    8 is at  -3.484570 -1.461858 -0.000120
       Atomic Center    9 is at  -2.472888  0.867041 -0.000040
       Atomic Center   10 is at  -1.464398  1.733671  0.000040
       Atomic Center   11 is at  -0.216768  1.286290  0.000060
       Atomic Center   12 is at   0.739852  2.213970  0.000140
       Atomic Center   13 is at   4.429531  0.507308 -0.002070
       Atomic Center   14 is at   3.926931 -0.973032  0.892610
       Atomic Center   15 is at   3.925711 -0.975952 -0.891320
       Atomic Center   16 is at  -0.766060 -2.044590 -0.000040
       Atomic Center   17 is at  -3.472260 -2.113388  0.887000
       Atomic Center   18 is at  -3.471860 -2.113868 -0.886880
       Atomic Center   19 is at  -4.436909 -0.913118 -0.000470
       Atomic Center   20 is at  -3.479468  1.301932 -0.000070
       Atomic Center   21 is at   0.272393  3.061190  0.000200
   14011 points will be used for fitting atomic charges
 Fitting point charges to electrostatic potential
 Charges from ESP fit, RMS=   0.00292 RRMS=   0.23477:
 ESP charges:
               1
     1  C   -0.064098
     2  O   -0.270196
     3  C    0.761138
     4  O   -0.552954
     5  C   -0.436154
     6  C    0.057382
     7  C   -0.069927
     8  C   -0.232536
     9  C    0.268173
    10  N   -0.699477
    11  C    0.779758
    12  O   -0.634602
    13  H    0.094858
    14  H    0.074528
    15  H    0.074512
    16  H    0.109791
    17  H    0.083442
    18  H    0.083444
    19  H    0.065026
    20  H    0.076344
    21  H    0.431549
 Sum of ESP charges =   0.00000
 ESP charges with hydrogens summed into heavy atoms:
               1
     1  C    0.179800
     2  O   -0.270196
     3  C    0.761138
     4  O   -0.552954
     5  C   -0.436154
     6  C    0.167173
     7  C   -0.069927
     8  C   -0.000624
     9  C    0.344517
    10  N   -0.699477
    11  C    0.779758
    12  O   -0.203053
 Charge=   0.00000 Dipole=    -0.9288     0.7392    -0.0008 Tot=     1.1871
 -----------------------------------------------------------------

              Electrostatic Properties (Atomic Units)

 -----------------------------------------------------------------
    Center     Electric         -------- Electric Field --------
               Potential          X             Y             Z
 -----------------------------------------------------------------
    1 Atom    -14.715461
    2 Atom    -22.313738
    3 Atom    -14.640299
    4 Atom    -22.384556
    5 Atom    -14.742757
    6 Atom    -14.746486
    7 Atom    -14.750729
    8 Atom    -14.759216
    9 Atom    -14.724184
   10 Atom    -18.391629
   11 Atom    -14.661065
   12 Atom    -22.320206
   13 Atom     -1.104587
   14 Atom     -1.107432
   15 Atom     -1.107435
   16 Atom     -1.091442
   17 Atom     -1.106076
   18 Atom     -1.106075
   19 Atom     -1.105695
   20 Atom     -1.094940
   21 Atom     -0.970252
 -----------------------------------------------------------------
 Unable to Open any file for archive entry.
 1\1\GINC-NOTCH346\SP\RwB97XD\def2TZVP\C8H9N1O3\U6053008\12-Jul-2024\0\
 \#N Guess=Read Geom=Check Integral(Ultrafine) Density Pop=(ChelpG,Read
 Radii) NMR wB97XD def2TZVP\\12387732_2\\0,1\C,0,-3.7538,-0.35489,0.000
 26\O,0,-2.44018,0.17561,0.00019\C,0,-1.44837,-0.70893,-0.00011\O,0,-1.
 62864,-1.90277,-0.0004\C,0,-0.08732,-0.0945,-0.00002\C,0,0.99374,-0.97
 552,0.00003\C,0,2.31263,-0.51874,0.00008\C,0,3.48457,-1.46186,0.00012\
 C,0,2.47289,0.86704,0.00004\N,0,1.4644,1.73367,-0.00004\C,0,0.21677,1.
 28629,-0.00006\O,0,-0.73985,2.21397,-0.00014\H,0,-4.42953,0.50731,0.00
 207\H,0,-3.92693,-0.97303,-0.89261\H,0,-3.92571,-0.97595,0.89132\H,0,0
 .76606,-2.04459,0.00004\H,0,3.47226,-2.11339,-0.887\H,0,3.47186,-2.113
 87,0.88688\H,0,4.43691,-0.91312,0.00047\H,0,3.47947,1.30193,0.00007\H,
 0,-0.27239,3.06119,-0.0002\\Version=ES64L-G16RevC.01\State=1-A\HF=-590
 .7453813\RMSD=9.884e-10\Dipole=0.3536526,0.2878076,0.0002676\Quadrupol
 e=6.9039646,-3.7585598,-3.1454048,-3.613896,-0.0013332,-0.00179\PG=C01
  [X(C8H9N1O3)]\\@
 The archive entry for this job was punched.


 DO YOU KNOW THAT THE LETTERS IN "EPISCOPAL", WHEN
 REARRANGED, SPELL "PEPSI COLA"?
 Job cpu time:       0 days  0 hours 44 minutes 10.9 seconds.
 Elapsed time:       0 days  0 hours  2 minutes 53.2 seconds.
 File lengths (MBytes):  RWF=    119 Int=      0 D2E=      0 Chk=     18 Scr=      2
 Normal termination of Gaussian 16 at Fri Jul 12 13:21:09 2024.
