 Entering Gaussian System, Link 0=g16
 Input=12387733_1.com
 Output=12387733_1.log
 Initial command:
 /uufs/chpc.utah.edu/sys/installdir/gaussian16/C01/AVX/g16/l1.exe "/scratch/general/vast/u6053008/1287195-notchpeak.peaks/Gau-1758117.inp" -scrdir="/scratch/general/vast/u6053008/1287195-notchpeak.peaks/"
 Entering Link 1 = /uufs/chpc.utah.edu/sys/installdir/gaussian16/C01/AVX/g16/l1.exe PID=   1758118.
  
 Copyright (c) 1988-2019, Gaussian, Inc.  All Rights Reserved.
  
 This is part of the Gaussian(R) 16 program.  It is based on
 the Gaussian(R) 09 system (copyright 2009, Gaussian, Inc.),
 the Gaussian(R) 03 system (copyright 2003, Gaussian, Inc.),
 the Gaussian(R) 98 system (copyright 1998, Gaussian, Inc.),
 the Gaussian(R) 94 system (copyright 1995, Gaussian, Inc.),
 the Gaussian 92(TM) system (copyright 1992, Gaussian, Inc.),
 the Gaussian 90(TM) system (copyright 1990, Gaussian, Inc.),
 the Gaussian 88(TM) system (copyright 1988, Gaussian, Inc.),
 the Gaussian 86(TM) system (copyright 1986, Carnegie Mellon
 University), and the Gaussian 82(TM) system (copyright 1983,
 Carnegie Mellon University). Gaussian is a federally registered
 trademark of Gaussian, Inc.
  
 This software contains proprietary and confidential information,
 including trade secrets, belonging to Gaussian, Inc.
  
 This software is provided under written license and may be
 used, copied, transmitted, or stored only in accord with that
 written license.
  
 The following legend is applicable only to US Government
 contracts under FAR:
  
                    RESTRICTED RIGHTS LEGEND
  
 Use, reproduction and disclosure by the US Government is
 subject to restrictions as set forth in subparagraphs (a)
 and (c) of the Commercial Computer Software - Restricted
 Rights clause in FAR 52.227-19.
  
 Gaussian, Inc.
 340 Quinnipiac St., Bldg. 40, Wallingford CT 06492
  
  
 ---------------------------------------------------------------
 Warning -- This program may not be used in any manner that
 competes with the business of Gaussian, Inc. or will provide
 assistance to any competitor of Gaussian, Inc.  The licensee
 of this program is prohibited from giving any competitor of
 Gaussian, Inc. access to this program.  By using this program,
 the user acknowledges that Gaussian, Inc. is engaged in the
 business of creating and licensing software in the field of
 computational chemistry and represents and warrants to the
 licensee that it is not a competitor of Gaussian, Inc. and that
 it will not use this program in any manner prohibited above.
 ---------------------------------------------------------------
  

 Cite this work as:
 Gaussian 16, Revision C.01,
 M. J. Frisch, G. W. Trucks, H. B. Schlegel, G. E. Scuseria, 
 M. A. Robb, J. R. Cheeseman, G. Scalmani, V. Barone, 
 G. A. Petersson, H. Nakatsuji, X. Li, M. Caricato, A. V. Marenich, 
 J. Bloino, B. G. Janesko, R. Gomperts, B. Mennucci, H. P. Hratchian, 
 J. V. Ortiz, A. F. Izmaylov, J. L. Sonnenberg, D. Williams-Young, 
 F. Ding, F. Lipparini, F. Egidi, J. Goings, B. Peng, A. Petrone, 
 T. Henderson, D. Ranasinghe, V. G. Zakrzewski, J. Gao, N. Rega, 
 G. Zheng, W. Liang, M. Hada, M. Ehara, K. Toyota, R. Fukuda, 
 J. Hasegawa, M. Ishida, T. Nakajima, Y. Honda, O. Kitao, H. Nakai, 
 T. Vreven, K. Throssell, J. A. Montgomery, Jr., J. E. Peralta, 
 F. Ogliaro, M. J. Bearpark, J. J. Heyd, E. N. Brothers, K. N. Kudin, 
 V. N. Staroverov, T. A. Keith, R. Kobayashi, J. Normand, 
 K. Raghavachari, A. P. Rendell, J. C. Burant, S. S. Iyengar, 
 J. Tomasi, M. Cossi, J. M. Millam, M. Klene, C. Adamo, R. Cammi, 
 J. W. Ochterski, R. L. Martin, K. Morokuma, O. Farkas, 
 J. B. Foresman, and D. J. Fox, Gaussian, Inc., Wallingford CT, 2019.
 
 ******************************************
 Gaussian 16:  ES64L-G16RevC.01  3-Jul-2019
                12-Jul-2024 
 ******************************************
 %NProcShared=16
 Will use up to   16 processors via shared memory.
 %Mem=32GB
 %chk=12387733_1.chk
 ------------------------------------------------------
 #N OPT FREQ=NORAMAN Integral(Ultrafine) wB97XD def2SVP
 ------------------------------------------------------
 1/18=20,19=15,26=4,38=1/1,3;
 2/9=110,12=2,17=6,18=5,40=1/2;
 3/5=43,7=101,11=2,25=1,30=1,71=1,74=-58,75=-5/1,2,3;
 4//1;
 5/5=2,38=5/2;
 6/7=2,8=2,9=2,10=2,28=1/1;
 7//1,2,3,16;
 1/18=20,19=15,26=4/3(2);
 2/9=110/2;
 99//99;
 2/9=110/2;
 3/5=43,7=101,11=2,25=1,30=1,71=1,74=-58,75=-5/1,2,3;
 4/5=5,16=3,69=1/1;
 5/5=2,38=5/2;
 7//1,2,3,16;
 1/18=20,19=15,26=4/3(-5);
 2/9=110/2;
 6/7=2,8=2,9=2,10=2,19=2,28=1/1;
 99/9=1/99;
 ----------
 12387733_1
 ----------
 Symbolic Z-matrix:
 Charge =  0 Multiplicity = 1
 C                     3.83038  -0.83022   0.00001 
 O                     2.41825  -0.98179   0. 
 C                     1.69729   0.13329   0. 
 O                     2.21198   1.23983   0. 
 C                     0.24413  -0.09043   0. 
 C                    -0.32496  -1.36681  -0.00001 
 C                    -1.70299  -1.50354  -0.00001 
 C                    -2.488    -0.33855   0. 
 C                    -3.98869  -0.4071    0.00001 
 N                    -1.95711   0.88186   0. 
 C                    -0.63891   1.02612   0. 
 O                    -0.18862   2.26766   0. 
 H                     4.16266  -0.28225   0.89289 
 H                     4.24423  -1.84415   0.00001 
 H                     4.16267  -0.28225  -0.89288 
 H                     0.32994  -2.23962  -0.00001 
 H                    -2.17194  -2.488    -0.00002 
 H                    -4.38334   0.1158   -0.88359 
 H                    -4.38331   0.11582   0.88361 
 H                    -4.35655  -1.4414    0.00003 
 H                     0.79301   2.2309    0. 
 

 GradGradGradGradGradGradGradGradGradGradGradGradGradGradGradGradGradGrad
 Berny optimization.
 Initialization pass.
                           ----------------------------
                           !    Initial Parameters    !
                           ! (Angstroms and Degrees)  !
 --------------------------                            --------------------------
 ! Name  Definition              Value          Derivative Info.                !
 --------------------------------------------------------------------------------
 ! R1    R(1,2)                  1.4202         estimate D2E/DX2                !
 ! R2    R(1,13)                 1.0991         estimate D2E/DX2                !
 ! R3    R(1,14)                 1.0951         estimate D2E/DX2                !
 ! R4    R(1,15)                 1.0991         estimate D2E/DX2                !
 ! R5    R(2,3)                  1.3279         estimate D2E/DX2                !
 ! R6    R(3,4)                  1.2204         estimate D2E/DX2                !
 ! R7    R(3,5)                  1.4703         estimate D2E/DX2                !
 ! R8    R(5,6)                  1.3975         estimate D2E/DX2                !
 ! R9    R(5,11)                 1.4235         estimate D2E/DX2                !
 ! R10   R(6,7)                  1.3848         estimate D2E/DX2                !
 ! R11   R(6,16)                 1.0912         estimate D2E/DX2                !
 ! R12   R(7,8)                  1.4048         estimate D2E/DX2                !
 ! R13   R(7,17)                 1.0904         estimate D2E/DX2                !
 ! R14   R(8,9)                  1.5023         estimate D2E/DX2                !
 ! R15   R(8,10)                 1.3309         estimate D2E/DX2                !
 ! R16   R(9,18)                 1.1            estimate D2E/DX2                !
 ! R17   R(9,19)                 1.1            estimate D2E/DX2                !
 ! R18   R(9,20)                 1.0978         estimate D2E/DX2                !
 ! R19   R(10,11)                1.3261         estimate D2E/DX2                !
 ! R20   R(11,12)                1.3207         estimate D2E/DX2                !
 ! R21   R(12,21)                0.9823         estimate D2E/DX2                !
 ! A1    A(2,1,13)             110.7213         estimate D2E/DX2                !
 ! A2    A(2,1,14)             106.0772         estimate D2E/DX2                !
 ! A3    A(2,1,15)             110.7209         estimate D2E/DX2                !
 ! A4    A(13,1,14)            110.326          estimate D2E/DX2                !
 ! A5    A(13,1,15)            108.664          estimate D2E/DX2                !
 ! A6    A(14,1,15)            110.3256         estimate D2E/DX2                !
 ! A7    A(1,2,3)              116.7585         estimate D2E/DX2                !
 ! A8    A(2,3,4)              122.1704         estimate D2E/DX2                !
 ! A9    A(2,3,5)              114.1327         estimate D2E/DX2                !
 ! A10   A(4,3,5)              123.697          estimate D2E/DX2                !
 ! A11   A(3,5,6)              122.7825         estimate D2E/DX2                !
 ! A12   A(3,5,11)             119.587          estimate D2E/DX2                !
 ! A13   A(6,5,11)             117.6305         estimate D2E/DX2                !
 ! A14   A(5,6,7)              119.6967         estimate D2E/DX2                !
 ! A15   A(5,6,16)             119.0875         estimate D2E/DX2                !
 ! A16   A(7,6,16)             121.2158         estimate D2E/DX2                !
 ! A17   A(6,7,8)              118.307          estimate D2E/DX2                !
 ! A18   A(6,7,17)             121.1373         estimate D2E/DX2                !
 ! A19   A(8,7,17)             120.5557         estimate D2E/DX2                !
 ! A20   A(7,8,9)              121.358          estimate D2E/DX2                !
 ! A21   A(7,8,10)             122.5171         estimate D2E/DX2                !
 ! A22   A(9,8,10)             116.1249         estimate D2E/DX2                !
 ! A23   A(8,9,18)             109.6767         estimate D2E/DX2                !
 ! A24   A(8,9,19)             109.6757         estimate D2E/DX2                !
 ! A25   A(8,9,20)             112.1939         estimate D2E/DX2                !
 ! A26   A(18,9,19)            106.8926         estimate D2E/DX2                !
 ! A27   A(18,9,20)            109.1281         estimate D2E/DX2                !
 ! A28   A(19,9,20)            109.1279         estimate D2E/DX2                !
 ! A29   A(8,10,11)            119.7549         estimate D2E/DX2                !
 ! A30   A(5,11,10)            122.0938         estimate D2E/DX2                !
 ! A31   A(5,11,12)            121.7257         estimate D2E/DX2                !
 ! A32   A(10,11,12)           116.1805         estimate D2E/DX2                !
 ! A33   A(11,12,21)           107.7904         estimate D2E/DX2                !
 ! D1    D(13,1,2,3)            60.2954         estimate D2E/DX2                !
 ! D2    D(14,1,2,3)           179.9999         estimate D2E/DX2                !
 ! D3    D(15,1,2,3)           -60.2963         estimate D2E/DX2                !
 ! D4    D(1,2,3,4)              0.0005         estimate D2E/DX2                !
 ! D5    D(1,2,3,5)           -179.9995         estimate D2E/DX2                !
 ! D6    D(2,3,5,6)             -0.0005         estimate D2E/DX2                !
 ! D7    D(2,3,5,11)           180.0            estimate D2E/DX2                !
 ! D8    D(4,3,5,6)            179.9995         estimate D2E/DX2                !
 ! D9    D(4,3,5,11)             0.0            estimate D2E/DX2                !
 ! D10   D(3,5,6,7)           -180.0            estimate D2E/DX2                !
 ! D11   D(3,5,6,16)             0.0005         estimate D2E/DX2                !
 ! D12   D(11,5,6,7)            -0.0004         estimate D2E/DX2                !
 ! D13   D(11,5,6,16)         -180.0            estimate D2E/DX2                !
 ! D14   D(3,5,11,10)          180.0            estimate D2E/DX2                !
 ! D15   D(3,5,11,12)            0.0            estimate D2E/DX2                !
 ! D16   D(6,5,11,10)            0.0005         estimate D2E/DX2                !
 ! D17   D(6,5,11,12)         -179.9995         estimate D2E/DX2                !
 ! D18   D(5,6,7,8)              0.0            estimate D2E/DX2                !
 ! D19   D(5,6,7,17)           179.9999         estimate D2E/DX2                !
 ! D20   D(16,6,7,8)           179.9995         estimate D2E/DX2                !
 ! D21   D(16,6,7,17)           -0.0006         estimate D2E/DX2                !
 ! D22   D(6,7,8,9)           -179.9996         estimate D2E/DX2                !
 ! D23   D(6,7,8,10)             0.0005         estimate D2E/DX2                !
 ! D24   D(17,7,8,9)             0.0006         estimate D2E/DX2                !
 ! D25   D(17,7,8,10)         -179.9994         estimate D2E/DX2                !
 ! D26   D(7,8,9,18)          -121.4475         estimate D2E/DX2                !
 ! D27   D(7,8,9,19)           121.449          estimate D2E/DX2                !
 ! D28   D(7,8,9,20)             0.0012         estimate D2E/DX2                !
 ! D29   D(10,8,9,18)           58.5525         estimate D2E/DX2                !
 ! D30   D(10,8,9,19)          -58.5511         estimate D2E/DX2                !
 ! D31   D(10,8,9,20)         -179.9988         estimate D2E/DX2                !
 ! D32   D(7,8,10,11)           -0.0005         estimate D2E/DX2                !
 ! D33   D(9,8,10,11)          179.9996         estimate D2E/DX2                !
 ! D34   D(8,10,11,5)            0.0            estimate D2E/DX2                !
 ! D35   D(8,10,11,12)         180.0            estimate D2E/DX2                !
 ! D36   D(5,11,12,21)           0.0            estimate D2E/DX2                !
 ! D37   D(10,11,12,21)        180.0            estimate D2E/DX2                !
 --------------------------------------------------------------------------------
 Trust Radius=3.00D-01 FncErr=1.00D-07 GrdErr=1.00D-06 EigMax=2.50D+02 EigMin=1.00D-04
 Number of steps in this run=    101 maximum allowed number of steps=    126.
 GradGradGradGradGradGradGradGradGradGradGradGradGradGradGradGradGradGrad

                          Input orientation:                          
 ---------------------------------------------------------------------
 Center     Atomic      Atomic             Coordinates (Angstroms)
 Number     Number       Type             X           Y           Z
 ---------------------------------------------------------------------
      1          6           0        3.830380   -0.830220    0.000010
      2          8           0        2.418250   -0.981790    0.000000
      3          6           0        1.697290    0.133290    0.000000
      4          8           0        2.211980    1.239830    0.000000
      5          6           0        0.244130   -0.090430    0.000000
      6          6           0       -0.324960   -1.366810   -0.000010
      7          6           0       -1.702990   -1.503540   -0.000010
      8          6           0       -2.488000   -0.338550    0.000000
      9          6           0       -3.988690   -0.407100    0.000010
     10          7           0       -1.957110    0.881860    0.000000
     11          6           0       -0.638910    1.026120    0.000000
     12          8           0       -0.188620    2.267660    0.000000
     13          1           0        4.162660   -0.282250    0.892890
     14          1           0        4.244230   -1.844150    0.000010
     15          1           0        4.162670   -0.282250   -0.892880
     16          1           0        0.329940   -2.239620   -0.000010
     17          1           0       -2.171940   -2.488000   -0.000020
     18          1           0       -4.383340    0.115800   -0.883590
     19          1           0       -4.383310    0.115820    0.883610
     20          1           0       -4.356550   -1.441400    0.000030
     21          1           0        0.793010    2.230900    0.000000
 ---------------------------------------------------------------------
                    Distance matrix (angstroms):
                    1          2          3          4          5
     1  C    0.000000
     2  O    1.420241   0.000000
     3  C    2.340603   1.327850   0.000000
     4  O    2.627608   2.231175   1.220384   0.000000
     5  C    3.661759   2.349749   1.470280   2.375295   0.000000
     6  C    4.189842   2.770098   2.517895   3.637394   1.397501
     7  C    5.574185   4.154136   3.773740   4.780488   2.405859
     8  C    6.337481   4.948237   4.211803   4.957933   2.743373
     9  C    7.830510   6.432663   5.711601   6.415660   4.244649
    10  N    6.035417   4.755730   3.730281   4.184430   2.406409
    11  C    4.839478   3.657585   2.500995   2.858889   1.423532
    12  O    5.074369   4.165897   2.848191   2.611382   2.397470
    13  H    1.099052   2.080763   2.654802   2.630424   4.023546
    14  H    1.095137   2.019373   3.224465   3.693369   4.367646
    15  H    1.099063   2.080767   2.654808   2.630428   4.023554
    16  H    3.773525   2.437863   2.738676   3.955837   2.150902
    17  H    6.227044   4.830995   4.673553   5.754604   3.403783
    18  H    8.315101   6.946010   6.144518   6.748512   4.715585
    19  H    8.315073   6.945987   6.144491   6.748482   4.715560
    20  H    8.209712   6.790372   6.255288   7.094687   4.794932
    21  H    4.312316   3.600386   2.284226   1.730808   2.385339
                    6          7          8          9         10
     6  C    0.000000
     7  C    1.384797   0.000000
     8  C    2.395007   1.404793   0.000000
     9  C    3.787342   2.535075   1.502255   0.000000
    10  N    2.778566   2.398898   1.330881   2.405979   0.000000
    11  C    2.413437   2.744348   2.298142   3.643507   1.326070
    12  O    3.637026   4.063898   3.475554   4.647028   2.246775
    13  H    4.702369   6.057613   6.710566   8.201057   6.293170
    14  H    4.594056   5.956966   6.898533   8.357397   6.774050
    15  H    4.702373   6.057618   6.710575   8.201068   6.293178
    16  H    1.091188   2.162087   3.399243   4.691343   3.869656
    17  H    2.160649   1.090447   2.172563   2.762377   3.376701
    18  H    4.410135   3.253806   2.139972   1.099965   2.693357
    19  H    4.410123   3.253802   2.139958   1.099963   2.693331
    20  H    4.032280   2.654287   2.169737   1.097769   3.339888
    21  H    3.767409   4.491777   4.167385   5.461108   3.063180
                   11         12         13         14         15
    11  C    0.000000
    12  O    1.320675   0.000000
    13  H    5.056101   5.121809   0.000000
    14  H    5.664230   6.046250   1.800950   0.000000
    15  H    5.056109   5.121816   1.785770   1.800954   0.000000
    16  H    3.406425   4.537012   4.395260   3.934217   4.395263
    17  H    3.833956   5.152656   6.766815   6.448394   6.766817
    18  H    3.953501   4.796552   8.737759   8.891407   8.555280
    19  H    3.953472   4.796520   8.555241   8.891382   8.737743
    20  H    4.462007   5.579316   8.643944   8.610205   8.643959
    21  H    1.871334   0.982318   4.297408   5.340127   4.297414
                   16         17         18         19         20
    16  H    0.000000
    17  H    2.514179   0.000000
    18  H    5.342633   3.528563   0.000000
    19  H    5.342622   3.528574   1.767200   0.000000
    20  H    4.753982   2.422373   1.790635   1.790632   0.000000
    21  H    4.494439   5.573055   5.661182   5.661150   6.324852
                   21
    21  H    0.000000
 Stoichiometry    C8H9NO3
 Framework group  C1[X(C8H9NO3)]
 Deg. of freedom    57
 Full point group                 C1      NOp   1
 Largest Abelian subgroup         C1      NOp   1
 Largest concise Abelian subgroup C1      NOp   1
                         Standard orientation:                         
 ---------------------------------------------------------------------
 Center     Atomic      Atomic             Coordinates (Angstroms)
 Number     Number       Type             X           Y           Z
 ---------------------------------------------------------------------
      1          6           0        3.830380   -0.830222    0.000010
      2          8           0        2.418250   -0.981791   -0.000000
      3          6           0        1.697290    0.133289   -0.000000
      4          8           0        2.211981    1.239829   -0.000000
      5          6           0        0.244130   -0.090430   -0.000000
      6          6           0       -0.324960   -1.366810   -0.000010
      7          6           0       -1.702990   -1.503540   -0.000010
      8          6           0       -2.488000   -0.338549   -0.000000
      9          6           0       -3.988690   -0.407099    0.000010
     10          7           0       -1.957109    0.881860   -0.000000
     11          6           0       -0.638909    1.026120   -0.000000
     12          8           0       -0.188619    2.267660   -0.000000
     13          1           0        4.162660   -0.282252    0.892890
     14          1           0        4.244230   -1.844152    0.000010
     15          1           0        4.162670   -0.282252   -0.892880
     16          1           0        0.329939   -2.239620   -0.000010
     17          1           0       -2.171941   -2.488000   -0.000020
     18          1           0       -4.383340    0.115801   -0.883590
     19          1           0       -4.383310    0.115821    0.883610
     20          1           0       -4.356550   -1.441399    0.000030
     21          1           0        0.793011    2.230899   -0.000000
 ---------------------------------------------------------------------
 Rotational constants (GHZ):           2.1760312           0.5855263           0.4640737
 Standard basis: def2SVP (5D, 7F)
 There are   225 symmetry adapted cartesian basis functions of A   symmetry.
 There are   213 symmetry adapted basis functions of A   symmetry.
   213 basis functions,   363 primitive gaussians,   225 cartesian basis functions
    44 alpha electrons       44 beta electrons
       nuclear repulsion energy       691.9860897115 Hartrees.
 NAtoms=   21 NActive=   21 NUniq=   21 SFac= 1.00D+00 NAtFMM=   60 NAOKFM=F Big=F
 Integral buffers will be    131072 words long.
 Raffenetti 2 integral format.
 Two-electron integral symmetry is turned on.
 Nuclear repulsion after empirical dispersion term =      691.9762774484 Hartrees.
 One-electron integrals computed using PRISM.
   1 Symmetry operations used in ECPInt.
 ECPInt:  NShTT=    4950 NPrTT=   18138 LenC2=    4695 LenP2D=   12819.
 LDataN:  DoStor=T MaxTD1= 4 Len=   56
 NBasis=   213 RedAO= T EigKep=  5.72D-04  NBF=   213
 NBsUse=   213 1.00D-06 EigRej= -1.00D+00 NBFU=   213
 ExpMin= 1.22D-01 ExpMax= 2.27D+03 ExpMxC= 3.41D+02 IAcc=3 IRadAn=         5 AccDes= 0.00D+00
 Harris functional with IExCor= 4639 and IRadAn=       5 diagonalized for initial guess.
 HarFok:  IExCor= 4639 AccDes= 0.00D+00 IRadAn=         5 IDoV= 1 UseB2=F ITyADJ=14
 ICtDFT=  3500011 ScaDFX=  1.000000  1.000000  1.000000  1.000000
 FoFCou: FMM=F IPFlag=           0 FMFlag=      100000 FMFlg1=           0
         NFxFlg=           0 DoJE=T BraDBF=F KetDBF=T FulRan=T
         wScrn=  0.000000 ICntrl=       500 IOpCl=  0 I1Cent=   200000004 NGrid=           0
         NMat0=    1 NMatS0=      1 NMatT0=    0 NMatD0=    1 NMtDS0=    0 NMtDT0=    0
 Petite list used in FoFCou.
 Requested convergence on RMS density matrix=1.00D-08 within 128 cycles.
 Requested convergence on MAX density matrix=1.00D-06.
 Requested convergence on             energy=1.00D-06.
 No special actions if energy rises.
 Integral accuracy reduced to 1.0D-05 until final iterations.
 Initial convergence to 1.0D-05 achieved.  Increase integral accuracy.
 SCF Done:  E(RwB97XD) =  -590.104821301     A.U. after   16 cycles
            NFock= 16  Conv=0.56D-08     -V/T= 2.0094

 **********************************************************************

            Population analysis using the SCF Density.

 **********************************************************************

 Orbital symmetries:
       Occupied  (A) (A) (A) (A) (A) (A) (A) (A) (A) (A) (A) (A)
                 (A) (A) (A) (A) (A) (A) (A) (A) (A) (A) (A) (A)
                 (A) (A) (A) (A) (A) (A) (A) (A) (A) (A) (A) (A)
                 (A) (A) (A) (A) (A) (A) (A) (A)
       Virtual   (A) (A) (A) (A) (A) (A) (A) (A) (A) (A) (A) (A)
                 (A) (A) (A) (A) (A) (A) (A) (A) (A) (A) (A) (A)
                 (A) (A) (A) (A) (A) (A) (A) (A) (A) (A) (A) (A)
                 (A) (A) (A) (A) (A) (A) (A) (A) (A) (A) (A) (A)
                 (A) (A) (A) (A) (A) (A) (A) (A) (A) (A) (A) (A)
                 (A) (A) (A) (A) (A) (A) (A) (A) (A) (A) (A) (A)
                 (A) (A) (A) (A) (A) (A) (A) (A) (A) (A) (A) (A)
                 (A) (A) (A) (A) (A) (A) (A) (A) (A) (A) (A) (A)
                 (A) (A) (A) (A) (A) (A) (A) (A) (A) (A) (A) (A)
                 (A) (A) (A) (A) (A) (A) (A) (A) (A) (A) (A) (A)
                 (A) (A) (A) (A) (A) (A) (A) (A) (A) (A) (A) (A)
                 (A) (A) (A) (A) (A) (A) (A) (A) (A) (A) (A) (A)
                 (A) (A) (A) (A) (A) (A) (A) (A) (A) (A) (A) (A)
                 (A) (A) (A) (A) (A) (A) (A) (A) (A) (A) (A) (A)
                 (A)
 The electronic state is 1-A.
 Alpha  occ. eigenvalues --  -19.32211 -19.28009 -19.26608 -14.43269 -10.44938
 Alpha  occ. eigenvalues --  -10.40478 -10.36860 -10.35598 -10.33337 -10.32007
 Alpha  occ. eigenvalues --  -10.30651 -10.29925  -1.22691  -1.17088  -1.12629
 Alpha  occ. eigenvalues --   -1.04006  -0.92155  -0.88017  -0.84646  -0.80126
 Alpha  occ. eigenvalues --   -0.73695  -0.71903  -0.68877  -0.64301  -0.62148
 Alpha  occ. eigenvalues --   -0.60600  -0.59791  -0.57912  -0.55482  -0.54338
 Alpha  occ. eigenvalues --   -0.52644  -0.51184  -0.50932  -0.49106  -0.48213
 Alpha  occ. eigenvalues --   -0.46849  -0.46442  -0.45443  -0.43344  -0.40871
 Alpha  occ. eigenvalues --   -0.38642  -0.36935  -0.34543  -0.31637
 Alpha virt. eigenvalues --    0.00567   0.06018   0.11508   0.14442   0.15260
 Alpha virt. eigenvalues --    0.16956   0.19050   0.19410   0.20723   0.21061
 Alpha virt. eigenvalues --    0.21796   0.22182   0.24288   0.26264   0.28997
 Alpha virt. eigenvalues --    0.30401   0.31568   0.33766   0.35988   0.36728
 Alpha virt. eigenvalues --    0.38026   0.39777   0.45918   0.45972   0.47832
 Alpha virt. eigenvalues --    0.50755   0.50842   0.51198   0.52204   0.52845
 Alpha virt. eigenvalues --    0.53471   0.54073   0.56165   0.58193   0.60061
 Alpha virt. eigenvalues --    0.61656   0.62323   0.63550   0.65827   0.67622
 Alpha virt. eigenvalues --    0.69155   0.69649   0.71006   0.71589   0.72345
 Alpha virt. eigenvalues --    0.72627   0.73325   0.74470   0.75202   0.76280
 Alpha virt. eigenvalues --    0.76907   0.77260   0.78490   0.79282   0.81215
 Alpha virt. eigenvalues --    0.82641   0.84705   0.87564   0.89972   0.91852
 Alpha virt. eigenvalues --    0.92366   0.95949   1.00694   1.00982   1.05979
 Alpha virt. eigenvalues --    1.07103   1.08415   1.10840   1.14098   1.17768
 Alpha virt. eigenvalues --    1.19942   1.22534   1.23986   1.25269   1.30815
 Alpha virt. eigenvalues --    1.31728   1.33270   1.34653   1.35432   1.37811
 Alpha virt. eigenvalues --    1.40938   1.41141   1.44352   1.46397   1.48421
 Alpha virt. eigenvalues --    1.52680   1.56478   1.58199   1.60749   1.61373
 Alpha virt. eigenvalues --    1.63969   1.65315   1.65668   1.66963   1.70691
 Alpha virt. eigenvalues --    1.75849   1.76903   1.77656   1.78461   1.80197
 Alpha virt. eigenvalues --    1.81021   1.84625   1.85163   1.86237   1.86707
 Alpha virt. eigenvalues --    1.89425   1.90348   1.90756   1.92803   1.94977
 Alpha virt. eigenvalues --    1.96952   1.97114   2.01994   2.02962   2.05966
 Alpha virt. eigenvalues --    2.08684   2.12232   2.12610   2.13671   2.18691
 Alpha virt. eigenvalues --    2.20379   2.23454   2.26237   2.28585   2.30602
 Alpha virt. eigenvalues --    2.31761   2.34161   2.38344   2.39239   2.40875
 Alpha virt. eigenvalues --    2.46987   2.47798   2.48059   2.49424   2.54291
 Alpha virt. eigenvalues --    2.58783   2.59824   2.68696   2.69191   2.69676
 Alpha virt. eigenvalues --    2.72555   2.73918   2.78999   2.81832   2.86192
 Alpha virt. eigenvalues --    2.87189   2.88159   2.90376   2.93992   2.96607
 Alpha virt. eigenvalues --    2.97881   3.01613   3.01770   3.04115   3.05230
 Alpha virt. eigenvalues --    3.07784   3.09993   3.14795   3.18672   3.25758
 Alpha virt. eigenvalues --    3.28081   3.30199   3.41045   3.50371   3.60182
 Alpha virt. eigenvalues --    3.62435   3.74535   3.81652   3.94793
          Condensed to atoms (all electrons):
               1          2          3          4          5          6
     1  C    4.412959   0.263902  -0.033652   0.000071   0.010839  -0.000429
     2  O    0.263902   7.882983   0.443035  -0.077358  -0.146336   0.016089
     3  C   -0.033652   0.443035   4.568488   0.650690   0.172590  -0.047154
     4  O    0.000071  -0.077358   0.650690   7.802783  -0.112595   0.003801
     5  C    0.010839  -0.146336   0.172590  -0.112595   5.977998   0.357121
     6  C   -0.000429   0.016089  -0.047154   0.003801   0.357121   4.838464
     7  C    0.000011   0.000632   0.010486  -0.000070   0.014634   0.418299
     8  C    0.000001   0.000007   0.002395   0.000030  -0.063342  -0.003094
     9  C    0.000000  -0.000000   0.000073   0.000000   0.000941   0.007229
    10  N    0.000002  -0.000013   0.004636   0.000043  -0.107356  -0.029424
    11  C   -0.000021  -0.000570  -0.051222  -0.001107   0.292493  -0.024348
    12  O    0.000013  -0.000050  -0.001918  -0.026289  -0.110200   0.000480
    13  H    0.406589  -0.025823  -0.004433   0.006621   0.000341   0.000080
    14  H    0.399806  -0.021585   0.003800   0.000647   0.000388  -0.000232
    15  H    0.406589  -0.025823  -0.004433   0.006621   0.000341   0.000080
    16  H   -0.000370   0.011687  -0.017854   0.000221  -0.054849   0.441737
    17  H    0.000000  -0.000019  -0.000213   0.000001   0.011892  -0.054447
    18  H   -0.000000   0.000000  -0.000002  -0.000000   0.000212  -0.000554
    19  H   -0.000000   0.000000  -0.000002  -0.000000   0.000212  -0.000554
    20  H   -0.000000   0.000000  -0.000003   0.000000  -0.000152   0.001683
    21  H   -0.000040   0.001105  -0.001198   0.057748  -0.030130   0.000109
               7          8          9         10         11         12
     1  C    0.000011   0.000001   0.000000   0.000002  -0.000021   0.000013
     2  O    0.000632   0.000007  -0.000000  -0.000013  -0.000570  -0.000050
     3  C    0.010486   0.002395   0.000073   0.004636  -0.051222  -0.001918
     4  O   -0.000070   0.000030   0.000000   0.000043  -0.001107  -0.026289
     5  C    0.014634  -0.063342   0.000941  -0.107356   0.292493  -0.110200
     6  C    0.418299  -0.003094   0.007229  -0.029424  -0.024348   0.000480
     7  C    5.013322   0.428207  -0.092568  -0.052187  -0.067924   0.000420
     8  C    0.428207   4.928817   0.400881   0.510968  -0.037907   0.001811
     9  C   -0.092568   0.400881   4.578690  -0.081413   0.006891   0.000011
    10  N   -0.052187   0.510968  -0.081413   6.383398   0.566220  -0.080044
    11  C   -0.067924  -0.037907   0.006891   0.566220   4.664233   0.498649
    12  O    0.000420   0.001811   0.000011  -0.080044   0.498649   7.548234
    13  H    0.000004  -0.000000   0.000000  -0.000000  -0.000008   0.000000
    14  H   -0.000005  -0.000000  -0.000000  -0.000000   0.000017   0.000000
    15  H    0.000004  -0.000000   0.000000  -0.000000  -0.000008   0.000000
    16  H   -0.051564   0.011139  -0.000281  -0.000127   0.008068  -0.000065
    17  H    0.425949  -0.044107  -0.009638   0.005130   0.001145   0.000015
    18  H    0.004623  -0.008677   0.376302   0.001926  -0.000017  -0.000019
    19  H    0.004624  -0.008678   0.376301   0.001927  -0.000017  -0.000019
    20  H   -0.009681  -0.013894   0.384877   0.005284  -0.000197   0.000000
    21  H   -0.000055  -0.000253   0.000009   0.004152   0.006030   0.329132
              13         14         15         16         17         18
     1  C    0.406589   0.399806   0.406589  -0.000370   0.000000  -0.000000
     2  O   -0.025823  -0.021585  -0.025823   0.011687  -0.000019   0.000000
     3  C   -0.004433   0.003800  -0.004433  -0.017854  -0.000213  -0.000002
     4  O    0.006621   0.000647   0.006621   0.000221   0.000001  -0.000000
     5  C    0.000341   0.000388   0.000341  -0.054849   0.011892   0.000212
     6  C    0.000080  -0.000232   0.000080   0.441737  -0.054447  -0.000554
     7  C    0.000004  -0.000005   0.000004  -0.051564   0.425949   0.004623
     8  C   -0.000000  -0.000000  -0.000000   0.011139  -0.044107  -0.008677
     9  C    0.000000  -0.000000   0.000000  -0.000281  -0.009638   0.376302
    10  N   -0.000000  -0.000000  -0.000000  -0.000127   0.005130   0.001926
    11  C   -0.000008   0.000017  -0.000008   0.008068   0.001145  -0.000017
    12  O    0.000000   0.000000   0.000000  -0.000065   0.000015  -0.000019
    13  H    0.609107  -0.022748  -0.028527   0.000079  -0.000000  -0.000000
    14  H   -0.022748   0.603448  -0.022748  -0.000230   0.000000   0.000000
    15  H   -0.028527  -0.022748   0.609107   0.000079  -0.000000   0.000000
    16  H    0.000079  -0.000230   0.000079   0.625142  -0.009511   0.000008
    17  H   -0.000000   0.000000  -0.000000  -0.009511   0.655884   0.000125
    18  H   -0.000000   0.000000   0.000000   0.000008   0.000125   0.590745
    19  H    0.000000   0.000000  -0.000000   0.000008   0.000125  -0.010420
    20  H    0.000000  -0.000000   0.000000   0.000019   0.002384  -0.018782
    21  H   -0.000006  -0.000001  -0.000006  -0.000022  -0.000001   0.000001
              19         20         21
     1  C   -0.000000  -0.000000  -0.000040
     2  O    0.000000   0.000000   0.001105
     3  C   -0.000002  -0.000003  -0.001198
     4  O   -0.000000   0.000000   0.057748
     5  C    0.000212  -0.000152  -0.030130
     6  C   -0.000554   0.001683   0.000109
     7  C    0.004624  -0.009681  -0.000055
     8  C   -0.008678  -0.013894  -0.000253
     9  C    0.376301   0.384877   0.000009
    10  N    0.001927   0.005284   0.004152
    11  C   -0.000017  -0.000197   0.006030
    12  O   -0.000019   0.000000   0.329132
    13  H    0.000000   0.000000  -0.000006
    14  H    0.000000  -0.000000  -0.000001
    15  H   -0.000000   0.000000  -0.000006
    16  H    0.000008   0.000019  -0.000022
    17  H    0.000125   0.002384  -0.000001
    18  H   -0.010420  -0.018782   0.000001
    19  H    0.590747  -0.018781   0.000001
    20  H   -0.018781   0.640483  -0.000000
    21  H    0.000001  -0.000000   0.430560
 Mulliken charges:
               1
     1  C    0.133729
     2  O   -0.321863
     3  C    0.305890
     4  O   -0.311858
     5  C   -0.215045
     6  C    0.075062
     7  C   -0.047161
     8  C   -0.104305
     9  C    0.051693
    10  N   -0.133122
    11  C    0.139600
    12  O   -0.160163
    13  H    0.058723
    14  H    0.059444
    15  H    0.058725
    16  H    0.036686
    17  H    0.015287
    18  H    0.064528
    19  H    0.064527
    20  H    0.026759
    21  H    0.202863
 Sum of Mulliken charges =  -0.00000
 Mulliken charges with hydrogens summed into heavy atoms:
               1
     1  C    0.310622
     2  O   -0.321863
     3  C    0.305890
     4  O   -0.311858
     5  C   -0.215045
     6  C    0.111748
     7  C   -0.031874
     8  C   -0.104305
     9  C    0.207507
    10  N   -0.133122
    11  C    0.139600
    12  O    0.042701
 Electronic spatial extent (au):  <R**2>=           2346.6805
 Charge=             -0.0000 electrons
 Dipole moment (field-independent basis, Debye):
    X=              1.7080    Y=             -3.8969    Z=              0.0000  Tot=              4.2548
 Quadrupole moment (field-independent basis, Debye-Ang):
   XX=            -55.9757   YY=            -72.5265   ZZ=            -69.2459
   XY=              1.2485   XZ=              0.0001   YZ=              0.0000
 Traceless Quadrupole moment (field-independent basis, Debye-Ang):
   XX=              9.9403   YY=             -6.6105   ZZ=             -3.3298
   XY=              1.2485   XZ=              0.0001   YZ=              0.0000
 Octapole moment (field-independent basis, Debye-Ang**2):
  XXX=             42.9356  YYY=            -10.9351  ZZZ=              0.0001  XYY=             11.8571
  XXY=            -25.7935  XXZ=              0.0002  XZZ=              9.4009  YZZ=              6.6143
  YYZ=             -0.0000  XYZ=             -0.0001
 Hexadecapole moment (field-independent basis, Debye-Ang**3):
 XXXX=          -2022.7747 YYYY=           -610.7440 ZZZZ=            -78.7041 XXXY=            -53.4270
 XXXZ=              0.0014 YYYX=             18.8057 YYYZ=             -0.0001 ZZZX=             -0.0001
 ZZZY=             -0.0003 XXYY=           -491.6862 XXZZ=           -390.8478 YYZZ=           -120.3711
 XXYZ=             -0.0003 YYXZ=              0.0001 ZZXY=             -4.6135
 N-N= 6.919762774484D+02 E-N=-2.760243525368D+03  KE= 5.846272991150D+02
   1 Symmetry operations used in ECPInt.
 ECPInt:  NShTT=    4950 NPrTT=   18138 LenC2=    4695 LenP2D=   12819.
 LDataN:  DoStor=T MaxTD1= 5 Len=  102
 Calling FoFJK, ICntrl=      2127 FMM=F ISym2X=0 I1Cent= 0 IOpClX= 0 NMat=1 NMatS=1 NMatT=0.
 ***** Axes restored to original set *****
 -------------------------------------------------------------------
 Center     Atomic                   Forces (Hartrees/Bohr)
 Number     Number              X              Y              Z
 -------------------------------------------------------------------
      1        6          -0.000006196   -0.000001216   -0.000006877
      2        8           0.000006447   -0.000002413    0.000000577
      3        6           0.000002837    0.000009672    0.000000045
      4        8          -0.000002513   -0.000001401    0.000000131
      5        6          -0.000011461   -0.000004005   -0.000000639
      6        6           0.000007501    0.000010184    0.000000802
      7        6          -0.000004033   -0.000006475   -0.000000151
      8        6          -0.000005591   -0.000004492   -0.000001286
      9        6          -0.000000587    0.000000775    0.000000539
     10        7           0.000004161    0.000007300    0.000000494
     11        6           0.000007683   -0.000000665   -0.000000106
     12        8          -0.000006354   -0.000001883    0.000000059
     13        1           0.000001875    0.000006036    0.000005652
     14        1           0.000001285    0.000002172    0.000000272
     15        1           0.000000116    0.000002659    0.000000406
     16        1           0.000002120   -0.000002820   -0.000000331
     17        1           0.000001265   -0.000000747    0.000000276
     18        1           0.000001074   -0.000004216    0.000001394
     19        1          -0.000000278   -0.000003827   -0.000001005
     20        1          -0.000000010   -0.000004787   -0.000000234
     21        1           0.000000661    0.000000149   -0.000000020
 -------------------------------------------------------------------
 Cartesian Forces:  Max     0.000011461 RMS     0.000003985

 GradGradGradGradGradGradGradGradGradGradGradGradGradGradGradGradGradGrad
 Berny optimization.
 FormGI is forming the generalized inverse of G from B-inverse, IUseBI=4.
 Internal  Forces:  Max     0.000009157 RMS     0.000002038
 Search for a local minimum.
 Step number   1 out of a maximum of  101
 All quantities printed in internal units (Hartrees-Bohrs-Radians)
 Mixed Optimization -- En-DIIS/RFO-DIIS
 Second derivative matrix not updated -- first step.
 ITU=  0
     Eigenvalues ---    0.00736   0.01159   0.01424   0.01542   0.01643
     Eigenvalues ---    0.01727   0.01972   0.02132   0.02173   0.02206
     Eigenvalues ---    0.02227   0.02507   0.02646   0.02741   0.07098
     Eigenvalues ---    0.07515   0.10225   0.10644   0.16000   0.16000
     Eigenvalues ---    0.16000   0.16000   0.16000   0.16000   0.16000
     Eigenvalues ---    0.16000   0.16000   0.22485   0.24498   0.25000
     Eigenvalues ---    0.25000   0.25000   0.25000   0.25000   0.25000
     Eigenvalues ---    0.25000   0.32142   0.33686   0.33686   0.33786
     Eigenvalues ---    0.33787   0.33930   0.34226   0.34676   0.34761
     Eigenvalues ---    0.35707   0.40047   0.42424   0.43768   0.44540
     Eigenvalues ---    0.47144   0.50937   0.57288   0.59133   0.60016
     Eigenvalues ---    0.61764   0.95213
 RFO step:  Lambda= 0.00000000D+00 EMin= 7.36120428D-03
 Linear search not attempted -- first point.
 Iteration  1 RMS(Cart)=  0.00001096 RMS(Int)=  0.00000000
 Iteration  2 RMS(Cart)=  0.00000000 RMS(Int)=  0.00000000
 Variable       Old X    -DE/DX   Delta X   Delta X   Delta X     New X
                                 (Linear)    (Quad)   (Total)
    R1        2.68387  -0.00000   0.00000  -0.00001  -0.00001   2.68386
    R2        2.07691   0.00001   0.00000   0.00002   0.00002   2.07693
    R3        2.06951   0.00000   0.00000   0.00000   0.00000   2.06951
    R4        2.07693  -0.00000   0.00000  -0.00000  -0.00000   2.07693
    R5        2.50927   0.00000   0.00000   0.00001   0.00001   2.50928
    R6        2.30619  -0.00000   0.00000  -0.00000  -0.00000   2.30619
    R7        2.77843   0.00000   0.00000   0.00001   0.00001   2.77844
    R8        2.64089  -0.00001   0.00000  -0.00001  -0.00001   2.64088
    R9        2.69009  -0.00000   0.00000  -0.00001  -0.00001   2.69007
   R10        2.61689   0.00000   0.00000   0.00001   0.00001   2.61690
   R11        2.06205   0.00000   0.00000   0.00001   0.00001   2.06206
   R12        2.65467   0.00000   0.00000   0.00001   0.00001   2.65468
   R13        2.06065  -0.00000   0.00000  -0.00000  -0.00000   2.06065
   R14        2.83885   0.00000   0.00000   0.00000   0.00000   2.83885
   R15        2.51500   0.00001   0.00000   0.00002   0.00002   2.51502
   R16        2.07863  -0.00000   0.00000  -0.00001  -0.00001   2.07862
   R17        2.07863  -0.00000   0.00000  -0.00000  -0.00000   2.07863
   R18        2.07448   0.00000   0.00000   0.00001   0.00001   2.07449
   R19        2.50591   0.00000   0.00000   0.00000   0.00000   2.50591
   R20        2.49571  -0.00000   0.00000  -0.00000  -0.00000   2.49571
   R21        1.85631   0.00000   0.00000   0.00000   0.00000   1.85632
    A1        1.93245  -0.00000   0.00000  -0.00000  -0.00000   1.93245
    A2        1.85140   0.00000   0.00000   0.00000   0.00000   1.85140
    A3        1.93244   0.00000   0.00000   0.00000   0.00000   1.93245
    A4        1.92555  -0.00000   0.00000  -0.00000  -0.00000   1.92555
    A5        1.89655  -0.00000   0.00000  -0.00000  -0.00000   1.89654
    A6        1.92555   0.00000   0.00000   0.00000   0.00000   1.92555
    A7        2.03782  -0.00000   0.00000  -0.00000  -0.00000   2.03782
    A8        2.13228   0.00000   0.00000   0.00000   0.00000   2.13228
    A9        1.99199  -0.00000   0.00000  -0.00000  -0.00000   1.99199
   A10        2.15892  -0.00000   0.00000  -0.00000  -0.00000   2.15892
   A11        2.14296  -0.00000   0.00000   0.00000   0.00000   2.14296
   A12        2.08719  -0.00000   0.00000  -0.00001  -0.00001   2.08718
   A13        2.05304   0.00000   0.00000   0.00001   0.00001   2.05305
   A14        2.08910   0.00000   0.00000   0.00000   0.00000   2.08911
   A15        2.07847   0.00000   0.00000   0.00001   0.00001   2.07847
   A16        2.11561  -0.00000   0.00000  -0.00001  -0.00001   2.11561
   A17        2.06485  -0.00000   0.00000  -0.00001  -0.00001   2.06484
   A18        2.11425   0.00000   0.00000   0.00000   0.00000   2.11425
   A19        2.10409   0.00000   0.00000   0.00000   0.00000   2.10409
   A20        2.11810  -0.00000   0.00000  -0.00001  -0.00001   2.11808
   A21        2.13833  -0.00000   0.00000  -0.00000  -0.00000   2.13832
   A22        2.02676   0.00000   0.00000   0.00002   0.00002   2.02678
   A23        1.91422  -0.00000   0.00000  -0.00001  -0.00001   1.91421
   A24        1.91420   0.00000   0.00000   0.00001   0.00001   1.91421
   A25        1.95815  -0.00000   0.00000  -0.00000  -0.00000   1.95815
   A26        1.86563   0.00000   0.00000   0.00001   0.00001   1.86563
   A27        1.90464  -0.00000   0.00000  -0.00000  -0.00000   1.90464
   A28        1.90464  -0.00000   0.00000  -0.00000  -0.00000   1.90464
   A29        2.09012  -0.00000   0.00000   0.00000   0.00000   2.09012
   A30        2.13094   0.00000   0.00000  -0.00000  -0.00000   2.13094
   A31        2.12451   0.00000   0.00000   0.00001   0.00001   2.12452
   A32        2.02773  -0.00000   0.00000  -0.00001  -0.00001   2.02773
   A33        1.88130  -0.00000   0.00000  -0.00000  -0.00000   1.88129
    D1        1.05235  -0.00000   0.00000  -0.00000  -0.00000   1.05235
    D2        3.14159  -0.00000   0.00000  -0.00000  -0.00000   3.14159
    D3       -1.05237   0.00000   0.00000   0.00000   0.00000  -1.05237
    D4        0.00001  -0.00000   0.00000  -0.00001  -0.00001   0.00000
    D5       -3.14158  -0.00000   0.00000  -0.00001  -0.00001  -3.14159
    D6       -0.00001   0.00000   0.00000   0.00001   0.00001  -0.00000
    D7        3.14159  -0.00000   0.00000  -0.00000  -0.00000   3.14159
    D8        3.14158   0.00000   0.00000   0.00001   0.00001   3.14159
    D9        0.00000  -0.00000   0.00000  -0.00000  -0.00000  -0.00000
   D10       -3.14159   0.00000   0.00000   0.00000   0.00000  -3.14159
   D11        0.00001  -0.00000   0.00000  -0.00001  -0.00001  -0.00000
   D12       -0.00001   0.00000   0.00000   0.00001   0.00001   0.00000
   D13       -3.14159  -0.00000   0.00000  -0.00000  -0.00000   3.14159
   D14        3.14159   0.00000   0.00000   0.00000   0.00000  -3.14159
   D15        0.00000   0.00000   0.00000   0.00000   0.00000   0.00000
   D16        0.00001  -0.00000   0.00000  -0.00001  -0.00001   0.00000
   D17       -3.14158  -0.00000   0.00000  -0.00001  -0.00001  -3.14159
   D18        0.00000  -0.00000   0.00000  -0.00000  -0.00000  -0.00000
   D19        3.14159  -0.00000   0.00000   0.00000   0.00000   3.14159
   D20        3.14158   0.00000   0.00000   0.00001   0.00001   3.14159
   D21       -0.00001   0.00000   0.00000   0.00001   0.00001  -0.00000
   D22       -3.14159  -0.00000   0.00000  -0.00000  -0.00000  -3.14159
   D23        0.00001  -0.00000   0.00000  -0.00001  -0.00001   0.00000
   D24        0.00001  -0.00000   0.00000  -0.00000  -0.00000   0.00001
   D25       -3.14158  -0.00000   0.00000  -0.00001  -0.00001  -3.14159
   D26       -2.11966   0.00000   0.00000   0.00000   0.00000  -2.11966
   D27        2.11968  -0.00000   0.00000  -0.00001  -0.00001   2.11968
   D28        0.00002  -0.00000   0.00000  -0.00001  -0.00001   0.00001
   D29        1.02193   0.00000   0.00000   0.00001   0.00001   1.02194
   D30       -1.02191  -0.00000   0.00000  -0.00000  -0.00000  -1.02191
   D31       -3.14157  -0.00000   0.00000  -0.00000  -0.00000  -3.14158
   D32       -0.00001   0.00000   0.00000   0.00001   0.00001   0.00000
   D33        3.14159   0.00000   0.00000   0.00000   0.00000   3.14159
   D34        0.00000  -0.00000   0.00000  -0.00000  -0.00000  -0.00000
   D35        3.14159  -0.00000   0.00000  -0.00000  -0.00000   3.14159
   D36        0.00000   0.00000   0.00000   0.00000   0.00000   0.00000
   D37        3.14159   0.00000   0.00000   0.00000   0.00000  -3.14159
         Item               Value     Threshold  Converged?
 Maximum Force            0.000009     0.000450     YES
 RMS     Force            0.000002     0.000300     YES
 Maximum Displacement     0.000037     0.001800     YES
 RMS     Displacement     0.000011     0.001200     YES
 Predicted change in Energy=-4.915166D-10
 Optimization completed.
    -- Stationary point found.
                           ----------------------------
                           !   Optimized Parameters   !
                           ! (Angstroms and Degrees)  !
 --------------------------                            --------------------------
 ! Name  Definition              Value          Derivative Info.                !
 --------------------------------------------------------------------------------
 ! R1    R(1,2)                  1.4202         -DE/DX =    0.0                 !
 ! R2    R(1,13)                 1.0991         -DE/DX =    0.0                 !
 ! R3    R(1,14)                 1.0951         -DE/DX =    0.0                 !
 ! R4    R(1,15)                 1.0991         -DE/DX =    0.0                 !
 ! R5    R(2,3)                  1.3279         -DE/DX =    0.0                 !
 ! R6    R(3,4)                  1.2204         -DE/DX =    0.0                 !
 ! R7    R(3,5)                  1.4703         -DE/DX =    0.0                 !
 ! R8    R(5,6)                  1.3975         -DE/DX =    0.0                 !
 ! R9    R(5,11)                 1.4235         -DE/DX =    0.0                 !
 ! R10   R(6,7)                  1.3848         -DE/DX =    0.0                 !
 ! R11   R(6,16)                 1.0912         -DE/DX =    0.0                 !
 ! R12   R(7,8)                  1.4048         -DE/DX =    0.0                 !
 ! R13   R(7,17)                 1.0904         -DE/DX =    0.0                 !
 ! R14   R(8,9)                  1.5023         -DE/DX =    0.0                 !
 ! R15   R(8,10)                 1.3309         -DE/DX =    0.0                 !
 ! R16   R(9,18)                 1.1            -DE/DX =    0.0                 !
 ! R17   R(9,19)                 1.1            -DE/DX =    0.0                 !
 ! R18   R(9,20)                 1.0978         -DE/DX =    0.0                 !
 ! R19   R(10,11)                1.3261         -DE/DX =    0.0                 !
 ! R20   R(11,12)                1.3207         -DE/DX =    0.0                 !
 ! R21   R(12,21)                0.9823         -DE/DX =    0.0                 !
 ! A1    A(2,1,13)             110.7213         -DE/DX =    0.0                 !
 ! A2    A(2,1,14)             106.0772         -DE/DX =    0.0                 !
 ! A3    A(2,1,15)             110.7209         -DE/DX =    0.0                 !
 ! A4    A(13,1,14)            110.326          -DE/DX =    0.0                 !
 ! A5    A(13,1,15)            108.664          -DE/DX =    0.0                 !
 ! A6    A(14,1,15)            110.3256         -DE/DX =    0.0                 !
 ! A7    A(1,2,3)              116.7585         -DE/DX =    0.0                 !
 ! A8    A(2,3,4)              122.1704         -DE/DX =    0.0                 !
 ! A9    A(2,3,5)              114.1327         -DE/DX =    0.0                 !
 ! A10   A(4,3,5)              123.697          -DE/DX =    0.0                 !
 ! A11   A(3,5,6)              122.7825         -DE/DX =    0.0                 !
 ! A12   A(3,5,11)             119.587          -DE/DX =    0.0                 !
 ! A13   A(6,5,11)             117.6305         -DE/DX =    0.0                 !
 ! A14   A(5,6,7)              119.6967         -DE/DX =    0.0                 !
 ! A15   A(5,6,16)             119.0875         -DE/DX =    0.0                 !
 ! A16   A(7,6,16)             121.2158         -DE/DX =    0.0                 !
 ! A17   A(6,7,8)              118.307          -DE/DX =    0.0                 !
 ! A18   A(6,7,17)             121.1373         -DE/DX =    0.0                 !
 ! A19   A(8,7,17)             120.5557         -DE/DX =    0.0                 !
 ! A20   A(7,8,9)              121.358          -DE/DX =    0.0                 !
 ! A21   A(7,8,10)             122.5171         -DE/DX =    0.0                 !
 ! A22   A(9,8,10)             116.1249         -DE/DX =    0.0                 !
 ! A23   A(8,9,18)             109.6767         -DE/DX =    0.0                 !
 ! A24   A(8,9,19)             109.6757         -DE/DX =    0.0                 !
 ! A25   A(8,9,20)             112.1939         -DE/DX =    0.0                 !
 ! A26   A(18,9,19)            106.8926         -DE/DX =    0.0                 !
 ! A27   A(18,9,20)            109.1281         -DE/DX =    0.0                 !
 ! A28   A(19,9,20)            109.1279         -DE/DX =    0.0                 !
 ! A29   A(8,10,11)            119.7549         -DE/DX =    0.0                 !
 ! A30   A(5,11,10)            122.0938         -DE/DX =    0.0                 !
 ! A31   A(5,11,12)            121.7257         -DE/DX =    0.0                 !
 ! A32   A(10,11,12)           116.1805         -DE/DX =    0.0                 !
 ! A33   A(11,12,21)           107.7904         -DE/DX =    0.0                 !
 ! D1    D(13,1,2,3)            60.2954         -DE/DX =    0.0                 !
 ! D2    D(14,1,2,3)           179.9999         -DE/DX =    0.0                 !
 ! D3    D(15,1,2,3)           -60.2963         -DE/DX =    0.0                 !
 ! D4    D(1,2,3,4)              0.0005         -DE/DX =    0.0                 !
 ! D5    D(1,2,3,5)           -179.9995         -DE/DX =    0.0                 !
 ! D6    D(2,3,5,6)             -0.0005         -DE/DX =    0.0                 !
 ! D7    D(2,3,5,11)           180.0            -DE/DX =    0.0                 !
 ! D8    D(4,3,5,6)            179.9995         -DE/DX =    0.0                 !
 ! D9    D(4,3,5,11)             0.0            -DE/DX =    0.0                 !
 ! D10   D(3,5,6,7)           -180.0            -DE/DX =    0.0                 !
 ! D11   D(3,5,6,16)             0.0005         -DE/DX =    0.0                 !
 ! D12   D(11,5,6,7)            -0.0004         -DE/DX =    0.0                 !
 ! D13   D(11,5,6,16)          180.0            -DE/DX =    0.0                 !
 ! D14   D(3,5,11,10)         -180.0            -DE/DX =    0.0                 !
 ! D15   D(3,5,11,12)            0.0            -DE/DX =    0.0                 !
 ! D16   D(6,5,11,10)            0.0005         -DE/DX =    0.0                 !
 ! D17   D(6,5,11,12)         -179.9995         -DE/DX =    0.0                 !
 ! D18   D(5,6,7,8)              0.0            -DE/DX =    0.0                 !
 ! D19   D(5,6,7,17)           179.9999         -DE/DX =    0.0                 !
 ! D20   D(16,6,7,8)           179.9995         -DE/DX =    0.0                 !
 ! D21   D(16,6,7,17)           -0.0006         -DE/DX =    0.0                 !
 ! D22   D(6,7,8,9)           -179.9996         -DE/DX =    0.0                 !
 ! D23   D(6,7,8,10)             0.0005         -DE/DX =    0.0                 !
 ! D24   D(17,7,8,9)             0.0006         -DE/DX =    0.0                 !
 ! D25   D(17,7,8,10)         -179.9994         -DE/DX =    0.0                 !
 ! D26   D(7,8,9,18)          -121.4475         -DE/DX =    0.0                 !
 ! D27   D(7,8,9,19)           121.449          -DE/DX =    0.0                 !
 ! D28   D(7,8,9,20)             0.0012         -DE/DX =    0.0                 !
 ! D29   D(10,8,9,18)           58.5525         -DE/DX =    0.0                 !
 ! D30   D(10,8,9,19)          -58.5511         -DE/DX =    0.0                 !
 ! D31   D(10,8,9,20)         -179.9988         -DE/DX =    0.0                 !
 ! D32   D(7,8,10,11)           -0.0005         -DE/DX =    0.0                 !
 ! D33   D(9,8,10,11)          179.9996         -DE/DX =    0.0                 !
 ! D34   D(8,10,11,5)            0.0            -DE/DX =    0.0                 !
 ! D35   D(8,10,11,12)         180.0            -DE/DX =    0.0                 !
 ! D36   D(5,11,12,21)           0.0            -DE/DX =    0.0                 !
 ! D37   D(10,11,12,21)       -180.0            -DE/DX =    0.0                 !
 --------------------------------------------------------------------------------
 GradGradGradGradGradGradGradGradGradGradGradGradGradGradGradGradGradGrad

                          Input orientation:                          
 ---------------------------------------------------------------------
 Center     Atomic      Atomic             Coordinates (Angstroms)
 Number     Number       Type             X           Y           Z
 ---------------------------------------------------------------------
      1          6           0        3.830380   -0.830220    0.000010
      2          8           0        2.418250   -0.981790    0.000000
      3          6           0        1.697290    0.133290    0.000000
      4          8           0        2.211980    1.239830    0.000000
      5          6           0        0.244130   -0.090430    0.000000
      6          6           0       -0.324960   -1.366810   -0.000010
      7          6           0       -1.702990   -1.503540   -0.000010
      8          6           0       -2.488000   -0.338550    0.000000
      9          6           0       -3.988690   -0.407100    0.000010
     10          7           0       -1.957110    0.881860    0.000000
     11          6           0       -0.638910    1.026120    0.000000
     12          8           0       -0.188620    2.267660    0.000000
     13          1           0        4.162660   -0.282250    0.892890
     14          1           0        4.244230   -1.844150    0.000010
     15          1           0        4.162670   -0.282250   -0.892880
     16          1           0        0.329940   -2.239620   -0.000010
     17          1           0       -2.171940   -2.488000   -0.000020
     18          1           0       -4.383340    0.115800   -0.883590
     19          1           0       -4.383310    0.115820    0.883610
     20          1           0       -4.356550   -1.441400    0.000030
     21          1           0        0.793010    2.230900    0.000000
 ---------------------------------------------------------------------
                    Distance matrix (angstroms):
                    1          2          3          4          5
     1  C    0.000000
     2  O    1.420241   0.000000
     3  C    2.340603   1.327850   0.000000
     4  O    2.627608   2.231175   1.220384   0.000000
     5  C    3.661759   2.349749   1.470280   2.375295   0.000000
     6  C    4.189842   2.770098   2.517895   3.637394   1.397501
     7  C    5.574185   4.154136   3.773740   4.780488   2.405859
     8  C    6.337481   4.948237   4.211803   4.957933   2.743373
     9  C    7.830510   6.432663   5.711601   6.415660   4.244649
    10  N    6.035417   4.755730   3.730281   4.184430   2.406409
    11  C    4.839478   3.657585   2.500995   2.858889   1.423532
    12  O    5.074369   4.165897   2.848191   2.611382   2.397470
    13  H    1.099052   2.080763   2.654802   2.630424   4.023546
    14  H    1.095137   2.019373   3.224465   3.693369   4.367646
    15  H    1.099063   2.080767   2.654808   2.630428   4.023554
    16  H    3.773525   2.437863   2.738676   3.955837   2.150902
    17  H    6.227044   4.830995   4.673553   5.754604   3.403783
    18  H    8.315101   6.946010   6.144518   6.748512   4.715585
    19  H    8.315073   6.945987   6.144491   6.748482   4.715560
    20  H    8.209712   6.790372   6.255288   7.094687   4.794932
    21  H    4.312316   3.600386   2.284226   1.730808   2.385339
                    6          7          8          9         10
     6  C    0.000000
     7  C    1.384797   0.000000
     8  C    2.395007   1.404793   0.000000
     9  C    3.787342   2.535075   1.502255   0.000000
    10  N    2.778566   2.398898   1.330881   2.405979   0.000000
    11  C    2.413437   2.744348   2.298142   3.643507   1.326070
    12  O    3.637026   4.063898   3.475554   4.647028   2.246775
    13  H    4.702369   6.057613   6.710566   8.201057   6.293170
    14  H    4.594056   5.956966   6.898533   8.357397   6.774050
    15  H    4.702373   6.057618   6.710575   8.201068   6.293178
    16  H    1.091188   2.162087   3.399243   4.691343   3.869656
    17  H    2.160649   1.090447   2.172563   2.762377   3.376701
    18  H    4.410135   3.253806   2.139972   1.099965   2.693357
    19  H    4.410123   3.253802   2.139958   1.099963   2.693331
    20  H    4.032280   2.654287   2.169737   1.097769   3.339888
    21  H    3.767409   4.491777   4.167385   5.461108   3.063180
                   11         12         13         14         15
    11  C    0.000000
    12  O    1.320675   0.000000
    13  H    5.056101   5.121809   0.000000
    14  H    5.664230   6.046250   1.800950   0.000000
    15  H    5.056109   5.121816   1.785770   1.800954   0.000000
    16  H    3.406425   4.537012   4.395260   3.934217   4.395263
    17  H    3.833956   5.152656   6.766815   6.448394   6.766817
    18  H    3.953501   4.796552   8.737759   8.891407   8.555280
    19  H    3.953472   4.796520   8.555241   8.891382   8.737743
    20  H    4.462007   5.579316   8.643944   8.610205   8.643959
    21  H    1.871334   0.982318   4.297408   5.340127   4.297414
                   16         17         18         19         20
    16  H    0.000000
    17  H    2.514179   0.000000
    18  H    5.342633   3.528563   0.000000
    19  H    5.342622   3.528574   1.767200   0.000000
    20  H    4.753982   2.422373   1.790635   1.790632   0.000000
    21  H    4.494439   5.573055   5.661182   5.661150   6.324852
                   21
    21  H    0.000000
 Stoichiometry    C8H9NO3
 Framework group  C1[X(C8H9NO3)]
 Deg. of freedom    57
 Full point group                 C1      NOp   1
 Largest Abelian subgroup         C1      NOp   1
 Largest concise Abelian subgroup C1      NOp   1
                         Standard orientation:                         
 ---------------------------------------------------------------------
 Center     Atomic      Atomic             Coordinates (Angstroms)
 Number     Number       Type             X           Y           Z
 ---------------------------------------------------------------------
      1          6           0        3.830380   -0.830222    0.000010
      2          8           0        2.418250   -0.981791   -0.000000
      3          6           0        1.697290    0.133289   -0.000000
      4          8           0        2.211981    1.239829   -0.000000
      5          6           0        0.244130   -0.090430   -0.000000
      6          6           0       -0.324960   -1.366810   -0.000010
      7          6           0       -1.702990   -1.503540   -0.000010
      8          6           0       -2.488000   -0.338549   -0.000000
      9          6           0       -3.988690   -0.407099    0.000010
     10          7           0       -1.957109    0.881860   -0.000000
     11          6           0       -0.638909    1.026120   -0.000000
     12          8           0       -0.188619    2.267660   -0.000000
     13          1           0        4.162660   -0.282252    0.892890
     14          1           0        4.244230   -1.844152    0.000010
     15          1           0        4.162670   -0.282252   -0.892880
     16          1           0        0.329939   -2.239620   -0.000010
     17          1           0       -2.171941   -2.488000   -0.000020
     18          1           0       -4.383340    0.115801   -0.883590
     19          1           0       -4.383310    0.115821    0.883610
     20          1           0       -4.356550   -1.441399    0.000030
     21          1           0        0.793011    2.230899   -0.000000
 ---------------------------------------------------------------------
 Rotational constants (GHZ):           2.1760312           0.5855263           0.4640737
 Unable to Open any file for archive entry.
 1\1\GINC-NOTCH462\FOpt\RwB97XD\def2SVP\C8H9N1O3\U6053008\12-Jul-2024\0
 \\#N OPT FREQ=NORAMAN Integral(Ultrafine) wB97XD def2SVP\\12387733_1\\
 0,1\C,3.83038,-0.83022,0.00001\O,2.41825,-0.98179,0.\C,1.69729,0.13329
 ,0.\O,2.21198,1.23983,0.\C,0.24413,-0.09043,0.\C,-0.32496,-1.36681,-0.
 00001\C,-1.70299,-1.50354,-0.00001\C,-2.488,-0.33855,0.\C,-3.98869,-0.
 4071,0.00001\N,-1.95711,0.88186,0.\C,-0.63891,1.02612,0.\O,-0.18862,2.
 26766,0.\H,4.16266,-0.28225,0.89289\H,4.24423,-1.84415,0.00001\H,4.162
 67,-0.28225,-0.89288\H,0.32994,-2.23962,-0.00001\H,-2.17194,-2.488,-0.
 00002\H,-4.38334,0.1158,-0.88359\H,-4.38331,0.11582,0.88361\H,-4.35655
 ,-1.4414,0.00003\H,0.79301,2.2309,0.\\Version=ES64L-G16RevC.01\State=1
 -A\HF=-590.1048213\RMSD=5.631e-09\RMSF=3.985e-06\Dipole=0.6719764,-1.5
 331521,0.0000053\Quadrupole=7.3903945,-4.9147375,-2.475657,0.9282093,0
 .0000407,0.0000107\PG=C01 [X(C8H9N1O3)]\\@
 The archive entry for this job was punched.


 THERE ARE PEOPLE SO ADDICTED TO EXAGERATING THEY
 CAN'T TELL THE TRUTH WITHOUT LYING. -- FORTUNE COOKIE
 Job cpu time:       0 days  0 hours  4 minutes 16.4 seconds.
 Elapsed time:       0 days  0 hours  0 minutes 16.7 seconds.
 File lengths (MBytes):  RWF=     44 Int=      0 D2E=      0 Chk=      5 Scr=      2
 Normal termination of Gaussian 16 at Fri Jul 12 13:10:57 2024.
 Link1:  Proceeding to internal job step number  2.
 --------------------------------------------------------------------
 #N Geom=AllCheck Guess=TCheck SCRF=Check GenChk RwB97XD/def2SVP Freq
 --------------------------------------------------------------------
 1/10=4,29=7,30=1,38=1,40=1/1,3;
 2/12=2,40=1/2;
 3/5=43,7=101,11=2,14=-4,25=1,30=1,70=2,71=2,74=-58,75=-5,116=1,140=1/1,2,3;
 4/5=101/1;
 5/5=2,38=6,98=1/2;
 8/6=4,10=90,11=11/1;
 11/6=1,8=1,9=11,15=111,16=1/1,2,10;
 10/6=1/2;
 6/7=2,8=2,9=2,10=2,28=1/1;
 7/8=1,10=1,25=1/1,2,3,16;
 1/10=4,30=1/3;
 99//99;
 Structure from the checkpoint file:  "12387733_1.chk"
 ----------
 12387733_1
 ----------
 Charge =  0 Multiplicity = 1
 Redundant internal coordinates found in file.  (old form).
 C,0,3.83038,-0.83022,0.00001
 O,0,2.41825,-0.98179,0.
 C,0,1.69729,0.13329,0.
 O,0,2.21198,1.23983,0.
 C,0,0.24413,-0.09043,0.
 C,0,-0.32496,-1.36681,-0.00001
 C,0,-1.70299,-1.50354,-0.00001
 C,0,-2.488,-0.33855,0.
 C,0,-3.98869,-0.4071,0.00001
 N,0,-1.95711,0.88186,0.
 C,0,-0.63891,1.02612,0.
 O,0,-0.18862,2.26766,0.
 H,0,4.16266,-0.28225,0.89289
 H,0,4.24423,-1.84415,0.00001
 H,0,4.16267,-0.28225,-0.89288
 H,0,0.32994,-2.23962,-0.00001
 H,0,-2.17194,-2.488,-0.00002
 H,0,-4.38334,0.1158,-0.88359
 H,0,-4.38331,0.11582,0.88361
 H,0,-4.35655,-1.4414,0.00003
 H,0,0.79301,2.2309,0.
 Recover connectivity data from disk.

 GradGradGradGradGradGradGradGradGradGradGradGradGradGradGradGradGradGrad
 Berny optimization.
 Initialization pass.
                           ----------------------------
                           !    Initial Parameters    !
                           ! (Angstroms and Degrees)  !
 --------------------------                            --------------------------
 ! Name  Definition              Value          Derivative Info.                !
 --------------------------------------------------------------------------------
 ! R1    R(1,2)                  1.4202         calculate D2E/DX2 analytically  !
 ! R2    R(1,13)                 1.0991         calculate D2E/DX2 analytically  !
 ! R3    R(1,14)                 1.0951         calculate D2E/DX2 analytically  !
 ! R4    R(1,15)                 1.0991         calculate D2E/DX2 analytically  !
 ! R5    R(2,3)                  1.3279         calculate D2E/DX2 analytically  !
 ! R6    R(3,4)                  1.2204         calculate D2E/DX2 analytically  !
 ! R7    R(3,5)                  1.4703         calculate D2E/DX2 analytically  !
 ! R8    R(5,6)                  1.3975         calculate D2E/DX2 analytically  !
 ! R9    R(5,11)                 1.4235         calculate D2E/DX2 analytically  !
 ! R10   R(6,7)                  1.3848         calculate D2E/DX2 analytically  !
 ! R11   R(6,16)                 1.0912         calculate D2E/DX2 analytically  !
 ! R12   R(7,8)                  1.4048         calculate D2E/DX2 analytically  !
 ! R13   R(7,17)                 1.0904         calculate D2E/DX2 analytically  !
 ! R14   R(8,9)                  1.5023         calculate D2E/DX2 analytically  !
 ! R15   R(8,10)                 1.3309         calculate D2E/DX2 analytically  !
 ! R16   R(9,18)                 1.1            calculate D2E/DX2 analytically  !
 ! R17   R(9,19)                 1.1            calculate D2E/DX2 analytically  !
 ! R18   R(9,20)                 1.0978         calculate D2E/DX2 analytically  !
 ! R19   R(10,11)                1.3261         calculate D2E/DX2 analytically  !
 ! R20   R(11,12)                1.3207         calculate D2E/DX2 analytically  !
 ! R21   R(12,21)                0.9823         calculate D2E/DX2 analytically  !
 ! A1    A(2,1,13)             110.7213         calculate D2E/DX2 analytically  !
 ! A2    A(2,1,14)             106.0772         calculate D2E/DX2 analytically  !
 ! A3    A(2,1,15)             110.7209         calculate D2E/DX2 analytically  !
 ! A4    A(13,1,14)            110.326          calculate D2E/DX2 analytically  !
 ! A5    A(13,1,15)            108.664          calculate D2E/DX2 analytically  !
 ! A6    A(14,1,15)            110.3256         calculate D2E/DX2 analytically  !
 ! A7    A(1,2,3)              116.7585         calculate D2E/DX2 analytically  !
 ! A8    A(2,3,4)              122.1704         calculate D2E/DX2 analytically  !
 ! A9    A(2,3,5)              114.1327         calculate D2E/DX2 analytically  !
 ! A10   A(4,3,5)              123.697          calculate D2E/DX2 analytically  !
 ! A11   A(3,5,6)              122.7825         calculate D2E/DX2 analytically  !
 ! A12   A(3,5,11)             119.587          calculate D2E/DX2 analytically  !
 ! A13   A(6,5,11)             117.6305         calculate D2E/DX2 analytically  !
 ! A14   A(5,6,7)              119.6967         calculate D2E/DX2 analytically  !
 ! A15   A(5,6,16)             119.0875         calculate D2E/DX2 analytically  !
 ! A16   A(7,6,16)             121.2158         calculate D2E/DX2 analytically  !
 ! A17   A(6,7,8)              118.307          calculate D2E/DX2 analytically  !
 ! A18   A(6,7,17)             121.1373         calculate D2E/DX2 analytically  !
 ! A19   A(8,7,17)             120.5557         calculate D2E/DX2 analytically  !
 ! A20   A(7,8,9)              121.358          calculate D2E/DX2 analytically  !
 ! A21   A(7,8,10)             122.5171         calculate D2E/DX2 analytically  !
 ! A22   A(9,8,10)             116.1249         calculate D2E/DX2 analytically  !
 ! A23   A(8,9,18)             109.6767         calculate D2E/DX2 analytically  !
 ! A24   A(8,9,19)             109.6757         calculate D2E/DX2 analytically  !
 ! A25   A(8,9,20)             112.1939         calculate D2E/DX2 analytically  !
 ! A26   A(18,9,19)            106.8926         calculate D2E/DX2 analytically  !
 ! A27   A(18,9,20)            109.1281         calculate D2E/DX2 analytically  !
 ! A28   A(19,9,20)            109.1279         calculate D2E/DX2 analytically  !
 ! A29   A(8,10,11)            119.7549         calculate D2E/DX2 analytically  !
 ! A30   A(5,11,10)            122.0938         calculate D2E/DX2 analytically  !
 ! A31   A(5,11,12)            121.7257         calculate D2E/DX2 analytically  !
 ! A32   A(10,11,12)           116.1805         calculate D2E/DX2 analytically  !
 ! A33   A(11,12,21)           107.7904         calculate D2E/DX2 analytically  !
 ! D1    D(13,1,2,3)            60.2954         calculate D2E/DX2 analytically  !
 ! D2    D(14,1,2,3)           179.9999         calculate D2E/DX2 analytically  !
 ! D3    D(15,1,2,3)           -60.2963         calculate D2E/DX2 analytically  !
 ! D4    D(1,2,3,4)              0.0005         calculate D2E/DX2 analytically  !
 ! D5    D(1,2,3,5)           -179.9995         calculate D2E/DX2 analytically  !
 ! D6    D(2,3,5,6)             -0.0005         calculate D2E/DX2 analytically  !
 ! D7    D(2,3,5,11)           180.0            calculate D2E/DX2 analytically  !
 ! D8    D(4,3,5,6)            179.9995         calculate D2E/DX2 analytically  !
 ! D9    D(4,3,5,11)             0.0            calculate D2E/DX2 analytically  !
 ! D10   D(3,5,6,7)           -180.0            calculate D2E/DX2 analytically  !
 ! D11   D(3,5,6,16)             0.0005         calculate D2E/DX2 analytically  !
 ! D12   D(11,5,6,7)            -0.0004         calculate D2E/DX2 analytically  !
 ! D13   D(11,5,6,16)         -180.0            calculate D2E/DX2 analytically  !
 ! D14   D(3,5,11,10)          180.0            calculate D2E/DX2 analytically  !
 ! D15   D(3,5,11,12)            0.0            calculate D2E/DX2 analytically  !
 ! D16   D(6,5,11,10)            0.0005         calculate D2E/DX2 analytically  !
 ! D17   D(6,5,11,12)         -179.9995         calculate D2E/DX2 analytically  !
 ! D18   D(5,6,7,8)              0.0            calculate D2E/DX2 analytically  !
 ! D19   D(5,6,7,17)           179.9999         calculate D2E/DX2 analytically  !
 ! D20   D(16,6,7,8)           179.9995         calculate D2E/DX2 analytically  !
 ! D21   D(16,6,7,17)           -0.0006         calculate D2E/DX2 analytically  !
 ! D22   D(6,7,8,9)           -179.9996         calculate D2E/DX2 analytically  !
 ! D23   D(6,7,8,10)             0.0005         calculate D2E/DX2 analytically  !
 ! D24   D(17,7,8,9)             0.0006         calculate D2E/DX2 analytically  !
 ! D25   D(17,7,8,10)         -179.9994         calculate D2E/DX2 analytically  !
 ! D26   D(7,8,9,18)          -121.4475         calculate D2E/DX2 analytically  !
 ! D27   D(7,8,9,19)           121.449          calculate D2E/DX2 analytically  !
 ! D28   D(7,8,9,20)             0.0012         calculate D2E/DX2 analytically  !
 ! D29   D(10,8,9,18)           58.5525         calculate D2E/DX2 analytically  !
 ! D30   D(10,8,9,19)          -58.5511         calculate D2E/DX2 analytically  !
 ! D31   D(10,8,9,20)         -179.9988         calculate D2E/DX2 analytically  !
 ! D32   D(7,8,10,11)           -0.0005         calculate D2E/DX2 analytically  !
 ! D33   D(9,8,10,11)          179.9996         calculate D2E/DX2 analytically  !
 ! D34   D(8,10,11,5)            0.0            calculate D2E/DX2 analytically  !
 ! D35   D(8,10,11,12)         180.0            calculate D2E/DX2 analytically  !
 ! D36   D(5,11,12,21)           0.0            calculate D2E/DX2 analytically  !
 ! D37   D(10,11,12,21)        180.0            calculate D2E/DX2 analytically  !
 --------------------------------------------------------------------------------
 Trust Radius=3.00D-01 FncErr=1.00D-07 GrdErr=1.00D-07 EigMax=2.50D+02 EigMin=1.00D-04
 Number of steps in this run=      2 maximum allowed number of steps=      2.
 GradGradGradGradGradGradGradGradGradGradGradGradGradGradGradGradGradGrad

                          Input orientation:                          
 ---------------------------------------------------------------------
 Center     Atomic      Atomic             Coordinates (Angstroms)
 Number     Number       Type             X           Y           Z
 ---------------------------------------------------------------------
      1          6           0        3.830380   -0.830220    0.000010
      2          8           0        2.418250   -0.981790    0.000000
      3          6           0        1.697290    0.133290    0.000000
      4          8           0        2.211980    1.239830    0.000000
      5          6           0        0.244130   -0.090430    0.000000
      6          6           0       -0.324960   -1.366810   -0.000010
      7          6           0       -1.702990   -1.503540   -0.000010
      8          6           0       -2.488000   -0.338550    0.000000
      9          6           0       -3.988690   -0.407100    0.000010
     10          7           0       -1.957110    0.881860    0.000000
     11          6           0       -0.638910    1.026120    0.000000
     12          8           0       -0.188620    2.267660    0.000000
     13          1           0        4.162660   -0.282250    0.892890
     14          1           0        4.244230   -1.844150    0.000010
     15          1           0        4.162670   -0.282250   -0.892880
     16          1           0        0.329940   -2.239620   -0.000010
     17          1           0       -2.171940   -2.488000   -0.000020
     18          1           0       -4.383340    0.115800   -0.883590
     19          1           0       -4.383310    0.115820    0.883610
     20          1           0       -4.356550   -1.441400    0.000030
     21          1           0        0.793010    2.230900    0.000000
 ---------------------------------------------------------------------
                    Distance matrix (angstroms):
                    1          2          3          4          5
     1  C    0.000000
     2  O    1.420241   0.000000
     3  C    2.340603   1.327850   0.000000
     4  O    2.627608   2.231175   1.220384   0.000000
     5  C    3.661759   2.349749   1.470280   2.375295   0.000000
     6  C    4.189842   2.770098   2.517895   3.637394   1.397501
     7  C    5.574185   4.154136   3.773740   4.780488   2.405859
     8  C    6.337481   4.948237   4.211803   4.957933   2.743373
     9  C    7.830510   6.432663   5.711601   6.415660   4.244649
    10  N    6.035417   4.755730   3.730281   4.184430   2.406409
    11  C    4.839478   3.657585   2.500995   2.858889   1.423532
    12  O    5.074369   4.165897   2.848191   2.611382   2.397470
    13  H    1.099052   2.080763   2.654802   2.630424   4.023546
    14  H    1.095137   2.019373   3.224465   3.693369   4.367646
    15  H    1.099063   2.080767   2.654808   2.630428   4.023554
    16  H    3.773525   2.437863   2.738676   3.955837   2.150902
    17  H    6.227044   4.830995   4.673553   5.754604   3.403783
    18  H    8.315101   6.946010   6.144518   6.748512   4.715585
    19  H    8.315073   6.945987   6.144491   6.748482   4.715560
    20  H    8.209712   6.790372   6.255288   7.094687   4.794932
    21  H    4.312316   3.600386   2.284226   1.730808   2.385339
                    6          7          8          9         10
     6  C    0.000000
     7  C    1.384797   0.000000
     8  C    2.395007   1.404793   0.000000
     9  C    3.787342   2.535075   1.502255   0.000000
    10  N    2.778566   2.398898   1.330881   2.405979   0.000000
    11  C    2.413437   2.744348   2.298142   3.643507   1.326070
    12  O    3.637026   4.063898   3.475554   4.647028   2.246775
    13  H    4.702369   6.057613   6.710566   8.201057   6.293170
    14  H    4.594056   5.956966   6.898533   8.357397   6.774050
    15  H    4.702373   6.057618   6.710575   8.201068   6.293178
    16  H    1.091188   2.162087   3.399243   4.691343   3.869656
    17  H    2.160649   1.090447   2.172563   2.762377   3.376701
    18  H    4.410135   3.253806   2.139972   1.099965   2.693357
    19  H    4.410123   3.253802   2.139958   1.099963   2.693331
    20  H    4.032280   2.654287   2.169737   1.097769   3.339888
    21  H    3.767409   4.491777   4.167385   5.461108   3.063180
                   11         12         13         14         15
    11  C    0.000000
    12  O    1.320675   0.000000
    13  H    5.056101   5.121809   0.000000
    14  H    5.664230   6.046250   1.800950   0.000000
    15  H    5.056109   5.121816   1.785770   1.800954   0.000000
    16  H    3.406425   4.537012   4.395260   3.934217   4.395263
    17  H    3.833956   5.152656   6.766815   6.448394   6.766817
    18  H    3.953501   4.796552   8.737759   8.891407   8.555280
    19  H    3.953472   4.796520   8.555241   8.891382   8.737743
    20  H    4.462007   5.579316   8.643944   8.610205   8.643959
    21  H    1.871334   0.982318   4.297408   5.340127   4.297414
                   16         17         18         19         20
    16  H    0.000000
    17  H    2.514179   0.000000
    18  H    5.342633   3.528563   0.000000
    19  H    5.342622   3.528574   1.767200   0.000000
    20  H    4.753982   2.422373   1.790635   1.790632   0.000000
    21  H    4.494439   5.573055   5.661182   5.661150   6.324852
                   21
    21  H    0.000000
 Stoichiometry    C8H9NO3
 Framework group  C1[X(C8H9NO3)]
 Deg. of freedom    57
[...]
 Alpha virt. eigenvalues --    0.32006   0.33437   0.33978   0.34720   0.34936
 Alpha virt. eigenvalues --    0.36842   0.37601   0.39757   0.40034   0.41068
 Alpha virt. eigenvalues --    0.41973   0.42838   0.43495   0.43579   0.44352
 Alpha virt. eigenvalues --    0.45466   0.45797   0.46658   0.47941   0.48474
 Alpha virt. eigenvalues --    0.49956   0.50747   0.50901   0.51662   0.51993
 Alpha virt. eigenvalues --    0.53129   0.53552   0.54709   0.55958   0.56954
 Alpha virt. eigenvalues --    0.57512   0.57847   0.58830   0.59997   0.60940
 Alpha virt. eigenvalues --    0.61866   0.63213   0.65187   0.65859   0.65935
 Alpha virt. eigenvalues --    0.68164   0.69849   0.70252   0.71593   0.72244
 Alpha virt. eigenvalues --    0.72832   0.73837   0.74664   0.76928   0.78032
 Alpha virt. eigenvalues --    0.80678   0.81451   0.82205   0.83202   0.83719
 Alpha virt. eigenvalues --    0.84370   0.86459   0.87896   0.88741   0.89859
 Alpha virt. eigenvalues --    0.91172   0.93066   0.93221   0.94762   0.97650
 Alpha virt. eigenvalues --    0.98204   0.98766   0.99694   1.01432   1.02152
 Alpha virt. eigenvalues --    1.06832   1.06999   1.07620   1.07787   1.10424
 Alpha virt. eigenvalues --    1.12984   1.15781   1.15815   1.18162   1.18849
 Alpha virt. eigenvalues --    1.24021   1.24078   1.24954   1.27815   1.29904
 Alpha virt. eigenvalues --    1.30604   1.31892   1.36843   1.39105   1.40177
 Alpha virt. eigenvalues --    1.41613   1.43852   1.44296   1.45966   1.47553
 Alpha virt. eigenvalues --    1.48931   1.51674   1.52704   1.55190   1.55634
 Alpha virt. eigenvalues --    1.56532   1.56889   1.57189   1.59519   1.59586
 Alpha virt. eigenvalues --    1.60707   1.61602   1.62479   1.64420   1.64692
 Alpha virt. eigenvalues --    1.65782   1.65806   1.66770   1.69222   1.71992
 Alpha virt. eigenvalues --    1.73364   1.74092   1.76608   1.78346   1.81249
 Alpha virt. eigenvalues --    1.82291   1.84165   1.88329   1.89116   1.89499
 Alpha virt. eigenvalues --    1.91301   1.93182   1.94561   1.98359   1.98503
 Alpha virt. eigenvalues --    1.99791   2.01683   2.02884   2.03444   2.07194
 Alpha virt. eigenvalues --    2.08909   2.09160   2.09499   2.12177   2.12804
 Alpha virt. eigenvalues --    2.13826   2.16532   2.16706   2.20042   2.20113
 Alpha virt. eigenvalues --    2.20394   2.25341   2.25649   2.27499   2.30717
 Alpha virt. eigenvalues --    2.31332   2.31914   2.32740   2.34477   2.37302
 Alpha virt. eigenvalues --    2.38443   2.38818   2.40766   2.42078   2.44686
 Alpha virt. eigenvalues --    2.46108   2.47328   2.48685   2.49646   2.50846
 Alpha virt. eigenvalues --    2.54047   2.57079   2.57314   2.58273   2.59759
 Alpha virt. eigenvalues --    2.60954   2.62112   2.62132   2.64859   2.67800
 Alpha virt. eigenvalues --    2.67836   2.71199   2.71578   2.72494   2.75401
 Alpha virt. eigenvalues --    2.76809   2.78095   2.80763   2.83082   2.84674
 Alpha virt. eigenvalues --    2.84685   2.86169   2.87469   2.88318   2.90324
 Alpha virt. eigenvalues --    2.90870   2.95905   2.98271   2.98693   3.00729
 Alpha virt. eigenvalues --    3.01287   3.02406   3.03329   3.06023   3.06407
 Alpha virt. eigenvalues --    3.08933   3.09603   3.10135   3.12419   3.12819
 Alpha virt. eigenvalues --    3.13994   3.14789   3.17083   3.18135   3.19761
 Alpha virt. eigenvalues --    3.20708   3.21735   3.23837   3.24789   3.26801
 Alpha virt. eigenvalues --    3.28282   3.28974   3.29968   3.30754   3.30789
 Alpha virt. eigenvalues --    3.32970   3.34024   3.35540   3.37413   3.37556
 Alpha virt. eigenvalues --    3.38135   3.38263   3.39987   3.40628   3.40907
 Alpha virt. eigenvalues --    3.43110   3.43139   3.44015   3.46755   3.47217
 Alpha virt. eigenvalues --    3.48619   3.49004   3.50171   3.54767   3.56041
 Alpha virt. eigenvalues --    3.56151   3.58609   3.63189   3.63497   3.65137
 Alpha virt. eigenvalues --    3.66519   3.67018   3.71004   3.71489   3.72385
 Alpha virt. eigenvalues --    3.73819   3.78210   3.78516   3.84328   3.84721
 Alpha virt. eigenvalues --    3.86431   3.90659   3.93384   3.95822   3.99024
 Alpha virt. eigenvalues --    4.01077   4.04168   4.05029   4.06888   4.18334
 Alpha virt. eigenvalues --    4.19979   4.20571   4.20849   4.22476   4.24491
 Alpha virt. eigenvalues --    4.27288   4.29319   4.32008   4.36119   4.38198
 Alpha virt. eigenvalues --    4.43264   4.44201   4.46376   4.46438   4.47586
 Alpha virt. eigenvalues --    4.50483   4.51848   4.54292   4.56773   4.58706
 Alpha virt. eigenvalues --    4.65640   4.66402   4.68135   4.73857   4.78830
 Alpha virt. eigenvalues --    4.84161   4.94741   4.95623   4.97001   5.00891
 Alpha virt. eigenvalues --    5.08117   5.14632   5.16556   5.20070   5.21718
 Alpha virt. eigenvalues --    5.26363   5.26702   5.29681   5.35144   5.35555
 Alpha virt. eigenvalues --    5.38704   5.46673   5.47585   5.50278   5.53874
 Alpha virt. eigenvalues --    5.57429   5.63243   5.63667   5.68823   5.73464
 Alpha virt. eigenvalues --    5.74967   5.86888   5.90719   5.95803   5.96241
 Alpha virt. eigenvalues --    6.04829   6.07109   6.14723   6.19960   6.24422
 Alpha virt. eigenvalues --    6.31287   6.41463   6.45408   6.49950   6.54176
 Alpha virt. eigenvalues --    6.72771   6.73183   6.76972   6.82577   6.84287
 Alpha virt. eigenvalues --    6.84630   6.93835   6.96358   7.06926   7.11017
 Alpha virt. eigenvalues --    7.16597   7.25287   7.34476   7.52537   7.54014
 Alpha virt. eigenvalues --   22.42444  22.47299  22.59179  22.81365  23.01721
 Alpha virt. eigenvalues --   23.23905  23.37838  23.66778  32.75211  43.98113
 Alpha virt. eigenvalues --   44.10986  44.25996
          Condensed to atoms (all electrons):
               1          2          3          4          5          6
     1  C    4.770739   0.221531  -0.041670   0.003880   0.006494  -0.001097
     2  O    0.221531   7.924744   0.396599  -0.072862  -0.149496   0.041270
     3  C   -0.041670   0.396599   4.500859   0.505138   0.294697  -0.065417
     4  O    0.003880  -0.072862   0.505138   8.050404  -0.072524   0.009771
     5  C    0.006494  -0.149496   0.294697  -0.072524   5.680602   0.337843
     6  C   -0.001097   0.041270  -0.065417   0.009771   0.337843   5.038066
     7  C   -0.000027  -0.000608   0.007833  -0.001108  -0.027757   0.454455
     8  C   -0.000023   0.000575  -0.004169   0.000811  -0.031557  -0.019751
     9  C   -0.000000  -0.000004  -0.000135   0.000003  -0.000407   0.012340
    10  N    0.000016  -0.000327   0.005534  -0.000477  -0.113472  -0.026293
    11  C   -0.000135  -0.004812  -0.032698   0.008163   0.364094  -0.051477
    12  O    0.000186  -0.000493  -0.002874  -0.043807  -0.103985   0.004340
    13  H    0.418375  -0.034143  -0.007828   0.005066  -0.002472   0.000522
    14  H    0.396717  -0.031096   0.003221   0.001369   0.003434  -0.001023
    15  H    0.418374  -0.034143  -0.007828   0.005066  -0.002472   0.000522
    16  H   -0.000309   0.015930  -0.007498   0.000369  -0.036845   0.428190
    17  H    0.000001  -0.000108  -0.000033   0.000001   0.007529  -0.039497
    18  H   -0.000000   0.000000  -0.000007   0.000000   0.000610  -0.000936
    19  H   -0.000000   0.000000  -0.000007   0.000000   0.000610  -0.000936
    20  H    0.000000   0.000000  -0.000008   0.000000  -0.000344   0.004225
    21  H    0.000094   0.000685  -0.011560   0.051282  -0.018781  -0.000271
               7          8          9         10         11         12
     1  C   -0.000027  -0.000023  -0.000000   0.000016  -0.000135   0.000186
     2  O   -0.000608   0.000575  -0.000004  -0.000327  -0.004812  -0.000493
     3  C    0.007833  -0.004169  -0.000135   0.005534  -0.032698  -0.002874
     4  O   -0.001108   0.000811   0.000003  -0.000477   0.008163  -0.043807
     5  C   -0.027757  -0.031557  -0.000407  -0.113472   0.364094  -0.103985
     6  C    0.454455  -0.019751   0.012340  -0.026293  -0.051477   0.004340
     7  C    5.034414   0.506323  -0.045674  -0.066531  -0.018047  -0.000513
     8  C    0.506323   4.809636   0.289828   0.452326  -0.074820   0.000331
     9  C   -0.045674   0.289828   4.913849  -0.044678   0.000202  -0.000224
    10  N   -0.066531   0.452326  -0.044678   6.519033   0.618088  -0.091847
    11  C   -0.018047  -0.074820   0.000202   0.618088   4.491184   0.440507
    12  O   -0.000513   0.000331  -0.000224  -0.091847   0.440507   7.878275
    13  H    0.000010  -0.000001  -0.000000  -0.000000  -0.000120  -0.000003
    14  H   -0.000016  -0.000003   0.000000  -0.000000   0.000054   0.000002
    15  H    0.000010  -0.000001  -0.000000  -0.000000  -0.000120  -0.000003
    16  H   -0.038769   0.006735  -0.000168  -0.000751  -0.001022  -0.000037
    17  H    0.405584  -0.028494  -0.005933   0.005624   0.001658   0.000046
    18  H   -0.000325  -0.026984   0.399447   0.001735   0.000009  -0.000035
    19  H   -0.000325  -0.026986   0.399450   0.001735   0.000009  -0.000035
    20  H    0.003521  -0.076754   0.437094   0.004810   0.000134  -0.000001
    21  H   -0.000047  -0.000046   0.000031   0.006873  -0.000680   0.292604
              13         14         15         16         17         18
     1  C    0.418375   0.396717   0.418374  -0.000309   0.000001  -0.000000
     2  O   -0.034143  -0.031096  -0.034143   0.015930  -0.000108   0.000000
     3  C   -0.007828   0.003221  -0.007828  -0.007498  -0.000033  -0.000007
     4  O    0.005066   0.001369   0.005066   0.000369   0.000001   0.000000
     5  C   -0.002472   0.003434  -0.002472  -0.036845   0.007529   0.000610
     6  C    0.000522  -0.001023   0.000522   0.428190  -0.039497  -0.000936
     7  C    0.000010  -0.000016   0.000010  -0.038769   0.405584  -0.000325
     8  C   -0.000001  -0.000003  -0.000001   0.006735  -0.028494  -0.026984
     9  C   -0.000000   0.000000  -0.000000  -0.000168  -0.005933   0.399447
    10  N   -0.000000  -0.000000  -0.000000  -0.000751   0.005624   0.001735
    11  C   -0.000120   0.000054  -0.000120  -0.001022   0.001658   0.000009
    12  O   -0.000003   0.000002  -0.000003  -0.000037   0.000046  -0.000035
    13  H    0.542040  -0.023078  -0.035307   0.000098  -0.000000  -0.000000
    14  H   -0.023078   0.537010  -0.023078  -0.000341   0.000001  -0.000000
    15  H   -0.035307  -0.023078   0.542043   0.000098  -0.000000   0.000000
    16  H    0.000098  -0.000341   0.000098   0.486301  -0.004975   0.000009
    17  H   -0.000000   0.000001  -0.000000  -0.004975   0.531092  -0.000064
    18  H   -0.000000  -0.000000   0.000000   0.000009  -0.000064   0.530655
    19  H    0.000000  -0.000000  -0.000000   0.000009  -0.000064  -0.020110
    20  H    0.000000  -0.000000   0.000000  -0.000003  -0.001464  -0.021725
    21  H   -0.000002  -0.000001  -0.000002  -0.000022  -0.000002   0.000000
              19         20         21
     1  C   -0.000000   0.000000   0.000094
     2  O    0.000000   0.000000   0.000685
     3  C   -0.000007  -0.000008  -0.011560
     4  O    0.000000   0.000000   0.051282
     5  C    0.000610  -0.000344  -0.018781
     6  C   -0.000936   0.004225  -0.000271
     7  C   -0.000325   0.003521  -0.000047
     8  C   -0.026986  -0.076754  -0.000046
     9  C    0.399450   0.437094   0.000031
    10  N    0.001735   0.004810   0.006873
    11  C    0.000009   0.000134  -0.000680
    12  O   -0.000035  -0.000001   0.292604
    13  H    0.000000   0.000000  -0.000002
    14  H   -0.000000  -0.000000  -0.000001
    15  H   -0.000000   0.000000  -0.000002
    16  H    0.000009  -0.000003  -0.000022
    17  H   -0.000064  -0.001464  -0.000002
    18  H   -0.020110  -0.021725   0.000000
    19  H    0.530655  -0.021725   0.000000
    20  H   -0.021725   0.556900  -0.000000
    21  H    0.000000  -0.000000   0.325099
 Mulliken charges:
               1
     1  C   -0.193148
     2  O   -0.273243
     3  C    0.467848
     4  O   -0.450544
     5  C   -0.135800
     6  C   -0.124847
     7  C   -0.212403
     8  C    0.223023
     9  C   -0.355021
    10  N   -0.271400
    11  C    0.259830
    12  O   -0.372435
    13  H    0.136844
    14  H    0.136829
    15  H    0.136843
    16  H    0.153000
    17  H    0.129102
    18  H    0.137718
    19  H    0.137718
    20  H    0.115340
    21  H    0.354746
 Sum of Mulliken charges =  -0.00000
 Mulliken charges with hydrogens summed into heavy atoms:
               1
     1  C    0.217368
     2  O   -0.273243
     3  C    0.467848
     4  O   -0.450544
     5  C   -0.135800
     6  C    0.028153
     7  C   -0.083302
     8  C    0.223023
     9  C    0.035756
    10  N   -0.271400
    11  C    0.259830
    12  O   -0.017688
 Electronic spatial extent (au):  <R**2>=           2347.7389
 Charge=              0.0000 electrons
 Dipole moment (field-independent basis, Debye):
    X=              1.5491    Y=             -4.0657    Z=              0.0000  Tot=              4.3508
 Quadrupole moment (field-independent basis, Debye-Ang):
   XX=            -56.6398   YY=            -72.7867   ZZ=            -69.7451
   XY=              1.3126   XZ=              0.0001   YZ=              0.0000
 Traceless Quadrupole moment (field-independent basis, Debye-Ang):
   XX=              9.7507   YY=             -6.3962   ZZ=             -3.3546
   XY=              1.3126   XZ=              0.0001   YZ=              0.0000
 Octapole moment (field-independent basis, Debye-Ang**2):
  XXX=             39.2795  YYY=            -13.0240  ZZZ=              0.0001  XYY=             12.0705
  XXY=            -27.1757  XXZ=              0.0002  XZZ=              9.2200  YZZ=              6.4286
  YYZ=             -0.0000  XYZ=             -0.0001
 Hexadecapole moment (field-independent basis, Debye-Ang**3):
 XXXX=          -2058.0636 YYYY=           -619.6837 ZZZZ=            -82.7890 XXXY=            -49.7465
 XXXZ=              0.0015 YYYX=             20.6996 YYYZ=             -0.0001 ZZZX=             -0.0000
 ZZZY=             -0.0003 XXYY=           -496.5468 XXZZ=           -395.2579 YYZZ=           -124.4079
 XXYZ=             -0.0003 YYXZ=              0.0001 ZZXY=             -4.8925
 N-N= 6.919762774484D+02 E-N=-2.764707984084D+03  KE= 5.879399276643D+02
 Breneman (CHELPG) radii used.
 Read replacement radii for each type of atom:
 Atom Element Radius
    1     6    1.50
    2     8    1.70
    3     6    1.50
    4     8    1.70
    5     6    1.50
    6     6    1.50
    7     6    1.50
    8     6    1.50
    9     6    1.50
   10     7    1.70
   11     6    1.50
   12     8    1.70
   13     1    1.45
   14     1    1.45
   15     1    1.45
   16     1    1.45
   17     1    1.45
   18     1    1.45
   19     1    1.45
   20     1    1.45
   21     1    1.45
 Generate Potential Derived Charges using the Breneman model, NDens= 1.
 Grid spacing= 0.300 Box extension= 2.800
 NStep X,Y,Z=   49     36     26   Total possible points=       45864
 Number of Points to Fit=   13801

 **********************************************************************

            Electrostatic Properties Using The SCF Density.

 **********************************************************************

       Atomic Center    1 is at   3.830380 -0.830222  0.000010
       Atomic Center    2 is at   2.418250 -0.981791 -0.000000
       Atomic Center    3 is at   1.697290  0.133289 -0.000000
       Atomic Center    4 is at   2.211981  1.239829 -0.000000
       Atomic Center    5 is at   0.244130 -0.090430 -0.000000
       Atomic Center    6 is at  -0.324960 -1.366810 -0.000010
       Atomic Center    7 is at  -1.702990 -1.503540 -0.000010
       Atomic Center    8 is at  -2.488000 -0.338549 -0.000000
       Atomic Center    9 is at  -3.988690 -0.407099  0.000010
       Atomic Center   10 is at  -1.957109  0.881860 -0.000000
       Atomic Center   11 is at  -0.638909  1.026120 -0.000000
       Atomic Center   12 is at  -0.188619  2.267660 -0.000000
       Atomic Center   13 is at   4.162660 -0.282252  0.892890
       Atomic Center   14 is at   4.244230 -1.844152  0.000010
       Atomic Center   15 is at   4.162670 -0.282252 -0.892880
       Atomic Center   16 is at   0.329939 -2.239620 -0.000010
       Atomic Center   17 is at  -2.171941 -2.488000 -0.000020
       Atomic Center   18 is at  -4.383340  0.115801 -0.883590
       Atomic Center   19 is at  -4.383310  0.115821  0.883610
       Atomic Center   20 is at  -4.356550 -1.441399  0.000030
       Atomic Center   21 is at   0.793011  2.230899 -0.000000
   13801 points will be used for fitting atomic charges
 Fitting point charges to electrostatic potential
 Charges from ESP fit, RMS=   0.00279 RRMS=   0.17384:
 ESP charges:
               1
     1  C   -0.045733
     2  O   -0.297995
     3  C    0.761844
     4  O   -0.560213
     5  C   -0.566596
     6  C    0.199774
     7  C   -0.479461
     8  C    0.626380
     9  C   -0.461110
    10  N   -0.644489
    11  C    0.785348
    12  O   -0.600223
    13  H    0.079335
    14  H    0.091271
    15  H    0.079333
    16  H    0.062512
    17  H    0.162383
    18  H    0.133303
    19  H    0.133299
    20  H    0.113646
    21  H    0.427392
 Sum of ESP charges =   0.00000
 ESP charges with hydrogens summed into heavy atoms:
               1
     1  C    0.204206
     2  O   -0.297995
     3  C    0.761844
     4  O   -0.560213
     5  C   -0.566596
     6  C    0.262286
     7  C   -0.317078
     8  C    0.626380
     9  C   -0.080862
    10  N   -0.644489
    11  C    0.785348
    12  O   -0.172831
 Charge=   0.00000 Dipole=     1.5176    -4.0728     0.0000 Tot=     4.3463
 -----------------------------------------------------------------

              Electrostatic Properties (Atomic Units)

 -----------------------------------------------------------------
    Center     Electric         -------- Electric Field --------
               Potential          X             Y             Z
 -----------------------------------------------------------------
    1 Atom    -14.700003
    2 Atom    -22.293383
    3 Atom    -14.621731
    4 Atom    -22.358564
    5 Atom    -14.744315
    6 Atom    -14.738348
    7 Atom    -14.763246
    8 Atom    -14.712161
    9 Atom    -14.767615
   10 Atom    -18.404338
   11 Atom    -14.662316
   12 Atom    -22.334539
   13 Atom     -1.092622
   14 Atom     -1.088982
   15 Atom     -1.092621
   16 Atom     -1.082824
   17 Atom     -1.092833
   18 Atom     -1.106621
   19 Atom     -1.106621
   20 Atom     -1.109339
   21 Atom     -0.982690
 -----------------------------------------------------------------
 Unable to Open any file for archive entry.
 1\1\GINC-NOTCH462\SP\RwB97XD\def2TZVP\C8H9N1O3\U6053008\12-Jul-2024\0\
 \#N Guess=Read Geom=Check Integral(Ultrafine) Density Pop=(ChelpG,Read
 Radii) NMR wB97XD def2TZVP\\12387733_1\\0,1\C,0,3.83038,-0.83022,0.000
 01\O,0,2.41825,-0.98179,0.\C,0,1.69729,0.13329,0.\O,0,2.21198,1.23983,
 0.\C,0,0.24413,-0.09043,0.\C,0,-0.32496,-1.36681,-0.00001\C,0,-1.70299
 ,-1.50354,-0.00001\C,0,-2.488,-0.33855,0.\C,0,-3.98869,-0.4071,0.00001
 \N,0,-1.95711,0.88186,0.\C,0,-0.63891,1.02612,0.\O,0,-0.18862,2.26766,
 0.\H,0,4.16266,-0.28225,0.89289\H,0,4.24423,-1.84415,0.00001\H,0,4.162
 67,-0.28225,-0.89288\H,0,0.32994,-2.23962,-0.00001\H,0,-2.17194,-2.488
 ,-0.00002\H,0,-4.38334,0.1158,-0.88359\H,0,-4.38331,0.11582,0.88361\H,
 0,-4.35655,-1.4414,0.00003\H,0,0.79301,2.2309,0.\\Version=ES64L-G16Rev
 C.01\State=1-A\HF=-590.7576641\RMSD=1.363e-09\Dipole=0.6094714,-1.5995
 654,0.0000054\Quadrupole=7.2494402,-4.7554069,-2.4940333,0.9758931,0.0
 000416,0.000012\PG=C01 [X(C8H9N1O3)]\\@
 The archive entry for this job was punched.


 A SCIENTIST IS SOMEONE WHOSE CURIOSITY SURVIVES
 EDUCATION'S ASSAULTS ON IT.
                          - SIR HERMANN BONDI
 Job cpu time:       0 days  0 hours 19 minutes 14.3 seconds.
 Elapsed time:       0 days  0 hours  1 minutes 16.6 seconds.
 File lengths (MBytes):  RWF=    119 Int=      0 D2E=      0 Chk=     18 Scr=      2
 Normal termination of Gaussian 16 at Fri Jul 12 13:16:54 2024.
