 Entering Gaussian System, Link 0=g16
 Input=12387732_4.com
 Output=12387732_4.log
 Initial command:
 /uufs/chpc.utah.edu/sys/installdir/gaussian16/C01/AVX/g16/l1.exe "/scratch/general/vast/u6053008/1287194-notchpeak.peaks/Gau-935693.inp" -scrdir="/scratch/general/vast/u6053008/1287194-notchpeak.peaks/"
 Entering Link 1 = /uufs/chpc.utah.edu/sys/installdir/gaussian16/C01/AVX/g16/l1.exe PID=    935694.
  
 Copyright (c) 1988-2019, Gaussian, Inc.  All Rights Reserved.
  
 This is part of the Gaussian(R) 16 program.  It is based on
 the Gaussian(R) 09 system (copyright 2009, Gaussian, Inc.),
 the Gaussian(R) 03 system (copyright 2003, Gaussian, Inc.),
 the Gaussian(R) 98 system (copyright 1998, Gaussian, Inc.),
 the Gaussian(R) 94 system (copyright 1995, Gaussian, Inc.),
 the Gaussian 92(TM) system (copyright 1992, Gaussian, Inc.),
 the Gaussian 90(TM) system (copyright 1990, Gaussian, Inc.),
 the Gaussian 88(TM) system (copyright 1988, Gaussian, Inc.),
 the Gaussian 86(TM) system (copyright 1986, Carnegie Mellon
 University), and the Gaussian 82(TM) system (copyright 1983,
 Carnegie Mellon University). Gaussian is a federally registered
 trademark of Gaussian, Inc.
  
 This software contains proprietary and confidential information,
 including trade secrets, belonging to Gaussian, Inc.
  
 This software is provided under written license and may be
 used, copied, transmitted, or stored only in accord with that
 written license.
  
 The following legend is applicable only to US Government
 contracts under FAR:
  
                    RESTRICTED RIGHTS LEGEND
  
 Use, reproduction and disclosure by the US Government is
 subject to restrictions as set forth in subparagraphs (a)
 and (c) of the Commercial Computer Software - Restricted
 Rights clause in FAR 52.227-19.
  
 Gaussian, Inc.
 340 Quinnipiac St., Bldg. 40, Wallingford CT 06492
  
  
 ---------------------------------------------------------------
 Warning -- This program may not be used in any manner that
 competes with the business of Gaussian, Inc. or will provide
 assistance to any competitor of Gaussian, Inc.  The licensee
 of this program is prohibited from giving any competitor of
 Gaussian, Inc. access to this program.  By using this program,
 the user acknowledges that Gaussian, Inc. is engaged in the
 business of creating and licensing software in the field of
 computational chemistry and represents and warrants to the
 licensee that it is not a competitor of Gaussian, Inc. and that
 it will not use this program in any manner prohibited above.
 ---------------------------------------------------------------
  

 Cite this work as:
 Gaussian 16, Revision C.01,
 M. J. Frisch, G. W. Trucks, H. B. Schlegel, G. E. Scuseria, 
 M. A. Robb, J. R. Cheeseman, G. Scalmani, V. Barone, 
 G. A. Petersson, H. Nakatsuji, X. Li, M. Caricato, A. V. Marenich, 
 J. Bloino, B. G. Janesko, R. Gomperts, B. Mennucci, H. P. Hratchian, 
 J. V. Ortiz, A. F. Izmaylov, J. L. Sonnenberg, D. Williams-Young, 
 F. Ding, F. Lipparini, F. Egidi, J. Goings, B. Peng, A. Petrone, 
 T. Henderson, D. Ranasinghe, V. G. Zakrzewski, J. Gao, N. Rega, 
 G. Zheng, W. Liang, M. Hada, M. Ehara, K. Toyota, R. Fukuda, 
 J. Hasegawa, M. Ishida, T. Nakajima, Y. Honda, O. Kitao, H. Nakai, 
 T. Vreven, K. Throssell, J. A. Montgomery, Jr., J. E. Peralta, 
 F. Ogliaro, M. J. Bearpark, J. J. Heyd, E. N. Brothers, K. N. Kudin, 
 V. N. Staroverov, T. A. Keith, R. Kobayashi, J. Normand, 
 K. Raghavachari, A. P. Rendell, J. C. Burant, S. S. Iyengar, 
 J. Tomasi, M. Cossi, J. M. Millam, M. Klene, C. Adamo, R. Cammi, 
 J. W. Ochterski, R. L. Martin, K. Morokuma, O. Farkas, 
 J. B. Foresman, and D. J. Fox, Gaussian, Inc., Wallingford CT, 2019.
 
 ******************************************
 Gaussian 16:  ES64L-G16RevC.01  3-Jul-2019
                12-Jul-2024 
 ******************************************
 %NProcShared=16
 Will use up to   16 processors via shared memory.
 %Mem=32GB
 %chk=12387732_4.chk
 ------------------------------------------------------
 #N OPT FREQ=NORAMAN Integral(Ultrafine) wB97XD def2SVP
 ------------------------------------------------------
 1/18=20,19=15,26=4,38=1/1,3;
 2/9=110,12=2,17=6,18=5,40=1/2;
 3/5=43,7=101,11=2,25=1,30=1,71=1,74=-58,75=-5/1,2,3;
 4//1;
 5/5=2,38=5/2;
 6/7=2,8=2,9=2,10=2,28=1/1;
 7//1,2,3,16;
 1/18=20,19=15,26=4/3(2);
 2/9=110/2;
 99//99;
 2/9=110/2;
 3/5=43,7=101,11=2,25=1,30=1,71=1,74=-58,75=-5/1,2,3;
 4/5=5,16=3,69=1/1;
 5/5=2,38=5/2;
 7//1,2,3,16;
 1/18=20,19=15,26=4/3(-5);
 2/9=110/2;
 6/7=2,8=2,9=2,10=2,19=2,28=1/1;
 99/9=1/99;
 ----------
 12387732_4
 ----------
 Symbolic Z-matrix:
 Charge =  0 Multiplicity = 1
 C                    -3.73684  -0.34465   0.00002 
 O                    -2.41122   0.17204  -0.00008 
 C                    -1.40505  -0.73436  -0.00002 
 O                    -1.61852  -1.91726   0.00007 
 C                    -0.06027  -0.10841  -0.00004 
 C                     1.03858  -0.97207  -0.00005 
 C                     2.33907  -0.47864  -0.00002 
 C                     3.54205  -1.38199   0.00002 
 C                     2.45547   0.91705   0.00001 
 N                     1.43611   1.76357   0.00002 
 C                     0.19858   1.28894  -0.00001 
 O                    -0.75957   2.20961   0.00003 
 H                    -4.40276   0.52484   0.00042 
 H                    -3.90976  -0.95953  -0.89366 
 H                    -3.90941  -0.9601    0.89338 
 H                     0.83916  -2.04688  -0.00007 
 H                     4.47462  -0.80029   0.00018 
 H                     3.55334  -2.03345  -0.88722 
 H                     3.55313  -2.03363   0.88712 
 H                     3.45389   1.37284   0.00004 
 H                    -1.62001   1.76082   0.00004 
 

 GradGradGradGradGradGradGradGradGradGradGradGradGradGradGradGradGradGrad
 Berny optimization.
 Initialization pass.
                           ----------------------------
                           !    Initial Parameters    !
                           ! (Angstroms and Degrees)  !
 --------------------------                            --------------------------
 ! Name  Definition              Value          Derivative Info.                !
 --------------------------------------------------------------------------------
 ! R1    R(1,2)                  1.4228         estimate D2E/DX2                !
 ! R2    R(1,13)                 1.0952         estimate D2E/DX2                !
 ! R3    R(1,14)                 1.0985         estimate D2E/DX2                !
 ! R4    R(1,15)                 1.0985         estimate D2E/DX2                !
 ! R5    R(2,3)                  1.3542         estimate D2E/DX2                !
 ! R6    R(3,4)                  1.202          estimate D2E/DX2                !
 ! R7    R(3,5)                  1.4833         estimate D2E/DX2                !
 ! R8    R(5,6)                  1.3976         estimate D2E/DX2                !
 ! R9    R(5,11)                 1.4211         estimate D2E/DX2                !
 ! R10   R(6,7)                  1.391          estimate D2E/DX2                !
 ! R11   R(6,16)                 1.0932         estimate D2E/DX2                !
 ! R12   R(7,8)                  1.5044         estimate D2E/DX2                !
 ! R13   R(7,9)                  1.4005         estimate D2E/DX2                !
 ! R14   R(8,17)                 1.0991         estimate D2E/DX2                !
 ! R15   R(8,18)                 1.1008         estimate D2E/DX2                !
 ! R16   R(8,19)                 1.1008         estimate D2E/DX2                !
 ! R17   R(9,10)                 1.325          estimate D2E/DX2                !
 ! R18   R(9,20)                 1.0975         estimate D2E/DX2                !
 ! R19   R(10,11)                1.3254         estimate D2E/DX2                !
 ! R20   R(11,12)                1.3288         estimate D2E/DX2                !
 ! R21   R(12,21)                0.9704         estimate D2E/DX2                !
 ! A1    A(2,1,13)             106.1531         estimate D2E/DX2                !
 ! A2    A(2,1,14)             110.481          estimate D2E/DX2                !
 ! A3    A(2,1,15)             110.4813         estimate D2E/DX2                !
 ! A4    A(13,1,14)            110.4249         estimate D2E/DX2                !
 ! A5    A(13,1,15)            110.4255         estimate D2E/DX2                !
 ! A6    A(14,1,15)            108.8626         estimate D2E/DX2                !
 ! A7    A(1,2,3)              116.6917         estimate D2E/DX2                !
 ! A8    A(2,3,4)              121.7842         estimate D2E/DX2                !
 ! A9    A(2,3,5)              113.0258         estimate D2E/DX2                !
 ! A10   A(4,3,5)              125.1901         estimate D2E/DX2                !
 ! A11   A(3,5,6)              116.8734         estimate D2E/DX2                !
 ! A12   A(3,5,11)             125.4551         estimate D2E/DX2                !
 ! A13   A(6,5,11)             117.6715         estimate D2E/DX2                !
 ! A14   A(5,6,7)              121.0561         estimate D2E/DX2                !
 ! A15   A(5,6,16)             117.6551         estimate D2E/DX2                !
 ! A16   A(7,6,16)             121.2888         estimate D2E/DX2                !
 ! A17   A(6,7,8)              122.3185         estimate D2E/DX2                !
 ! A18   A(6,7,9)              115.5451         estimate D2E/DX2                !
 ! A19   A(8,7,9)              122.1365         estimate D2E/DX2                !
 ! A20   A(7,8,17)             111.1419         estimate D2E/DX2                !
 ! A21   A(7,8,18)             111.3184         estimate D2E/DX2                !
 ! A22   A(7,8,19)             111.3178         estimate D2E/DX2                !
 ! A23   A(17,8,18)            107.7358         estimate D2E/DX2                !
 ! A24   A(17,8,19)            107.7368         estimate D2E/DX2                !
 ! A25   A(18,8,19)            107.4038         estimate D2E/DX2                !
 ! A26   A(7,9,10)             124.9403         estimate D2E/DX2                !
 ! A27   A(7,9,20)             119.3046         estimate D2E/DX2                !
 ! A28   A(10,9,20)            115.7551         estimate D2E/DX2                !
 ! A29   A(9,10,11)            119.309          estimate D2E/DX2                !
 ! A30   A(5,11,10)            121.478          estimate D2E/DX2                !
 ! A31   A(5,11,12)            123.3625         estimate D2E/DX2                !
 ! A32   A(10,11,12)           115.1595         estimate D2E/DX2                !
 ! A33   A(11,12,21)           108.5971         estimate D2E/DX2                !
 ! D1    D(13,1,2,3)           179.9745         estimate D2E/DX2                !
 ! D2    D(14,1,2,3)           -60.2884         estimate D2E/DX2                !
 ! D3    D(15,1,2,3)            60.2365         estimate D2E/DX2                !
 ! D4    D(1,2,3,4)              0.0023         estimate D2E/DX2                !
 ! D5    D(1,2,3,5)           -179.9961         estimate D2E/DX2                !
 ! D6    D(2,3,5,6)           -179.9968         estimate D2E/DX2                !
 ! D7    D(2,3,5,11)             0.0051         estimate D2E/DX2                !
 ! D8    D(4,3,5,6)              0.0048         estimate D2E/DX2                !
 ! D9    D(4,3,5,11)          -179.9933         estimate D2E/DX2                !
 ! D10   D(3,5,6,7)           -179.9977         estimate D2E/DX2                !
 ! D11   D(3,5,6,16)             0.0016         estimate D2E/DX2                !
 ! D12   D(11,5,6,7)             0.0005         estimate D2E/DX2                !
 ! D13   D(11,5,6,16)          179.9998         estimate D2E/DX2                !
 ! D14   D(3,5,11,10)          179.9974         estimate D2E/DX2                !
 ! D15   D(3,5,11,12)           -0.0005         estimate D2E/DX2                !
 ! D16   D(6,5,11,10)           -0.0006         estimate D2E/DX2                !
 ! D17   D(6,5,11,12)         -179.9986         estimate D2E/DX2                !
 ! D18   D(5,6,7,8)            179.9978         estimate D2E/DX2                !
 ! D19   D(5,6,7,9)             -0.0005         estimate D2E/DX2                !
 ! D20   D(16,6,7,8)            -0.0015         estimate D2E/DX2                !
 ! D21   D(16,6,7,9)          -179.9997         estimate D2E/DX2                !
 ! D22   D(6,7,8,17)          -179.9921         estimate D2E/DX2                !
 ! D23   D(6,7,8,18)            59.9074         estimate D2E/DX2                !
 ! D24   D(6,7,8,19)           -59.8909         estimate D2E/DX2                !
 ! D25   D(9,7,8,17)             0.0059         estimate D2E/DX2                !
 ! D26   D(9,7,8,18)          -120.0945         estimate D2E/DX2                !
 ! D27   D(9,7,8,19)           120.1072         estimate D2E/DX2                !
 ! D28   D(6,7,9,10)             0.0005         estimate D2E/DX2                !
 ! D29   D(6,7,9,20)           179.9997         estimate D2E/DX2                !
 ! D30   D(8,7,9,10)          -179.9978         estimate D2E/DX2                !
 ! D31   D(8,7,9,20)             0.0015         estimate D2E/DX2                !
 ! D32   D(7,9,10,11)           -0.0005         estimate D2E/DX2                !
 ! D33   D(20,9,10,11)        -179.9998         estimate D2E/DX2                !
 ! D34   D(9,10,11,5)            0.0006         estimate D2E/DX2                !
 ! D35   D(9,10,11,12)         179.9987         estimate D2E/DX2                !
 ! D36   D(5,11,12,21)           0.0004         estimate D2E/DX2                !
 ! D37   D(10,11,12,21)       -179.9977         estimate D2E/DX2                !
 --------------------------------------------------------------------------------
 Trust Radius=3.00D-01 FncErr=1.00D-07 GrdErr=1.00D-06 EigMax=2.50D+02 EigMin=1.00D-04
 Number of steps in this run=    101 maximum allowed number of steps=    126.
 GradGradGradGradGradGradGradGradGradGradGradGradGradGradGradGradGradGrad

                          Input orientation:                          
 ---------------------------------------------------------------------
 Center     Atomic      Atomic             Coordinates (Angstroms)
 Number     Number       Type             X           Y           Z
 ---------------------------------------------------------------------
      1          6           0       -3.736840   -0.344650    0.000020
      2          8           0       -2.411220    0.172040   -0.000080
      3          6           0       -1.405050   -0.734360   -0.000020
      4          8           0       -1.618520   -1.917260    0.000070
      5          6           0       -0.060270   -0.108410   -0.000040
      6          6           0        1.038580   -0.972070   -0.000050
      7          6           0        2.339070   -0.478640   -0.000020
      8          6           0        3.542050   -1.381990    0.000020
      9          6           0        2.455470    0.917050    0.000010
     10          7           0        1.436110    1.763570    0.000020
     11          6           0        0.198580    1.288940   -0.000010
     12          8           0       -0.759570    2.209610    0.000030
     13          1           0       -4.402760    0.524840    0.000420
     14          1           0       -3.909760   -0.959530   -0.893660
     15          1           0       -3.909410   -0.960100    0.893380
     16          1           0        0.839160   -2.046880   -0.000070
     17          1           0        4.474620   -0.800290    0.000180
     18          1           0        3.553340   -2.033450   -0.887220
     19          1           0        3.553130   -2.033630    0.887120
     20          1           0        3.453890    1.372840    0.000040
     21          1           0       -1.620010    1.760820    0.000040
 ---------------------------------------------------------------------
                    Distance matrix (angstroms):
                    1          2          3          4          5
     1  C    0.000000
     2  O    1.422757   0.000000
     3  C    2.364132   1.354230   0.000000
     4  O    2.638254   2.234625   1.202007   0.000000
     5  C    3.684152   2.367619   1.483323   2.387484   0.000000
     6  C    4.816461   3.634571   2.455165   2.820206   1.397634
     7  C    6.077387   4.794647   3.752843   4.210955   2.427736
     8  C    7.352436   6.152758   4.989311   5.188256   3.820827
     9  C    6.319540   4.923384   4.198901   4.962933   2.716711
    10  N    5.586054   4.163522   3.783100   4.783228   2.396552
    11  C    4.261003   2.838754   2.581738   3.685318   1.421123
    12  O    3.922803   2.622907   3.013902   4.215312   2.421206
    13  H    1.095200   2.022548   3.251438   3.703491   4.388419
    14  H    1.098473   2.079557   2.668870   2.639277   4.042466
    15  H    1.098477   2.079564   2.668509   2.638624   4.042209
    16  H    4.882352   3.935553   2.599844   2.461096   2.136970
    17  H    8.224092   6.954151   5.880040   6.194673   4.587366
    18  H    7.535646   6.420839   5.201960   5.248706   4.189397
    19  H    7.535467   6.420715   5.201795   5.248463   4.189294
    20  H    7.392995   5.986772   5.296186   6.045999   3.813584
    21  H    2.985628   1.774890   2.504422   3.678080   2.434504
                    6          7          8          9         10
     6  C    0.000000
     7  C    1.390952   0.000000
     8  C    2.536808   1.504394   0.000000
     9  C    2.361430   1.400535   2.542880   0.000000
    10  N    2.764373   2.417197   3.785437   1.325025   0.000000
    11  C    2.412005   2.775975   4.279329   2.287325   1.325426
    12  O    3.654645   4.102226   5.603885   3.465140   2.240527
    13  H    5.643485   6.816102   8.170435   6.869436   5.968824
    14  H    5.028396   6.330697   7.517088   6.695995   6.065663
    15  H    5.028018   6.330361   7.516671   6.695782   6.065563
    16  H    1.093154   2.170048   2.783468   3.375995   3.856926
    17  H    3.440331   2.159637   1.099119   2.650702   3.975666
    18  H    2.870125   2.163102   1.100783   3.270771   4.437028
    19  H    2.870007   2.163089   1.100774   3.270831   4.437054
    20  H    3.366352   2.161204   2.756240   1.097537   2.055263
    21  H    3.812714   4.548571   6.043519   4.161909   3.056121
                   11         12         13         14         15
    11  C    0.000000
    12  O    1.328791   0.000000
    13  H    4.664352   4.013886   0.000000
    14  H    4.767881   4.556954   1.801605   0.000000
    15  H    4.767799   4.557042   1.801616   1.787040   0.000000
    16  H    3.396769   4.546828   5.838790   4.953087   4.952601
    17  H    4.759139   6.037901   8.975736   8.433394   8.432989
    18  H    4.804147   6.114897   8.404301   7.539974   7.746951
    19  H    4.804110   6.114850   8.404058   7.747231   7.539364
    20  H    3.256391   4.295745   7.902282   7.775731   7.775529
    21  H    1.878814   0.970448   3.044888   3.666328   3.666444
                   16         17         18         19         20
    16  H    0.000000
    17  H    3.843248   0.000000
    18  H    2.855519   1.776772   0.000000
    19  H    2.855331   1.776776   1.774340   0.000000
    20  H    4.304799   2.400913   3.521354   3.521477   0.000000
    21  H    4.532780   6.610885   6.476671   6.476584   5.088712
                   21
    21  H    0.000000
 Stoichiometry    C8H9NO3
 Framework group  C1[X(C8H9NO3)]
 Deg. of freedom    57
 Full point group                 C1      NOp   1
 Largest Abelian subgroup         C1      NOp   1
 Largest concise Abelian subgroup C1      NOp   1
                         Standard orientation:                         
 ---------------------------------------------------------------------
 Center     Atomic      Atomic             Coordinates (Angstroms)
 Number     Number       Type             X           Y           Z
 ---------------------------------------------------------------------
      1          6           0        3.736841   -0.344646   -0.000020
      2          8           0        2.411220    0.172043    0.000080
      3          6           0        1.405051   -0.734358    0.000020
      4          8           0        1.618522   -1.917258   -0.000070
      5          6           0        0.060270   -0.108409    0.000040
      6          6           0       -1.038579   -0.972071    0.000050
      7          6           0       -2.339069   -0.478642    0.000020
      8          6           0       -3.542048   -1.381993   -0.000020
      9          6           0       -2.455471    0.917048   -0.000010
     10          7           0       -1.436111    1.763569   -0.000020
     11          6           0       -0.198581    1.288940    0.000010
     12          8           0        0.759568    2.209611   -0.000030
     13          1           0        4.402760    0.524845   -0.000420
     14          1           0        3.909761   -0.959525    0.893660
     15          1           0        3.909411   -0.960095   -0.893380
     16          1           0       -0.839158   -2.046880    0.000070
     17          1           0       -4.474619   -0.800294   -0.000180
     18          1           0       -3.553338   -2.033453    0.887220
     19          1           0       -3.553128   -2.033633   -0.887120
     20          1           0       -3.453891    1.372837   -0.000040
     21          1           0        1.620009    1.760822   -0.000040
 ---------------------------------------------------------------------
 Rotational constants (GHZ):           1.8109479           0.6469917           0.4795783
 Standard basis: def2SVP (5D, 7F)
 There are   225 symmetry adapted cartesian basis functions of A   symmetry.
 There are   213 symmetry adapted basis functions of A   symmetry.
   213 basis functions,   363 primitive gaussians,   225 cartesian basis functions
    44 alpha electrons       44 beta electrons
       nuclear repulsion energy       692.5044584092 Hartrees.
 NAtoms=   21 NActive=   21 NUniq=   21 SFac= 1.00D+00 NAtFMM=   60 NAOKFM=F Big=F
 Integral buffers will be    131072 words long.
 Raffenetti 2 integral format.
 Two-electron integral symmetry is turned on.
 Nuclear repulsion after empirical dispersion term =      692.4941399061 Hartrees.
 One-electron integrals computed using PRISM.
   1 Symmetry operations used in ECPInt.
 ECPInt:  NShTT=    4950 NPrTT=   18138 LenC2=    4711 LenP2D=   12886.
 LDataN:  DoStor=T MaxTD1= 4 Len=   56
 NBasis=   213 RedAO= T EigKep=  5.75D-04  NBF=   213
 NBsUse=   213 1.00D-06 EigRej= -1.00D+00 NBFU=   213
 ExpMin= 1.22D-01 ExpMax= 2.27D+03 ExpMxC= 3.41D+02 IAcc=3 IRadAn=         5 AccDes= 0.00D+00
 Harris functional with IExCor= 4639 and IRadAn=       5 diagonalized for initial guess.
 HarFok:  IExCor= 4639 AccDes= 0.00D+00 IRadAn=         5 IDoV= 1 UseB2=F ITyADJ=14
 ICtDFT=  3500011 ScaDFX=  1.000000  1.000000  1.000000  1.000000
 FoFCou: FMM=F IPFlag=           0 FMFlag=      100000 FMFlg1=           0
         NFxFlg=           0 DoJE=T BraDBF=F KetDBF=T FulRan=T
         wScrn=  0.000000 ICntrl=       500 IOpCl=  0 I1Cent=   200000004 NGrid=           0
         NMat0=    1 NMatS0=      1 NMatT0=    0 NMatD0=    1 NMtDS0=    0 NMtDT0=    0
 Petite list used in FoFCou.
 Requested convergence on RMS density matrix=1.00D-08 within 128 cycles.
 Requested convergence on MAX density matrix=1.00D-06.
 Requested convergence on             energy=1.00D-06.
 No special actions if energy rises.
 Integral accuracy reduced to 1.0D-05 until final iterations.
 Initial convergence to 1.0D-05 achieved.  Increase integral accuracy.
 SCF Done:  E(RwB97XD) =  -590.095079214     A.U. after   15 cycles
            NFock= 15  Conv=0.66D-08     -V/T= 2.0094

 **********************************************************************

            Population analysis using the SCF Density.

 **********************************************************************

 Orbital symmetries:
       Occupied  (A) (A) (A) (A) (A) (A) (A) (A) (A) (A) (A) (A)
                 (A) (A) (A) (A) (A) (A) (A) (A) (A) (A) (A) (A)
                 (A) (A) (A) (A) (A) (A) (A) (A) (A) (A) (A) (A)
                 (A) (A) (A) (A) (A) (A) (A) (A)
       Virtual   (A) (A) (A) (A) (A) (A) (A) (A) (A) (A) (A) (A)
                 (A) (A) (A) (A) (A) (A) (A) (A) (A) (A) (A) (A)
                 (A) (A) (A) (A) (A) (A) (A) (A) (A) (A) (A) (A)
                 (A) (A) (A) (A) (A) (A) (A) (A) (A) (A) (A) (A)
                 (A) (A) (A) (A) (A) (A) (A) (A) (A) (A) (A) (A)
                 (A) (A) (A) (A) (A) (A) (A) (A) (A) (A) (A) (A)
                 (A) (A) (A) (A) (A) (A) (A) (A) (A) (A) (A) (A)
                 (A) (A) (A) (A) (A) (A) (A) (A) (A) (A) (A) (A)
                 (A) (A) (A) (A) (A) (A) (A) (A) (A) (A) (A) (A)
                 (A) (A) (A) (A) (A) (A) (A) (A) (A) (A) (A) (A)
                 (A) (A) (A) (A) (A) (A) (A) (A) (A) (A) (A) (A)
                 (A) (A) (A) (A) (A) (A) (A) (A) (A) (A) (A) (A)
                 (A) (A) (A) (A) (A) (A) (A) (A) (A) (A) (A) (A)
                 (A) (A) (A) (A) (A) (A) (A) (A) (A) (A) (A) (A)
                 (A)
 The electronic state is 1-A.
 Alpha  occ. eigenvalues --  -19.33135 -19.28605 -19.25851 -14.43715 -10.44713
 Alpha  occ. eigenvalues --  -10.40573 -10.37372 -10.34529 -10.32807 -10.32451
 Alpha  occ. eigenvalues --  -10.31479 -10.30731  -1.22622  -1.17170  -1.12806
 Alpha  occ. eigenvalues --   -1.04015  -0.92337  -0.88897  -0.84143  -0.79536
 Alpha  occ. eigenvalues --   -0.75017  -0.71458  -0.68825  -0.66035  -0.62310
 Alpha  occ. eigenvalues --   -0.60758  -0.59980  -0.57202  -0.55063  -0.54080
 Alpha  occ. eigenvalues --   -0.53136  -0.51001  -0.50556  -0.50009  -0.48526
 Alpha  occ. eigenvalues --   -0.48021  -0.46252  -0.44700  -0.43662  -0.41222
 Alpha  occ. eigenvalues --   -0.38819  -0.37283  -0.34460  -0.31328
 Alpha virt. eigenvalues --    0.00661   0.05729   0.11843   0.14141   0.14723
 Alpha virt. eigenvalues --    0.17253   0.18125   0.18291   0.20254   0.20313
 Alpha virt. eigenvalues --    0.21383   0.22846   0.23545   0.26461   0.28337
 Alpha virt. eigenvalues --    0.30024   0.31777   0.33158   0.34082   0.36010
 Alpha virt. eigenvalues --    0.38106   0.40521   0.43484   0.45763   0.47446
 Alpha virt. eigenvalues --    0.49426   0.50445   0.50526   0.51570   0.51679
 Alpha virt. eigenvalues --    0.52918   0.54388   0.57195   0.59163   0.60120
 Alpha virt. eigenvalues --    0.63610   0.64323   0.65583   0.66225   0.66790
 Alpha virt. eigenvalues --    0.68504   0.69863   0.71126   0.72195   0.72225
 Alpha virt. eigenvalues --    0.72920   0.73295   0.74985   0.75461   0.75892
 Alpha virt. eigenvalues --    0.76184   0.77326   0.78440   0.80594   0.81156
 Alpha virt. eigenvalues --    0.81379   0.85773   0.87467   0.90007   0.90379
 Alpha virt. eigenvalues --    0.92880   0.98938   0.99215   1.00745   1.05429
 Alpha virt. eigenvalues --    1.06178   1.09853   1.12306   1.13885   1.15473
 Alpha virt. eigenvalues --    1.18172   1.21932   1.23537   1.26680   1.28902
 Alpha virt. eigenvalues --    1.32249   1.33798   1.34486   1.35319   1.35327
 Alpha virt. eigenvalues --    1.39962   1.40776   1.43829   1.48638   1.50008
 Alpha virt. eigenvalues --    1.52732   1.54121   1.55830   1.57727   1.61050
 Alpha virt. eigenvalues --    1.61798   1.62968   1.65801   1.67391   1.70531
 Alpha virt. eigenvalues --    1.73879   1.76947   1.79951   1.80346   1.81128
 Alpha virt. eigenvalues --    1.82042   1.82899   1.84061   1.85902   1.86751
 Alpha virt. eigenvalues --    1.88455   1.90347   1.90764   1.91861   1.94626
 Alpha virt. eigenvalues --    1.96784   1.97966   2.01033   2.03365   2.04760
 Alpha virt. eigenvalues --    2.05985   2.09052   2.10322   2.14509   2.20677
 Alpha virt. eigenvalues --    2.21863   2.22940   2.28565   2.28686   2.32087
 Alpha virt. eigenvalues --    2.33445   2.34947   2.37673   2.41812   2.41842
 Alpha virt. eigenvalues --    2.46935   2.48773   2.48959   2.51032   2.55755
 Alpha virt. eigenvalues --    2.59324   2.62481   2.64202   2.67720   2.70393
 Alpha virt. eigenvalues --    2.71784   2.73115   2.77707   2.80050   2.80501
 Alpha virt. eigenvalues --    2.86840   2.86985   2.89208   2.94730   2.96563
 Alpha virt. eigenvalues --    2.99211   3.01172   3.03155   3.03986   3.04544
 Alpha virt. eigenvalues --    3.09211   3.10327   3.12880   3.16464   3.24925
 Alpha virt. eigenvalues --    3.27491   3.28695   3.38202   3.49820   3.57432
 Alpha virt. eigenvalues --    3.64717   3.74186   3.77861   3.95241
          Condensed to atoms (all electrons):
               1          2          3          4          5          6
     1  C    4.411421   0.248620  -0.026915   0.003524   0.011536  -0.000204
     2  O    0.248620   8.054766   0.354137  -0.081620  -0.131266   0.003207
     3  C   -0.026915   0.354137   4.546046   0.751216   0.169007  -0.058875
     4  O    0.003524  -0.081620   0.751216   7.643100  -0.126878   0.010280
     5  C    0.011536  -0.131266   0.169007  -0.126878   5.941128   0.428305
     6  C   -0.000204   0.003207  -0.058875   0.010280   0.428305   4.899914
     7  C    0.000001   0.000006   0.020032   0.001646   0.009419   0.387312
     8  C   -0.000000  -0.000000  -0.000168  -0.000022   0.009921  -0.076343
     9  C    0.000001   0.000004   0.000178  -0.000009  -0.057659  -0.021435
    10  N    0.000002  -0.000004   0.003723  -0.000011  -0.107925  -0.032535
    11  C   -0.000302   0.003703  -0.045057   0.001230   0.244180  -0.024071
    12  O    0.000169  -0.020570   0.001338  -0.000016  -0.107221   0.001024
    13  H    0.399141  -0.022370   0.004702   0.000780   0.000115   0.000010
    14  H    0.408546  -0.025042  -0.004147   0.005862   0.000726   0.000003
    15  H    0.408535  -0.025042  -0.004153   0.005879   0.000729   0.000003
    16  H   -0.000048   0.000690  -0.014449   0.016002  -0.050779   0.438425
    17  H    0.000000  -0.000000   0.000007  -0.000000  -0.000506   0.009487
    18  H    0.000000  -0.000000  -0.000006  -0.000002   0.000484  -0.006748
    19  H    0.000000  -0.000000  -0.000006  -0.000002   0.000484  -0.006750
    20  H    0.000000  -0.000000   0.000055  -0.000000   0.000628   0.007043
    21  H   -0.001644   0.038641   0.000961   0.000521  -0.027036  -0.000030
               7          8          9         10         11         12
     1  C    0.000001  -0.000000   0.000001   0.000002  -0.000302   0.000169
     2  O    0.000006  -0.000000   0.000004  -0.000004   0.003703  -0.020570
     3  C    0.020032  -0.000168   0.000178   0.003723  -0.045057   0.001338
     4  O    0.001646  -0.000022  -0.000009  -0.000011   0.001230  -0.000016
     5  C    0.009419   0.009921  -0.057659  -0.107925   0.244180  -0.107221
     6  C    0.387312  -0.076343  -0.021435  -0.032535  -0.024071   0.001024
     7  C    5.208465   0.381688   0.444891  -0.045654  -0.067102   0.000426
     8  C    0.381688   4.545101  -0.053497   0.005107   0.001745   0.000007
     9  C    0.444891  -0.053497   4.725727   0.545277  -0.049428   0.000912
    10  N   -0.045654   0.005107   0.545277   6.296497   0.574221  -0.081125
    11  C   -0.067102   0.001745  -0.049428   0.574221   4.720830   0.479078
    12  O    0.000426   0.000007   0.000912  -0.081125   0.479078   7.553711
    13  H   -0.000001   0.000000   0.000000   0.000000  -0.000078   0.000180
    14  H   -0.000000   0.000000   0.000000   0.000000  -0.000014  -0.000036
    15  H   -0.000000   0.000000   0.000000   0.000000  -0.000014  -0.000036
    16  H   -0.058833  -0.009290   0.009585  -0.000220   0.009199  -0.000063
    17  H   -0.021095   0.390489  -0.007193   0.000227   0.000035   0.000000
    18  H   -0.015954   0.390807   0.001376  -0.000130  -0.000023  -0.000000
    19  H   -0.015957   0.390812   0.001378  -0.000130  -0.000023  -0.000000
    20  H   -0.067723  -0.007091   0.423495  -0.036808   0.005236  -0.000018
    21  H   -0.000077  -0.000001  -0.000262   0.005018   0.005087   0.335787
              13         14         15         16         17         18
     1  C    0.399141   0.408546   0.408535  -0.000048   0.000000   0.000000
     2  O   -0.022370  -0.025042  -0.025042   0.000690  -0.000000  -0.000000
     3  C    0.004702  -0.004147  -0.004153  -0.014449   0.000007  -0.000006
     4  O    0.000780   0.005862   0.005879   0.016002  -0.000000  -0.000002
     5  C    0.000115   0.000726   0.000729  -0.050779  -0.000506   0.000484
     6  C    0.000010   0.000003   0.000003   0.438425   0.009487  -0.006748
     7  C   -0.000001  -0.000000  -0.000000  -0.058833  -0.021095  -0.015954
     8  C    0.000000   0.000000   0.000000  -0.009290   0.390489   0.390807
     9  C    0.000000   0.000000   0.000000   0.009585  -0.007193   0.001376
    10  N    0.000000   0.000000   0.000000  -0.000220   0.000227  -0.000130
    11  C   -0.000078  -0.000014  -0.000014   0.009199   0.000035  -0.000023
    12  O    0.000180  -0.000036  -0.000036  -0.000063   0.000000  -0.000000
    13  H    0.605069  -0.022757  -0.022752  -0.000001  -0.000000   0.000000
    14  H   -0.022757   0.600515  -0.027374  -0.000004  -0.000000  -0.000000
    15  H   -0.022752  -0.027374   0.600499  -0.000004  -0.000000  -0.000000
    16  H   -0.000001  -0.000004  -0.000004   0.620096  -0.000034   0.001718
    17  H   -0.000000  -0.000000  -0.000000  -0.000034   0.623714  -0.019724
    18  H    0.000000  -0.000000  -0.000000   0.001718  -0.019724   0.613112
    19  H    0.000000  -0.000000  -0.000000   0.001719  -0.019725  -0.020569
    20  H    0.000000  -0.000000  -0.000000  -0.000250   0.006513   0.000028
    21  H   -0.001483   0.000419   0.000420  -0.000034   0.000000   0.000000
              19         20         21
     1  C    0.000000   0.000000  -0.001644
     2  O   -0.000000  -0.000000   0.038641
     3  C   -0.000006   0.000055   0.000961
     4  O   -0.000002  -0.000000   0.000521
     5  C    0.000484   0.000628  -0.027036
     6  C   -0.006750   0.007043  -0.000030
     7  C   -0.015957  -0.067723  -0.000077
     8  C    0.390812  -0.007091  -0.000001
     9  C    0.001378   0.423495  -0.000262
    10  N   -0.000130  -0.036808   0.005018
    11  C   -0.000023   0.005236   0.005087
    12  O   -0.000000  -0.000018   0.335787
    13  H    0.000000   0.000000  -0.001483
    14  H   -0.000000  -0.000000   0.000419
    15  H   -0.000000  -0.000000   0.000420
    16  H    0.001719  -0.000250  -0.000034
    17  H   -0.019725   0.006513   0.000000
    18  H   -0.020569   0.000028   0.000000
    19  H    0.613113   0.000028   0.000000
    20  H    0.000028   0.638521   0.000008
    21  H    0.000000   0.000008   0.449374
 Mulliken charges:
               1
     1  C    0.137617
     2  O   -0.397858
     3  C    0.302373
     4  O   -0.231480
     5  C   -0.207392
     6  C    0.041977
     7  C   -0.161488
     8  C    0.030735
     9  C    0.036660
    10  N   -0.125529
    11  C    0.141566
    12  O   -0.163545
    13  H    0.059444
    14  H    0.063301
    15  H    0.063310
    16  H    0.036577
    17  H    0.037807
    18  H    0.055632
    19  H    0.055628
    20  H    0.030334
    21  H    0.194332
 Sum of Mulliken charges =  -0.00000
 Mulliken charges with hydrogens summed into heavy atoms:
               1
     1  C    0.323672
     2  O   -0.397858
     3  C    0.302373
     4  O   -0.231480
     5  C   -0.207392
     6  C    0.078553
     7  C   -0.161488
     8  C    0.179801
     9  C    0.066994
    10  N   -0.125529
    11  C    0.141566
    12  O    0.030787
 Electronic spatial extent (au):  <R**2>=           2273.4622
 Charge=             -0.0000 electrons
 Dipole moment (field-independent basis, Debye):
    X=              1.3386    Y=             -1.6971    Z=              0.0000  Tot=              2.1615
 Quadrupole moment (field-independent basis, Debye-Ang):
   XX=            -49.6026   YY=            -81.0212   ZZ=            -69.2049
   XY=              6.6264   XZ=             -0.0003   YZ=             -0.0003
 Traceless Quadrupole moment (field-independent basis, Debye-Ang):
   XX=             17.0070   YY=            -14.4116   ZZ=             -2.5954
   XY=              6.6264   XZ=             -0.0003   YZ=             -0.0003
 Octapole moment (field-independent basis, Debye-Ang**2):
  XXX=             53.5448  YYY=            -14.8430  ZZZ=              0.0004  XYY=              1.9357
  XXY=              1.9072  XXZ=             -0.0015  XZZ=             11.6619  YZZ=             -0.8345
  YYZ=              0.0004  XYZ=             -0.0010
 Hexadecapole moment (field-independent basis, Debye-Ang**3):
 XXXX=          -1795.9453 YYYY=           -813.3173 ZZZZ=            -78.6377 XXXY=             -6.7521
 XXXZ=             -0.0029 YYYX=             46.1161 YYYZ=              0.0012 ZZZX=              0.0014
 ZZZY=             -0.0003 XXYY=           -472.1138 XXZZ=           -367.1676 YYZZ=           -131.2169
 XXYZ=             -0.0048 YYXZ=             -0.0019 ZZXY=             -2.0214
 N-N= 6.924941399061D+02 E-N=-2.761123702253D+03  KE= 5.846094062373D+02
   1 Symmetry operations used in ECPInt.
 ECPInt:  NShTT=    4950 NPrTT=   18138 LenC2=    4711 LenP2D=   12886.
 LDataN:  DoStor=T MaxTD1= 5 Len=  102
 Calling FoFJK, ICntrl=      2127 FMM=F ISym2X=0 I1Cent= 0 IOpClX= 0 NMat=1 NMatS=1 NMatT=0.
 ***** Axes restored to original set *****
 -------------------------------------------------------------------
 Center     Atomic                   Forces (Hartrees/Bohr)
 Number     Number              X              Y              Z
 -------------------------------------------------------------------
      1        6           0.000002670    0.000005161    0.000003249
      2        8          -0.000005035   -0.000002950    0.000002007
      3        6           0.000001147   -0.000011017    0.000001611
      4        8           0.000000786    0.000008882   -0.000001884
      5        6          -0.000005153    0.000006395   -0.000001801
      6        6           0.000011846    0.000002298    0.000000246
      7        6          -0.000004720   -0.000001675    0.000001283
      8        6           0.000003807   -0.000005775   -0.000005715
      9        6          -0.000009337    0.000004323    0.000000417
     10        7           0.000007439   -0.000004355   -0.000002010
     11        6          -0.000002264   -0.000002165    0.000003490
     12        8           0.000000560    0.000000680   -0.000000213
     13        1           0.000000910   -0.000003682   -0.000000887
     14        1           0.000000272   -0.000003215   -0.000002040
     15        1           0.000000645   -0.000000193   -0.000001141
     16        1          -0.000000774   -0.000001429    0.000000534
     17        1          -0.000000661    0.000001708    0.000000545
     18        1          -0.000001973    0.000005423    0.000003911
     19        1          -0.000000934    0.000002916   -0.000000101
     20        1           0.000000534    0.000000417    0.000000030
     21        1           0.000000234   -0.000001748   -0.000001531
 -------------------------------------------------------------------
 Cartesian Forces:  Max     0.000011846 RMS     0.000003829

 GradGradGradGradGradGradGradGradGradGradGradGradGradGradGradGradGradGrad
 Berny optimization.
 FormGI is forming the generalized inverse of G from B-inverse, IUseBI=4.
 Internal  Forces:  Max     0.000009215 RMS     0.000002175
 Search for a local minimum.
 Step number   1 out of a maximum of  101
 All quantities printed in internal units (Hartrees-Bohrs-Radians)
 Mixed Optimization -- En-DIIS/RFO-DIIS
 Second derivative matrix not updated -- first step.
 ITU=  0
     Eigenvalues ---    0.00708   0.00987   0.01391   0.01401   0.01525
     Eigenvalues ---    0.01661   0.01981   0.02144   0.02169   0.02201
     Eigenvalues ---    0.02284   0.02297   0.02541   0.02634   0.07150
     Eigenvalues ---    0.07153   0.10253   0.10641   0.16000   0.16000
     Eigenvalues ---    0.16000   0.16000   0.16000   0.16000   0.16000
     Eigenvalues ---    0.16000   0.16000   0.23277   0.23478   0.25000
     Eigenvalues ---    0.25000   0.25000   0.25000   0.25000   0.25000
     Eigenvalues ---    0.25000   0.31921   0.33596   0.33597   0.33780
     Eigenvalues ---    0.33851   0.33852   0.33956   0.34192   0.34219
     Eigenvalues ---    0.34451   0.40395   0.42048   0.44025   0.44646
     Eigenvalues ---    0.46448   0.53285   0.54131   0.58147   0.59701
     Eigenvalues ---    0.59792   1.03821
 RFO step:  Lambda= 0.00000000D+00 EMin= 7.07819824D-03
 Linear search not attempted -- first point.
 Iteration  1 RMS(Cart)=  0.00005920 RMS(Int)=  0.00000000
 Iteration  2 RMS(Cart)=  0.00000000 RMS(Int)=  0.00000000
 Variable       Old X    -DE/DX   Delta X   Delta X   Delta X     New X
                                 (Linear)    (Quad)   (Total)
    R1        2.68862  -0.00000   0.00000  -0.00001  -0.00001   2.68861
    R2        2.06963  -0.00000   0.00000  -0.00001  -0.00001   2.06962
    R3        2.07581   0.00000   0.00000   0.00001   0.00001   2.07582
    R4        2.07582  -0.00000   0.00000  -0.00000  -0.00000   2.07582
    R5        2.55912   0.00000   0.00000   0.00000   0.00000   2.55912
    R6        2.27146  -0.00001   0.00000  -0.00001  -0.00001   2.27146
    R7        2.80307   0.00000   0.00000   0.00000   0.00000   2.80307
    R8        2.64114   0.00000   0.00000   0.00001   0.00001   2.64115
    R9        2.68553  -0.00000   0.00000  -0.00000  -0.00000   2.68553
   R10        2.62852  -0.00001   0.00000  -0.00002  -0.00002   2.62850
   R11        2.06576   0.00000   0.00000   0.00001   0.00001   2.06577
   R12        2.84289  -0.00000   0.00000  -0.00000  -0.00000   2.84289
   R13        2.64663  -0.00000   0.00000  -0.00000  -0.00000   2.64662
   R14        2.07703  -0.00000   0.00000  -0.00000  -0.00000   2.07703
   R15        2.08018  -0.00001   0.00000  -0.00002  -0.00002   2.08016
   R16        2.08016  -0.00000   0.00000  -0.00000  -0.00000   2.08016
   R17        2.50393  -0.00001   0.00000  -0.00001  -0.00001   2.50392
   R18        2.07404   0.00000   0.00000   0.00000   0.00000   2.07405
   R19        2.50469   0.00000   0.00000   0.00000   0.00000   2.50469
   R20        2.51105  -0.00000   0.00000  -0.00000  -0.00000   2.51105
   R21        1.83388   0.00000   0.00000   0.00000   0.00000   1.83388
    A1        1.85272   0.00000   0.00000   0.00001   0.00001   1.85273
    A2        1.92826  -0.00000   0.00000  -0.00001  -0.00001   1.92825
    A3        1.92826  -0.00000   0.00000  -0.00000  -0.00000   1.92826
    A4        1.92728  -0.00000   0.00000  -0.00000  -0.00000   1.92728
    A5        1.92729   0.00000   0.00000   0.00000   0.00000   1.92729
    A6        1.90001  -0.00000   0.00000  -0.00000  -0.00000   1.90001
    A7        2.03665  -0.00000   0.00000  -0.00001  -0.00001   2.03665
    A8        2.12553  -0.00000   0.00000  -0.00001  -0.00001   2.12553
    A9        1.97267   0.00000   0.00000   0.00001   0.00001   1.97268
   A10        2.18498   0.00000   0.00000   0.00000   0.00000   2.18498
   A11        2.03983  -0.00000   0.00000  -0.00001  -0.00001   2.03981
   A12        2.18960   0.00000   0.00000   0.00002   0.00002   2.18962
   A13        2.05375  -0.00000   0.00000  -0.00000  -0.00000   2.05375
   A14        2.11283   0.00000   0.00000   0.00000   0.00000   2.11283
   A15        2.05347  -0.00000   0.00000  -0.00001  -0.00001   2.05346
   A16        2.11689   0.00000   0.00000   0.00000   0.00000   2.11689
   A17        2.13486  -0.00000   0.00000  -0.00000  -0.00000   2.13486
   A18        2.01664   0.00000   0.00000  -0.00000  -0.00000   2.01664
   A19        2.13168   0.00000   0.00000   0.00001   0.00001   2.13169
   A20        1.93979  -0.00000   0.00000  -0.00000  -0.00000   1.93979
   A21        1.94287  -0.00000   0.00000  -0.00002  -0.00002   1.94285
   A22        1.94286  -0.00000   0.00000  -0.00001  -0.00001   1.94285
   A23        1.88034   0.00000   0.00000   0.00002   0.00002   1.88036
   A24        1.88036   0.00000   0.00000   0.00001   0.00001   1.88037
   A25        1.87455   0.00000   0.00000   0.00002   0.00002   1.87457
   A26        2.18062   0.00000   0.00000   0.00000   0.00000   2.18062
   A27        2.08226  -0.00000   0.00000  -0.00001  -0.00001   2.08225
   A28        2.02031  -0.00000   0.00000   0.00000   0.00000   2.02031
   A29        2.08233   0.00000   0.00000  -0.00000  -0.00000   2.08233
   A30        2.12019  -0.00000   0.00000  -0.00000  -0.00000   2.12019
   A31        2.15308   0.00000   0.00000  -0.00000  -0.00000   2.15308
   A32        2.00991   0.00000   0.00000   0.00000   0.00000   2.00991
   A33        1.89538  -0.00000   0.00000  -0.00002  -0.00002   1.89536
    D1        3.14115   0.00000   0.00000   0.00008   0.00008   3.14123
    D2       -1.05223   0.00000   0.00000   0.00008   0.00008  -1.05215
    D3        1.05133   0.00000   0.00000   0.00007   0.00007   1.05139
    D4        0.00004   0.00000   0.00000   0.00004   0.00004   0.00008
    D5       -3.14153  -0.00000   0.00000  -0.00008  -0.00008   3.14158
    D6       -3.14154   0.00000   0.00000  -0.00001  -0.00001  -3.14154
    D7        0.00009  -0.00000   0.00000  -0.00002  -0.00002   0.00007
    D8        0.00008  -0.00000   0.00000  -0.00013  -0.00013  -0.00004
    D9       -3.14148  -0.00000   0.00000  -0.00014  -0.00014   3.14157
   D10       -3.14155  -0.00000   0.00000  -0.00003  -0.00003  -3.14158
   D11        0.00003  -0.00000   0.00000  -0.00001  -0.00001   0.00001
   D12        0.00001  -0.00000   0.00000  -0.00001  -0.00001  -0.00001
   D13        3.14159  -0.00000   0.00000   0.00000   0.00000   3.14159
   D14        3.14155   0.00000   0.00000   0.00003   0.00003   3.14158
   D15       -0.00001  -0.00000   0.00000  -0.00005  -0.00005  -0.00006
   D16       -0.00001   0.00000   0.00000   0.00002   0.00002   0.00001
   D17       -3.14157  -0.00000   0.00000  -0.00007  -0.00007   3.14155
   D18        3.14155   0.00000   0.00000   0.00005   0.00005  -3.14158
   D19       -0.00001   0.00000   0.00000   0.00001   0.00001   0.00001
   D20       -0.00003   0.00000   0.00000   0.00003   0.00003   0.00001
   D21       -3.14159   0.00000   0.00000  -0.00000  -0.00000  -3.14159
   D22       -3.14146  -0.00000   0.00000  -0.00002  -0.00002  -3.14148
   D23        1.04558  -0.00000   0.00000  -0.00003  -0.00003   1.04555
   D24       -1.04529  -0.00000   0.00000  -0.00003  -0.00003  -1.04532
   D25        0.00010   0.00000   0.00000   0.00001   0.00001   0.00012
   D26       -2.09604   0.00000   0.00000   0.00001   0.00001  -2.09603
   D27        2.09627   0.00000   0.00000   0.00001   0.00001   2.09628
   D28        0.00001  -0.00000   0.00000  -0.00001  -0.00001  -0.00001
   D29        3.14159   0.00000   0.00000   0.00001   0.00001  -3.14159
   D30       -3.14155  -0.00000   0.00000  -0.00005  -0.00005   3.14158
   D31        0.00003  -0.00000   0.00000  -0.00002  -0.00002   0.00000
   D32       -0.00001   0.00000   0.00000   0.00002   0.00002   0.00001
   D33       -3.14159  -0.00000   0.00000  -0.00001  -0.00001   3.14159
   D34        0.00001  -0.00000   0.00000  -0.00002  -0.00002  -0.00001
   D35        3.14157   0.00000   0.00000   0.00006   0.00006  -3.14155
   D36        0.00001  -0.00000   0.00000  -0.00001  -0.00001  -0.00001
   D37       -3.14155  -0.00000   0.00000  -0.00009  -0.00009   3.14154
         Item               Value     Threshold  Converged?
 Maximum Force            0.000009     0.000450     YES
 RMS     Force            0.000002     0.000300     YES
 Maximum Displacement     0.000181     0.001800     YES
 RMS     Displacement     0.000059     0.001200     YES
 Predicted change in Energy=-1.258102D-09
 Optimization completed.
    -- Stationary point found.
                           ----------------------------
                           !   Optimized Parameters   !
                           ! (Angstroms and Degrees)  !
 --------------------------                            --------------------------
 ! Name  Definition              Value          Derivative Info.                !
 --------------------------------------------------------------------------------
 ! R1    R(1,2)                  1.4228         -DE/DX =    0.0                 !
 ! R2    R(1,13)                 1.0952         -DE/DX =    0.0                 !
 ! R3    R(1,14)                 1.0985         -DE/DX =    0.0                 !
 ! R4    R(1,15)                 1.0985         -DE/DX =    0.0                 !
 ! R5    R(2,3)                  1.3542         -DE/DX =    0.0                 !
 ! R6    R(3,4)                  1.202          -DE/DX =    0.0                 !
 ! R7    R(3,5)                  1.4833         -DE/DX =    0.0                 !
 ! R8    R(5,6)                  1.3976         -DE/DX =    0.0                 !
 ! R9    R(5,11)                 1.4211         -DE/DX =    0.0                 !
 ! R10   R(6,7)                  1.391          -DE/DX =    0.0                 !
 ! R11   R(6,16)                 1.0932         -DE/DX =    0.0                 !
 ! R12   R(7,8)                  1.5044         -DE/DX =    0.0                 !
 ! R13   R(7,9)                  1.4005         -DE/DX =    0.0                 !
 ! R14   R(8,17)                 1.0991         -DE/DX =    0.0                 !
 ! R15   R(8,18)                 1.1008         -DE/DX =    0.0                 !
 ! R16   R(8,19)                 1.1008         -DE/DX =    0.0                 !
 ! R17   R(9,10)                 1.325          -DE/DX =    0.0                 !
 ! R18   R(9,20)                 1.0975         -DE/DX =    0.0                 !
 ! R19   R(10,11)                1.3254         -DE/DX =    0.0                 !
 ! R20   R(11,12)                1.3288         -DE/DX =    0.0                 !
 ! R21   R(12,21)                0.9704         -DE/DX =    0.0                 !
 ! A1    A(2,1,13)             106.1531         -DE/DX =    0.0                 !
 ! A2    A(2,1,14)             110.481          -DE/DX =    0.0                 !
 ! A3    A(2,1,15)             110.4813         -DE/DX =    0.0                 !
 ! A4    A(13,1,14)            110.4249         -DE/DX =    0.0                 !
 ! A5    A(13,1,15)            110.4255         -DE/DX =    0.0                 !
 ! A6    A(14,1,15)            108.8626         -DE/DX =    0.0                 !
 ! A7    A(1,2,3)              116.6917         -DE/DX =    0.0                 !
 ! A8    A(2,3,4)              121.7842         -DE/DX =    0.0                 !
 ! A9    A(2,3,5)              113.0258         -DE/DX =    0.0                 !
 ! A10   A(4,3,5)              125.1901         -DE/DX =    0.0                 !
 ! A11   A(3,5,6)              116.8734         -DE/DX =    0.0                 !
 ! A12   A(3,5,11)             125.4551         -DE/DX =    0.0                 !
 ! A13   A(6,5,11)             117.6715         -DE/DX =    0.0                 !
 ! A14   A(5,6,7)              121.0561         -DE/DX =    0.0                 !
 ! A15   A(5,6,16)             117.6551         -DE/DX =    0.0                 !
 ! A16   A(7,6,16)             121.2888         -DE/DX =    0.0                 !
 ! A17   A(6,7,8)              122.3185         -DE/DX =    0.0                 !
 ! A18   A(6,7,9)              115.5451         -DE/DX =    0.0                 !
 ! A19   A(8,7,9)              122.1365         -DE/DX =    0.0                 !
 ! A20   A(7,8,17)             111.1419         -DE/DX =    0.0                 !
 ! A21   A(7,8,18)             111.3184         -DE/DX =    0.0                 !
 ! A22   A(7,8,19)             111.3178         -DE/DX =    0.0                 !
 ! A23   A(17,8,18)            107.7358         -DE/DX =    0.0                 !
 ! A24   A(17,8,19)            107.7368         -DE/DX =    0.0                 !
 ! A25   A(18,8,19)            107.4038         -DE/DX =    0.0                 !
 ! A26   A(7,9,10)             124.9403         -DE/DX =    0.0                 !
 ! A27   A(7,9,20)             119.3046         -DE/DX =    0.0                 !
 ! A28   A(10,9,20)            115.7551         -DE/DX =    0.0                 !
 ! A29   A(9,10,11)            119.309          -DE/DX =    0.0                 !
 ! A30   A(5,11,10)            121.478          -DE/DX =    0.0                 !
 ! A31   A(5,11,12)            123.3625         -DE/DX =    0.0                 !
 ! A32   A(10,11,12)           115.1595         -DE/DX =    0.0                 !
 ! A33   A(11,12,21)           108.5971         -DE/DX =    0.0                 !
 ! D1    D(13,1,2,3)           179.9745         -DE/DX =    0.0                 !
 ! D2    D(14,1,2,3)           -60.2884         -DE/DX =    0.0                 !
 ! D3    D(15,1,2,3)            60.2365         -DE/DX =    0.0                 !
 ! D4    D(1,2,3,4)              0.0023         -DE/DX =    0.0                 !
 ! D5    D(1,2,3,5)            180.0039         -DE/DX =    0.0                 !
 ! D6    D(2,3,5,6)           -179.9968         -DE/DX =    0.0                 !
 ! D7    D(2,3,5,11)             0.0051         -DE/DX =    0.0                 !
 ! D8    D(4,3,5,6)              0.0048         -DE/DX =    0.0                 !
 ! D9    D(4,3,5,11)           180.0067         -DE/DX =    0.0                 !
 ! D10   D(3,5,6,7)           -179.9977         -DE/DX =    0.0                 !
 ! D11   D(3,5,6,16)             0.0016         -DE/DX =    0.0                 !
 ! D12   D(11,5,6,7)             0.0005         -DE/DX =    0.0                 !
 ! D13   D(11,5,6,16)          179.9998         -DE/DX =    0.0                 !
 ! D14   D(3,5,11,10)          179.9974         -DE/DX =    0.0                 !
 ! D15   D(3,5,11,12)           -0.0005         -DE/DX =    0.0                 !
 ! D16   D(6,5,11,10)           -0.0006         -DE/DX =    0.0                 !
 ! D17   D(6,5,11,12)          180.0014         -DE/DX =    0.0                 !
 ! D18   D(5,6,7,8)           -180.0022         -DE/DX =    0.0                 !
 ! D19   D(5,6,7,9)             -0.0005         -DE/DX =    0.0                 !
 ! D20   D(16,6,7,8)            -0.0015         -DE/DX =    0.0                 !
 ! D21   D(16,6,7,9)          -179.9997         -DE/DX =    0.0                 !
 ! D22   D(6,7,8,17)          -179.9921         -DE/DX =    0.0                 !
 ! D23   D(6,7,8,18)            59.9074         -DE/DX =    0.0                 !
 ! D24   D(6,7,8,19)           -59.8909         -DE/DX =    0.0                 !
 ! D25   D(9,7,8,17)             0.0059         -DE/DX =    0.0                 !
 ! D26   D(9,7,8,18)          -120.0945         -DE/DX =    0.0                 !
 ! D27   D(9,7,8,19)           120.1072         -DE/DX =    0.0                 !
 ! D28   D(6,7,9,10)             0.0005         -DE/DX =    0.0                 !
 ! D29   D(6,7,9,20)          -180.0003         -DE/DX =    0.0                 !
 ! D30   D(8,7,9,10)           180.0022         -DE/DX =    0.0                 !
 ! D31   D(8,7,9,20)             0.0015         -DE/DX =    0.0                 !
 ! D32   D(7,9,10,11)           -0.0005         -DE/DX =    0.0                 !
 ! D33   D(20,9,10,11)         180.0002         -DE/DX =    0.0                 !
 ! D34   D(9,10,11,5)            0.0006         -DE/DX =    0.0                 !
 ! D35   D(9,10,11,12)        -180.0013         -DE/DX =    0.0                 !
 ! D36   D(5,11,12,21)           0.0004         -DE/DX =    0.0                 !
 ! D37   D(10,11,12,21)        180.0023         -DE/DX =    0.0                 !
 --------------------------------------------------------------------------------
 GradGradGradGradGradGradGradGradGradGradGradGradGradGradGradGradGradGrad

                          Input orientation:                          
 ---------------------------------------------------------------------
 Center     Atomic      Atomic             Coordinates (Angstroms)
 Number     Number       Type             X           Y           Z
 ---------------------------------------------------------------------
      1          6           0       -3.736840   -0.344650    0.000020
      2          8           0       -2.411220    0.172040   -0.000080
      3          6           0       -1.405050   -0.734360   -0.000020
      4          8           0       -1.618520   -1.917260    0.000070
      5          6           0       -0.060270   -0.108410   -0.000040
      6          6           0        1.038580   -0.972070   -0.000050
      7          6           0        2.339070   -0.478640   -0.000020
      8          6           0        3.542050   -1.381990    0.000020
      9          6           0        2.455470    0.917050    0.000010
     10          7           0        1.436110    1.763570    0.000020
     11          6           0        0.198580    1.288940   -0.000010
     12          8           0       -0.759570    2.209610    0.000030
     13          1           0       -4.402760    0.524840    0.000420
     14          1           0       -3.909760   -0.959530   -0.893660
     15          1           0       -3.909410   -0.960100    0.893380
     16          1           0        0.839160   -2.046880   -0.000070
     17          1           0        4.474620   -0.800290    0.000180
     18          1           0        3.553340   -2.033450   -0.887220
     19          1           0        3.553130   -2.033630    0.887120
     20          1           0        3.453890    1.372840    0.000040
     21          1           0       -1.620010    1.760820    0.000040
 ---------------------------------------------------------------------
                    Distance matrix (angstroms):
                    1          2          3          4          5
     1  C    0.000000
     2  O    1.422757   0.000000
     3  C    2.364132   1.354230   0.000000
     4  O    2.638254   2.234625   1.202007   0.000000
     5  C    3.684152   2.367619   1.483323   2.387484   0.000000
     6  C    4.816461   3.634571   2.455165   2.820206   1.397634
     7  C    6.077387   4.794647   3.752843   4.210955   2.427736
     8  C    7.352436   6.152758   4.989311   5.188256   3.820827
     9  C    6.319540   4.923384   4.198901   4.962933   2.716711
    10  N    5.586054   4.163522   3.783100   4.783228   2.396552
    11  C    4.261003   2.838754   2.581738   3.685318   1.421123
    12  O    3.922803   2.622907   3.013902   4.215312   2.421206
    13  H    1.095200   2.022548   3.251438   3.703491   4.388419
    14  H    1.098473   2.079557   2.668870   2.639277   4.042466
    15  H    1.098477   2.079564   2.668509   2.638624   4.042209
    16  H    4.882352   3.935553   2.599844   2.461096   2.136970
    17  H    8.224092   6.954151   5.880040   6.194673   4.587366
    18  H    7.535646   6.420839   5.201960   5.248706   4.189397
    19  H    7.535467   6.420715   5.201795   5.248463   4.189294
    20  H    7.392995   5.986772   5.296186   6.045999   3.813584
    21  H    2.985628   1.774890   2.504422   3.678080   2.434504
                    6          7          8          9         10
     6  C    0.000000
     7  C    1.390952   0.000000
     8  C    2.536808   1.504394   0.000000
     9  C    2.361430   1.400535   2.542880   0.000000
    10  N    2.764373   2.417197   3.785437   1.325025   0.000000
    11  C    2.412005   2.775975   4.279329   2.287325   1.325426
    12  O    3.654645   4.102226   5.603885   3.465140   2.240527
    13  H    5.643485   6.816102   8.170435   6.869436   5.968824
    14  H    5.028396   6.330697   7.517088   6.695995   6.065663
    15  H    5.028018   6.330361   7.516671   6.695782   6.065563
    16  H    1.093154   2.170048   2.783468   3.375995   3.856926
    17  H    3.440331   2.159637   1.099119   2.650702   3.975666
    18  H    2.870125   2.163102   1.100783   3.270771   4.437028
    19  H    2.870007   2.163089   1.100774   3.270831   4.437054
    20  H    3.366352   2.161204   2.756240   1.097537   2.055263
    21  H    3.812714   4.548571   6.043519   4.161909   3.056121
                   11         12         13         14         15
    11  C    0.000000
    12  O    1.328791   0.000000
    13  H    4.664352   4.013886   0.000000
    14  H    4.767881   4.556954   1.801605   0.000000
    15  H    4.767799   4.557042   1.801616   1.787040   0.000000
    16  H    3.396769   4.546828   5.838790   4.953087   4.952601
    17  H    4.759139   6.037901   8.975736   8.433394   8.432989
    18  H    4.804147   6.114897   8.404301   7.539974   7.746951
    19  H    4.804110   6.114850   8.404058   7.747231   7.539364
    20  H    3.256391   4.295745   7.902282   7.775731   7.775529
    21  H    1.878814   0.970448   3.044888   3.666328   3.666444
                   16         17         18         19         20
    16  H    0.000000
    17  H    3.843248   0.000000
    18  H    2.855519   1.776772   0.000000
    19  H    2.855331   1.776776   1.774340   0.000000
    20  H    4.304799   2.400913   3.521354   3.521477   0.000000
    21  H    4.532780   6.610885   6.476671   6.476584   5.088712
                   21
    21  H    0.000000
 Stoichiometry    C8H9NO3
 Framework group  C1[X(C8H9NO3)]
 Deg. of freedom    57
 Full point group                 C1      NOp   1
 Largest Abelian subgroup         C1      NOp   1
 Largest concise Abelian subgroup C1      NOp   1
                         Standard orientation:                         
 ---------------------------------------------------------------------
 Center     Atomic      Atomic             Coordinates (Angstroms)
 Number     Number       Type             X           Y           Z
 ---------------------------------------------------------------------
      1          6           0        3.736841   -0.344646   -0.000020
      2          8           0        2.411220    0.172043    0.000080
      3          6           0        1.405051   -0.734358    0.000020
      4          8           0        1.618522   -1.917258   -0.000070
      5          6           0        0.060270   -0.108409    0.000040
      6          6           0       -1.038579   -0.972071    0.000050
      7          6           0       -2.339069   -0.478642    0.000020
      8          6           0       -3.542048   -1.381993   -0.000020
      9          6           0       -2.455471    0.917048   -0.000010
     10          7           0       -1.436111    1.763569   -0.000020
     11          6           0       -0.198581    1.288940    0.000010
     12          8           0        0.759568    2.209611   -0.000030
     13          1           0        4.402760    0.524845   -0.000420
     14          1           0        3.909761   -0.959525    0.893660
     15          1           0        3.909411   -0.960095   -0.893380
     16          1           0       -0.839158   -2.046880    0.000070
     17          1           0       -4.474619   -0.800294   -0.000180
     18          1           0       -3.553338   -2.033453    0.887220
     19          1           0       -3.553128   -2.033633   -0.887120
     20          1           0       -3.453891    1.372837   -0.000040
     21          1           0        1.620009    1.760822   -0.000040
 ---------------------------------------------------------------------
 Rotational constants (GHZ):           1.8109479           0.6469917           0.4795783
 Unable to Open any file for archive entry.
 1\1\GINC-NOTCH255\FOpt\RwB97XD\def2SVP\C8H9N1O3\U6053008\12-Jul-2024\0
 \\#N OPT FREQ=NORAMAN Integral(Ultrafine) wB97XD def2SVP\\12387732_4\\
 0,1\C,-3.73684,-0.34465,0.00002\O,-2.41122,0.17204,-0.00008\C,-1.40505
 ,-0.73436,-0.00002\O,-1.61852,-1.91726,0.00007\C,-0.06027,-0.10841,-0.
 00004\C,1.03858,-0.97207,-0.00005\C,2.33907,-0.47864,-0.00002\C,3.5420
 5,-1.38199,0.00002\C,2.45547,0.91705,0.00001\N,1.43611,1.76357,0.00002
 \C,0.19858,1.28894,-0.00001\O,-0.75957,2.20961,0.00003\H,-4.40276,0.52
 484,0.00042\H,-3.90976,-0.95953,-0.89366\H,-3.90941,-0.9601,0.89338\H,
 0.83916,-2.04688,-0.00007\H,4.47462,-0.80029,0.00018\H,3.55334,-2.0334
 5,-0.88722\H,3.55313,-2.03363,0.88712\H,3.45389,1.37284,0.00004\H,-1.6
 2001,1.76082,0.00004\\Version=ES64L-G16RevC.01\State=1-A\HF=-590.09507
 92\RMSD=6.643e-09\RMSF=3.829e-06\Dipole=-0.5266613,-0.6676976,-0.00000
 64\Quadrupole=12.6442654,-10.7146827,-1.9295827,-4.926547,-0.0002057,0
 .0002541\PG=C01 [X(C8H9N1O3)]\\@
 The archive entry for this job was punched.


 IF AT FIRST YOU DON'T SUCCEED, TRY LOOKING IN 
 THE WASTEBASKET FOR THE DIRECTIONS.
 Job cpu time:       0 days  0 hours  6 minutes 39.9 seconds.
 Elapsed time:       0 days  0 hours  0 minutes 25.6 seconds.
 File lengths (MBytes):  RWF=     44 Int=      0 D2E=      0 Chk=      5 Scr=      2
 Normal termination of Gaussian 16 at Fri Jul 12 13:11:05 2024.
 Link1:  Proceeding to internal job step number  2.
 --------------------------------------------------------------------
 #N Geom=AllCheck Guess=TCheck SCRF=Check GenChk RwB97XD/def2SVP Freq
 --------------------------------------------------------------------
 1/10=4,29=7,30=1,38=1,40=1/1,3;
 2/12=2,40=1/2;
 3/5=43,7=101,11=2,14=-4,25=1,30=1,70=2,71=2,74=-58,75=-5,116=1,140=1/1,2,3;
 4/5=101/1;
 5/5=2,38=6,98=1/2;
 8/6=4,10=90,11=11/1;
 11/6=1,8=1,9=11,15=111,16=1/1,2,10;
 10/6=1/2;
 6/7=2,8=2,9=2,10=2,28=1/1;
 7/8=1,10=1,25=1/1,2,3,16;
 1/10=4,30=1/3;
 99//99;
 Structure from the checkpoint file:  "12387732_4.chk"
 ----------
 12387732_4
 ----------
 Charge =  0 Multiplicity = 1
 Redundant internal coordinates found in file.  (old form).
 C,0,-3.73684,-0.34465,0.00002
 O,0,-2.41122,0.17204,-0.00008
 C,0,-1.40505,-0.73436,-0.00002
 O,0,-1.61852,-1.91726,0.00007
 C,0,-0.06027,-0.10841,-0.00004
 C,0,1.03858,-0.97207,-0.00005
 C,0,2.33907,-0.47864,-0.00002
 C,0,3.54205,-1.38199,0.00002
 C,0,2.45547,0.91705,0.00001
 N,0,1.43611,1.76357,0.00002
 C,0,0.19858,1.28894,-0.00001
 O,0,-0.75957,2.20961,0.00003
 H,0,-4.40276,0.52484,0.00042
 H,0,-3.90976,-0.95953,-0.89366
 H,0,-3.90941,-0.9601,0.89338
 H,0,0.83916,-2.04688,-0.00007
 H,0,4.47462,-0.80029,0.00018
 H,0,3.55334,-2.03345,-0.88722
 H,0,3.55313,-2.03363,0.88712
 H,0,3.45389,1.37284,0.00004
 H,0,-1.62001,1.76082,0.00004
 Recover connectivity data from disk.

 GradGradGradGradGradGradGradGradGradGradGradGradGradGradGradGradGradGrad
 Berny optimization.
 Initialization pass.
                           ----------------------------
                           !    Initial Parameters    !
                           ! (Angstroms and Degrees)  !
 --------------------------                            --------------------------
 ! Name  Definition              Value          Derivative Info.                !
 --------------------------------------------------------------------------------
 ! R1    R(1,2)                  1.4228         calculate D2E/DX2 analytically  !
 ! R2    R(1,13)                 1.0952         calculate D2E/DX2 analytically  !
 ! R3    R(1,14)                 1.0985         calculate D2E/DX2 analytically  !
 ! R4    R(1,15)                 1.0985         calculate D2E/DX2 analytically  !
 ! R5    R(2,3)                  1.3542         calculate D2E/DX2 analytically  !
 ! R6    R(3,4)                  1.202          calculate D2E/DX2 analytically  !
 ! R7    R(3,5)                  1.4833         calculate D2E/DX2 analytically  !
 ! R8    R(5,6)                  1.3976         calculate D2E/DX2 analytically  !
 ! R9    R(5,11)                 1.4211         calculate D2E/DX2 analytically  !
 ! R10   R(6,7)                  1.391          calculate D2E/DX2 analytically  !
 ! R11   R(6,16)                 1.0932         calculate D2E/DX2 analytically  !
 ! R12   R(7,8)                  1.5044         calculate D2E/DX2 analytically  !
 ! R13   R(7,9)                  1.4005         calculate D2E/DX2 analytically  !
 ! R14   R(8,17)                 1.0991         calculate D2E/DX2 analytically  !
 ! R15   R(8,18)                 1.1008         calculate D2E/DX2 analytically  !
 ! R16   R(8,19)                 1.1008         calculate D2E/DX2 analytically  !
 ! R17   R(9,10)                 1.325          calculate D2E/DX2 analytically  !
 ! R18   R(9,20)                 1.0975         calculate D2E/DX2 analytically  !
 ! R19   R(10,11)                1.3254         calculate D2E/DX2 analytically  !
 ! R20   R(11,12)                1.3288         calculate D2E/DX2 analytically  !
 ! R21   R(12,21)                0.9704         calculate D2E/DX2 analytically  !
 ! A1    A(2,1,13)             106.1531         calculate D2E/DX2 analytically  !
 ! A2    A(2,1,14)             110.481          calculate D2E/DX2 analytically  !
 ! A3    A(2,1,15)             110.4813         calculate D2E/DX2 analytically  !
 ! A4    A(13,1,14)            110.4249         calculate D2E/DX2 analytically  !
 ! A5    A(13,1,15)            110.4255         calculate D2E/DX2 analytically  !
 ! A6    A(14,1,15)            108.8626         calculate D2E/DX2 analytically  !
 ! A7    A(1,2,3)              116.6917         calculate D2E/DX2 analytically  !
 ! A8    A(2,3,4)              121.7842         calculate D2E/DX2 analytically  !
 ! A9    A(2,3,5)              113.0258         calculate D2E/DX2 analytically  !
 ! A10   A(4,3,5)              125.1901         calculate D2E/DX2 analytically  !
 ! A11   A(3,5,6)              116.8734         calculate D2E/DX2 analytically  !
 ! A12   A(3,5,11)             125.4551         calculate D2E/DX2 analytically  !
 ! A13   A(6,5,11)             117.6715         calculate D2E/DX2 analytically  !
 ! A14   A(5,6,7)              121.0561         calculate D2E/DX2 analytically  !
 ! A15   A(5,6,16)             117.6551         calculate D2E/DX2 analytically  !
 ! A16   A(7,6,16)             121.2888         calculate D2E/DX2 analytically  !
 ! A17   A(6,7,8)              122.3185         calculate D2E/DX2 analytically  !
 ! A18   A(6,7,9)              115.5451         calculate D2E/DX2 analytically  !
 ! A19   A(8,7,9)              122.1365         calculate D2E/DX2 analytically  !
 ! A20   A(7,8,17)             111.1419         calculate D2E/DX2 analytically  !
 ! A21   A(7,8,18)             111.3184         calculate D2E/DX2 analytically  !
 ! A22   A(7,8,19)             111.3178         calculate D2E/DX2 analytically  !
 ! A23   A(17,8,18)            107.7358         calculate D2E/DX2 analytically  !
 ! A24   A(17,8,19)            107.7368         calculate D2E/DX2 analytically  !
 ! A25   A(18,8,19)            107.4038         calculate D2E/DX2 analytically  !
 ! A26   A(7,9,10)             124.9403         calculate D2E/DX2 analytically  !
 ! A27   A(7,9,20)             119.3046         calculate D2E/DX2 analytically  !
 ! A28   A(10,9,20)            115.7551         calculate D2E/DX2 analytically  !
 ! A29   A(9,10,11)            119.309          calculate D2E/DX2 analytically  !
 ! A30   A(5,11,10)            121.478          calculate D2E/DX2 analytically  !
 ! A31   A(5,11,12)            123.3625         calculate D2E/DX2 analytically  !
 ! A32   A(10,11,12)           115.1595         calculate D2E/DX2 analytically  !
 ! A33   A(11,12,21)           108.5971         calculate D2E/DX2 analytically  !
 ! D1    D(13,1,2,3)           179.9745         calculate D2E/DX2 analytically  !
 ! D2    D(14,1,2,3)           -60.2884         calculate D2E/DX2 analytically  !
 ! D3    D(15,1,2,3)            60.2365         calculate D2E/DX2 analytically  !
 ! D4    D(1,2,3,4)              0.0023         calculate D2E/DX2 analytically  !
 ! D5    D(1,2,3,5)           -179.9961         calculate D2E/DX2 analytically  !
 ! D6    D(2,3,5,6)           -179.9968         calculate D2E/DX2 analytically  !
 ! D7    D(2,3,5,11)             0.0051         calculate D2E/DX2 analytically  !
 ! D8    D(4,3,5,6)              0.0048         calculate D2E/DX2 analytically  !
 ! D9    D(4,3,5,11)          -179.9933         calculate D2E/DX2 analytically  !
 ! D10   D(3,5,6,7)           -179.9977         calculate D2E/DX2 analytically  !
 ! D11   D(3,5,6,16)             0.0016         calculate D2E/DX2 analytically  !
 ! D12   D(11,5,6,7)             0.0005         calculate D2E/DX2 analytically  !
 ! D13   D(11,5,6,16)          179.9998         calculate D2E/DX2 analytically  !
 ! D14   D(3,5,11,10)          179.9974         calculate D2E/DX2 analytically  !
 ! D15   D(3,5,11,12)           -0.0005         calculate D2E/DX2 analytically  !
 ! D16   D(6,5,11,10)           -0.0006         calculate D2E/DX2 analytically  !
 ! D17   D(6,5,11,12)         -179.9986         calculate D2E/DX2 analytically  !
 ! D18   D(5,6,7,8)            179.9978         calculate D2E/DX2 analytically  !
 ! D19   D(5,6,7,9)             -0.0005         calculate D2E/DX2 analytically  !
 ! D20   D(16,6,7,8)            -0.0015         calculate D2E/DX2 analytically  !
 ! D21   D(16,6,7,9)          -179.9997         calculate D2E/DX2 analytically  !
 ! D22   D(6,7,8,17)          -179.9921         calculate D2E/DX2 analytically  !
 ! D23   D(6,7,8,18)            59.9074         calculate D2E/DX2 analytically  !
 ! D24   D(6,7,8,19)           -59.8909         calculate D2E/DX2 analytically  !
 ! D25   D(9,7,8,17)             0.0059         calculate D2E/DX2 analytically  !
 ! D26   D(9,7,8,18)          -120.0945         calculate D2E/DX2 analytically  !
 ! D27   D(9,7,8,19)           120.1072         calculate D2E/DX2 analytically  !
 ! D28   D(6,7,9,10)             0.0005         calculate D2E/DX2 analytically  !
 ! D29   D(6,7,9,20)           179.9997         calculate D2E/DX2 analytically  !
 ! D30   D(8,7,9,10)          -179.9978         calculate D2E/DX2 analytically  !
 ! D31   D(8,7,9,20)             0.0015         calculate D2E/DX2 analytically  !
 ! D32   D(7,9,10,11)           -0.0005         calculate D2E/DX2 analytically  !
 ! D33   D(20,9,10,11)        -179.9998         calculate D2E/DX2 analytically  !
 ! D34   D(9,10,11,5)            0.0006         calculate D2E/DX2 analytically  !
 ! D35   D(9,10,11,12)         179.9987         calculate D2E/DX2 analytically  !
 ! D36   D(5,11,12,21)           0.0004         calculate D2E/DX2 analytically  !
 ! D37   D(10,11,12,21)       -179.9977         calculate D2E/DX2 analytically  !
 --------------------------------------------------------------------------------
 Trust Radius=3.00D-01 FncErr=1.00D-07 GrdErr=1.00D-07 EigMax=2.50D+02 EigMin=1.00D-04
 Number of steps in this run=      2 maximum allowed number of steps=      2.
 GradGradGradGradGradGradGradGradGradGradGradGradGradGradGradGradGradGrad

                          Input orientation:                          
 ---------------------------------------------------------------------
 Center     Atomic      Atomic             Coordinates (Angstroms)
 Number     Number       Type             X           Y           Z
 ---------------------------------------------------------------------
      1          6           0       -3.736840   -0.344650    0.000020
      2          8           0       -2.411220    0.172040   -0.000080
      3          6           0       -1.405050   -0.734360   -0.000020
      4          8           0       -1.618520   -1.917260    0.000070
      5          6           0       -0.060270   -0.108410   -0.000040
      6          6           0        1.038580   -0.972070   -0.000050
      7          6           0        2.339070   -0.478640   -0.000020
      8          6           0        3.542050   -1.381990    0.000020
      9          6           0        2.455470    0.917050    0.000010
     10          7           0        1.436110    1.763570    0.000020
     11          6           0        0.198580    1.288940   -0.000010
     12          8           0       -0.759570    2.209610    0.000030
     13          1           0       -4.402760    0.524840    0.000420
     14          1           0       -3.909760   -0.959530   -0.893660
     15          1           0       -3.909410   -0.960100    0.893380
     16          1           0        0.839160   -2.046880   -0.000070
     17          1           0        4.474620   -0.800290    0.000180
     18          1           0        3.553340   -2.033450   -0.887220
     19          1           0        3.553130   -2.033630    0.887120
     20          1           0        3.453890    1.372840    0.000040
     21          1           0       -1.620010    1.760820    0.000040
 ---------------------------------------------------------------------
                    Distance matrix (angstroms):
                    1          2          3          4          5
     1  C    0.000000
     2  O    1.422757   0.000000
     3  C    2.364132   1.354230   0.000000
     4  O    2.638254   2.234625   1.202007   0.000000
     5  C    3.684152   2.367619   1.483323   2.387484   0.000000
     6  C    4.816461   3.634571   2.455165   2.820206   1.397634
     7  C    6.077387   4.794647   3.752843   4.210955   2.427736
     8  C    7.352436   6.152758   4.989311   5.188256   3.820827
     9  C    6.319540   4.923384   4.198901   4.962933   2.716711
    10  N    5.586054   4.163522   3.783100   4.783228   2.396552
    11  C    4.261003   2.838754   2.581738   3.685318   1.421123
    12  O    3.922803   2.622907   3.013902   4.215312   2.421206
    13  H    1.095200   2.022548   3.251438   3.703491   4.388419
    14  H    1.098473   2.079557   2.668870   2.639277   4.042466
    15  H    1.098477   2.079564   2.668509   2.638624   4.042209
    16  H    4.882352   3.935553   2.599844   2.461096   2.136970
    17  H    8.224092   6.954151   5.880040   6.194673   4.587366
    18  H    7.535646   6.420839   5.201960   5.248706   4.189397
    19  H    7.535467   6.420715   5.201795   5.248463   4.189294
    20  H    7.392995   5.986772   5.296186   6.045999   3.813584
    21  H    2.985628   1.774890   2.504422   3.678080   2.434504
                    6          7          8          9         10
     6  C    0.000000
     7  C    1.390952   0.000000
     8  C    2.536808   1.504394   0.000000
     9  C    2.361430   1.400535   2.542880   0.000000
    10  N    2.764373   2.417197   3.785437   1.325025   0.000000
    11  C    2.412005   2.775975   4.279329   2.287325   1.325426
    12  O    3.654645   4.102226   5.603885   3.465140   2.240527
    13  H    5.643485   6.816102   8.170435   6.869436   5.968824
    14  H    5.028396   6.330697   7.517088   6.695995   6.065663
    15  H    5.028018   6.330361   7.516671   6.695782   6.065563
    16  H    1.093154   2.170048   2.783468   3.375995   3.856926
    17  H    3.440331   2.159637   1.099119   2.650702   3.975666
    18  H    2.870125   2.163102   1.100783   3.270771   4.437028
    19  H    2.870007   2.163089   1.100774   3.270831   4.437054
    20  H    3.366352   2.161204   2.756240   1.097537   2.055263
    21  H    3.812714   4.548571   6.043519   4.161909   3.056121
                   11         12         13         14         15
    11  C    0.000000
    12  O    1.328791   0.000000
    13  H    4.664352   4.013886   0.000000
    14  H    4.767881   4.556954   1.801605   0.000000
    15  H    4.767799   4.557042   1.801616   1.787040   0.000000
    16  H    3.396769   4.546828   5.838790   4.953087   4.952601
    17  H    4.759139   6.037901   8.975736   8.433394   8.432989
    18  H    4.804147   6.114897   8.404301   7.539974   7.746951
    19  H    4.804110   6.114850   8.404058   7.747231   7.539364
    20  H    3.256391   4.295745   7.902282   7.775731   7.775529
    21  H    1.878814   0.970448   3.044888   3.666328   3.666444
                   16         17         18         19         20
    16  H    0.000000
    17  H    3.843248   0.000000
    18  H    2.855519   1.776772   0.000000
    19  H    2.855331   1.776776   1.774340   0.000000
    20  H    4.304799   2.400913   3.521354   3.521477   0.000000
    21  H    4.532780   6.610885   6.476671   6.476584   5.088712
[...]
 Alpha virt. eigenvalues --    0.53568   0.54695   0.54973   0.55211   0.55454
 Alpha virt. eigenvalues --    0.57477   0.59086   0.59585   0.60379   0.60559
 Alpha virt. eigenvalues --    0.62738   0.62970   0.65172   0.65174   0.67048
 Alpha virt. eigenvalues --    0.67759   0.68085   0.69624   0.70871   0.72055
 Alpha virt. eigenvalues --    0.72604   0.74660   0.75230   0.76428   0.78027
 Alpha virt. eigenvalues --    0.78831   0.79751   0.80332   0.82332   0.84310
 Alpha virt. eigenvalues --    0.85240   0.85370   0.88450   0.88527   0.90217
 Alpha virt. eigenvalues --    0.91890   0.93776   0.94809   0.96006   0.97115
 Alpha virt. eigenvalues --    0.97546   0.99270   0.99414   1.01464   1.02767
 Alpha virt. eigenvalues --    1.04147   1.04839   1.07759   1.09192   1.09754
 Alpha virt. eigenvalues --    1.13668   1.15452   1.16375   1.17941   1.20009
 Alpha virt. eigenvalues --    1.23944   1.25696   1.26766   1.29303   1.29321
 Alpha virt. eigenvalues --    1.32175   1.35300   1.35675   1.37879   1.41327
 Alpha virt. eigenvalues --    1.41580   1.42497   1.43183   1.43989   1.44336
 Alpha virt. eigenvalues --    1.48963   1.50114   1.51626   1.54392   1.54571
 Alpha virt. eigenvalues --    1.55436   1.58148   1.58953   1.59183   1.59788
 Alpha virt. eigenvalues --    1.60458   1.60839   1.61645   1.63922   1.65015
 Alpha virt. eigenvalues --    1.65022   1.67538   1.69677   1.71115   1.71486
 Alpha virt. eigenvalues --    1.72978   1.75742   1.76039   1.78634   1.80525
 Alpha virt. eigenvalues --    1.80990   1.81983   1.86042   1.90098   1.90761
 Alpha virt. eigenvalues --    1.91324   1.95529   1.97584   1.98772   2.01203
 Alpha virt. eigenvalues --    2.01712   2.02226   2.03190   2.03440   2.04990
 Alpha virt. eigenvalues --    2.05284   2.07557   2.09604   2.11153   2.11192
 Alpha virt. eigenvalues --    2.12538   2.13507   2.16443   2.17863   2.20055
 Alpha virt. eigenvalues --    2.21100   2.21514   2.26248   2.28263   2.28490
 Alpha virt. eigenvalues --    2.31649   2.31925   2.34089   2.35026   2.37011
 Alpha virt. eigenvalues --    2.38229   2.39931   2.42575   2.42855   2.43665
 Alpha virt. eigenvalues --    2.44868   2.46163   2.48539   2.49617   2.50146
 Alpha virt. eigenvalues --    2.53037   2.55644   2.56149   2.58823   2.60610
 Alpha virt. eigenvalues --    2.60659   2.61742   2.62044   2.62707   2.63928
 Alpha virt. eigenvalues --    2.67429   2.70631   2.72444   2.76299   2.77459
 Alpha virt. eigenvalues --    2.78512   2.80811   2.81866   2.82396   2.84225
 Alpha virt. eigenvalues --    2.84448   2.85379   2.86287   2.88804   2.89871
 Alpha virt. eigenvalues --    2.93006   2.93123   2.97048   2.97256   2.99829
 Alpha virt. eigenvalues --    3.01108   3.03082   3.03541   3.03673   3.05603
 Alpha virt. eigenvalues --    3.05996   3.08717   3.09977   3.10922   3.12359
 Alpha virt. eigenvalues --    3.14587   3.15518   3.16908   3.19226   3.21733
 Alpha virt. eigenvalues --    3.21965   3.22162   3.23325   3.25373   3.26874
 Alpha virt. eigenvalues --    3.27123   3.28579   3.29169   3.30356   3.30827
 Alpha virt. eigenvalues --    3.32074   3.34022   3.34506   3.36076   3.36748
 Alpha virt. eigenvalues --    3.37389   3.39866   3.40883   3.41056   3.41352
 Alpha virt. eigenvalues --    3.41886   3.42213   3.43158   3.44573   3.46874
 Alpha virt. eigenvalues --    3.48200   3.50650   3.51020   3.52716   3.54320
 Alpha virt. eigenvalues --    3.55837   3.58280   3.62260   3.62467   3.62472
 Alpha virt. eigenvalues --    3.65002   3.68878   3.69253   3.70831   3.75923
 Alpha virt. eigenvalues --    3.76090   3.80700   3.81584   3.82383   3.84472
 Alpha virt. eigenvalues --    3.84991   3.90142   3.91804   3.94376   3.97691
 Alpha virt. eigenvalues --    4.01774   4.02532   4.09118   4.11267   4.16356
 Alpha virt. eigenvalues --    4.19534   4.19608   4.21123   4.23172   4.23970
 Alpha virt. eigenvalues --    4.24062   4.28823   4.30027   4.34567   4.38137
 Alpha virt. eigenvalues --    4.40671   4.42274   4.44495   4.46176   4.48287
 Alpha virt. eigenvalues --    4.49825   4.51524   4.58620   4.59273   4.62514
 Alpha virt. eigenvalues --    4.63029   4.65837   4.66821   4.69222   4.78789
 Alpha virt. eigenvalues --    4.81648   4.93349   4.93686   4.99358   5.01041
 Alpha virt. eigenvalues --    5.08831   5.12800   5.18655   5.23241   5.25419
 Alpha virt. eigenvalues --    5.26430   5.28605   5.33457   5.33922   5.34787
 Alpha virt. eigenvalues --    5.35485   5.42711   5.45625   5.48871   5.52759
 Alpha virt. eigenvalues --    5.57978   5.61856   5.63131   5.66783   5.73985
 Alpha virt. eigenvalues --    5.74395   5.81268   5.89143   5.94335   5.96947
 Alpha virt. eigenvalues --    6.02837   6.03670   6.11785   6.21668   6.27584
 Alpha virt. eigenvalues --    6.30471   6.42310   6.47316   6.51385   6.52471
 Alpha virt. eigenvalues --    6.63186   6.71873   6.73869   6.81919   6.83755
 Alpha virt. eigenvalues --    6.87872   6.94145   6.95253   7.04466   7.12086
 Alpha virt. eigenvalues --    7.15254   7.22544   7.41485   7.44931   7.56033
 Alpha virt. eigenvalues --   22.42883  22.48152  22.65053  22.90357  23.09246
 Alpha virt. eigenvalues --   23.16559  23.31099  23.62736  32.64241  44.00660
 Alpha virt. eigenvalues --   44.08598  44.25621
          Condensed to atoms (all electrons):
               1          2          3          4          5          6
     1  C    4.778194   0.202945  -0.038160   0.007012   0.009564  -0.001193
     2  O    0.202945   8.075791   0.339077  -0.083837  -0.127912   0.006160
     3  C   -0.038160   0.339077   4.471758   0.646128   0.266327  -0.055152
     4  O    0.007012  -0.083837   0.646128   7.871168  -0.144272   0.034523
     5  C    0.009564  -0.127912   0.266327  -0.144272   5.740486   0.291785
     6  C   -0.001193   0.006160  -0.055152   0.034523   0.291785   5.286312
     7  C   -0.000022  -0.000465   0.002793   0.000865  -0.005850   0.396759
     8  C   -0.000001  -0.000011  -0.001031  -0.000324   0.013112  -0.081134
     9  C   -0.000004   0.000310   0.000636   0.000577  -0.038335  -0.013643
    10  N    0.000022  -0.000387  -0.000407  -0.000290  -0.081817  -0.053211
    11  C   -0.000639   0.022862  -0.032118   0.000492   0.337170  -0.034185
    12  O    0.001353  -0.030713  -0.006512  -0.000224  -0.094649   0.001879
    13  H    0.396082  -0.032342   0.005453   0.001659   0.002511  -0.000028
    14  H    0.418800  -0.032538  -0.007945   0.003810  -0.001391  -0.000124
    15  H    0.418801  -0.032544  -0.007951   0.003820  -0.001387  -0.000125
    16  H   -0.000083   0.000981  -0.006432   0.018913  -0.035439   0.424025
    17  H    0.000000  -0.000000  -0.000008   0.000001  -0.001034   0.014773
    18  H   -0.000000   0.000000  -0.000017  -0.000002   0.000489  -0.008068
    19  H   -0.000000   0.000000  -0.000017  -0.000002   0.000490  -0.008069
    20  H   -0.000000  -0.000001   0.000073  -0.000001  -0.005656   0.012051
    21  H   -0.000454   0.036897  -0.011874   0.000497  -0.016282  -0.001659
               7          8          9         10         11         12
     1  C   -0.000022  -0.000001  -0.000004   0.000022  -0.000639   0.001353
     2  O   -0.000465  -0.000011   0.000310  -0.000387   0.022862  -0.030713
     3  C    0.002793  -0.001031   0.000636  -0.000407  -0.032118  -0.006512
     4  O    0.000865  -0.000324   0.000577  -0.000290   0.000492  -0.000224
     5  C   -0.005850   0.013112  -0.038335  -0.081817   0.337170  -0.094649
     6  C    0.396759  -0.081134  -0.013643  -0.053211  -0.034185   0.001879
     7  C    5.101264   0.270132   0.492169  -0.049318  -0.039914   0.000333
     8  C    0.270132   4.956200  -0.048539   0.008458   0.001513   0.000047
     9  C    0.492169  -0.048539   4.757283   0.514701  -0.073362  -0.000180
    10  N   -0.049318   0.008458   0.514701   6.466382   0.570142  -0.093248
    11  C   -0.039914   0.001513  -0.073362   0.570142   4.552842   0.418253
    12  O    0.000333   0.000047  -0.000180  -0.093248   0.418253   7.880780
    13  H    0.000003   0.000000  -0.000002   0.000004  -0.000334   0.000308
    14  H    0.000000  -0.000000  -0.000000   0.000000   0.000122  -0.000104
    15  H    0.000000  -0.000000  -0.000000   0.000000   0.000121  -0.000104
    16  H   -0.041540  -0.002630   0.005594  -0.001089   0.001500  -0.000049
    17  H   -0.064670   0.425693  -0.001912   0.000205   0.000512  -0.000000
    18  H   -0.033834   0.411554  -0.001814  -0.000171  -0.000083  -0.000002
    19  H   -0.033840   0.411565  -0.001812  -0.000171  -0.000083  -0.000002
    20  H   -0.086668  -0.004019   0.445246  -0.031749   0.007913   0.000057
    21  H   -0.000058  -0.000002  -0.000573   0.007489  -0.004418   0.300413
              13         14         15         16         17         18
     1  C    0.396082   0.418800   0.418801  -0.000083   0.000000  -0.000000
     2  O   -0.032342  -0.032538  -0.032544   0.000981  -0.000000   0.000000
     3  C    0.005453  -0.007945  -0.007951  -0.006432  -0.000008  -0.000017
     4  O    0.001659   0.003810   0.003820   0.018913   0.000001  -0.000002
     5  C    0.002511  -0.001391  -0.001387  -0.035439  -0.001034   0.000489
     6  C   -0.000028  -0.000124  -0.000125   0.424025   0.014773  -0.008068
     7  C    0.000003   0.000000   0.000000  -0.041540  -0.064670  -0.033834
     8  C    0.000000  -0.000000  -0.000000  -0.002630   0.425693   0.411554
     9  C   -0.000002  -0.000000  -0.000000   0.005594  -0.001912  -0.001814
    10  N    0.000004   0.000000   0.000000  -0.001089   0.000205  -0.000171
    11  C   -0.000334   0.000122   0.000121   0.001500   0.000512  -0.000083
    12  O    0.000308  -0.000104  -0.000104  -0.000049  -0.000000  -0.000002
    13  H    0.538111  -0.023289  -0.023286  -0.000002  -0.000000  -0.000000
    14  H   -0.023289   0.533900  -0.033354  -0.000013  -0.000000   0.000000
    15  H   -0.023286  -0.033354   0.533875  -0.000013  -0.000000  -0.000000
    16  H   -0.000002  -0.000013  -0.000013   0.470158   0.000147  -0.000134
    17  H   -0.000000  -0.000000  -0.000000   0.000147   0.541229  -0.020794
    18  H   -0.000000   0.000000  -0.000000  -0.000134  -0.020794   0.551797
    19  H   -0.000000  -0.000000   0.000000  -0.000134  -0.020794  -0.032345
    20  H   -0.000000   0.000000   0.000000  -0.000085   0.003451  -0.000063
    21  H   -0.001503   0.000330   0.000330  -0.000044   0.000000   0.000000
              19         20         21
     1  C   -0.000000  -0.000000  -0.000454
     2  O    0.000000  -0.000001   0.036897
     3  C   -0.000017   0.000073  -0.011874
     4  O   -0.000002  -0.000001   0.000497
     5  C    0.000490  -0.005656  -0.016282
     6  C   -0.008069   0.012051  -0.001659
     7  C   -0.033840  -0.086668  -0.000058
     8  C    0.411565  -0.004019  -0.000002
     9  C   -0.001812   0.445246  -0.000573
    10  N   -0.000171  -0.031749   0.007489
    11  C   -0.000083   0.007913  -0.004418
    12  O   -0.000002   0.000057   0.300413
    13  H   -0.000000  -0.000000  -0.001503
    14  H   -0.000000   0.000000   0.000330
    15  H    0.000000   0.000000   0.000330
    16  H   -0.000134  -0.000085  -0.000044
    17  H   -0.020794   0.003451   0.000000
    18  H   -0.032345  -0.000063   0.000000
    19  H    0.551791  -0.000063   0.000000
    20  H   -0.000063   0.534375   0.000015
    21  H    0.000000   0.000015   0.345070
 Mulliken charges:
               1
     1  C   -0.192215
     2  O   -0.344274
     3  C    0.435378
     4  O   -0.360513
     5  C   -0.107911
     6  C   -0.211677
     7  C    0.091860
     8  C   -0.360583
     9  C   -0.036338
    10  N   -0.255546
    11  C    0.271695
    12  O   -0.377637
    13  H    0.136656
    14  H    0.141796
    15  H    0.141815
    16  H    0.166370
    17  H    0.123202
    18  H    0.133486
    19  H    0.133486
    20  H    0.125122
    21  H    0.345827
 Sum of Mulliken charges =  -0.00000
 Mulliken charges with hydrogens summed into heavy atoms:
               1
     1  C    0.228053
     2  O   -0.344274
     3  C    0.435378
     4  O   -0.360513
     5  C   -0.107911
     6  C   -0.045307
     7  C    0.091860
     8  C    0.029591
     9  C    0.088784
    10  N   -0.255546
    11  C    0.271695
    12  O   -0.031810
 Electronic spatial extent (au):  <R**2>=           2274.5449
 Charge=             -0.0000 electrons
 Dipole moment (field-independent basis, Debye):
    X=              1.1345    Y=             -1.6144    Z=              0.0000  Tot=              1.9732
 Quadrupole moment (field-independent basis, Debye-Ang):
   XX=            -49.9479   YY=            -81.6725   ZZ=            -69.6647
   XY=              6.7805   XZ=             -0.0002   YZ=             -0.0003
 Traceless Quadrupole moment (field-independent basis, Debye-Ang):
   XX=             17.1471   YY=            -14.5775   ZZ=             -2.5696
   XY=              6.7805   XZ=             -0.0002   YZ=             -0.0003
 Octapole moment (field-independent basis, Debye-Ang**2):
  XXX=             49.9871  YYY=            -14.8097  ZZZ=              0.0006  XYY=              1.3692
  XXY=              3.6799  XXZ=             -0.0016  XZZ=             11.3589  YZZ=             -1.3132
  YYZ=              0.0002  XYZ=             -0.0010
 Hexadecapole moment (field-independent basis, Debye-Ang**3):
 XXXX=          -1817.3354 YYYY=           -832.1815 ZZZZ=            -82.4872 XXXY=             -6.5920
 XXXZ=             -0.0022 YYYX=             47.2612 YYYZ=              0.0016 ZZZX=              0.0018
 ZZZY=             -0.0004 XXYY=           -478.8688 XXZZ=           -371.8140 YYZZ=           -134.9523
 XXYZ=             -0.0051 YYXZ=             -0.0023 ZZXY=             -1.5922
 N-N= 6.924941399061D+02 E-N=-2.765588842093D+03  KE= 5.879290608140D+02
 Breneman (CHELPG) radii used.
 Read replacement radii for each type of atom:
 Atom Element Radius
    1     6    1.50
    2     8    1.70
    3     6    1.50
    4     8    1.70
    5     6    1.50
    6     6    1.50
    7     6    1.50
    8     6    1.50
    9     6    1.50
   10     7    1.70
   11     6    1.50
   12     8    1.70
   13     1    1.45
   14     1    1.45
   15     1    1.45
   16     1    1.45
   17     1    1.45
   18     1    1.45
   19     1    1.45
   20     1    1.45
   21     1    1.45
 Generate Potential Derived Charges using the Breneman model, NDens= 1.
 Grid spacing= 0.300 Box extension= 2.800
 NStep X,Y,Z=   50     34     26   Total possible points=       44200
 Number of Points to Fit=   13618

 **********************************************************************

            Electrostatic Properties Using The SCF Density.

 **********************************************************************

       Atomic Center    1 is at   3.736841 -0.344646 -0.000020
       Atomic Center    2 is at   2.411220  0.172043  0.000080
       Atomic Center    3 is at   1.405051 -0.734358  0.000020
       Atomic Center    4 is at   1.618522 -1.917258 -0.000070
       Atomic Center    5 is at   0.060270 -0.108409  0.000040
       Atomic Center    6 is at  -1.038579 -0.972071  0.000050
       Atomic Center    7 is at  -2.339069 -0.478642  0.000020
       Atomic Center    8 is at  -3.542048 -1.381993 -0.000020
       Atomic Center    9 is at  -2.455471  0.917048 -0.000010
       Atomic Center   10 is at  -1.436111  1.763569 -0.000020
       Atomic Center   11 is at  -0.198581  1.288940  0.000010
       Atomic Center   12 is at   0.759568  2.209611 -0.000030
       Atomic Center   13 is at   4.402760  0.524845 -0.000420
       Atomic Center   14 is at   3.909761 -0.959525  0.893660
       Atomic Center   15 is at   3.909411 -0.960095 -0.893380
       Atomic Center   16 is at  -0.839158 -2.046880  0.000070
       Atomic Center   17 is at  -4.474619 -0.800294 -0.000180
       Atomic Center   18 is at  -3.553338 -2.033453  0.887220
       Atomic Center   19 is at  -3.553128 -2.033633 -0.887120
       Atomic Center   20 is at  -3.453891  1.372837 -0.000040
       Atomic Center   21 is at   1.620009  1.760822 -0.000040
   13618 points will be used for fitting atomic charges
 Fitting point charges to electrostatic potential
 Charges from ESP fit, RMS=   0.00295 RRMS=   0.18022:
 ESP charges:
               1
     1  C   -0.047676
     2  O   -0.351767
     3  C    0.779451
     4  O   -0.525003
     5  C   -0.518448
     6  C    0.086694
     7  C   -0.056667
     8  C   -0.238684
     9  C    0.227838
    10  N   -0.565311
    11  C    0.734375
    12  O   -0.599725
    13  H    0.099524
    14  H    0.081640
    15  H    0.081659
    16  H    0.098210
    17  H    0.074487
    18  H    0.080358
    19  H    0.080285
    20  H    0.071161
    21  H    0.407600
 Sum of ESP charges =  -0.00000
 ESP charges with hydrogens summed into heavy atoms:
               1
     1  C    0.215147
     2  O   -0.351767
     3  C    0.779451
     4  O   -0.525003
     5  C   -0.518448
     6  C    0.184903
     7  C   -0.056667
     8  C   -0.003553
     9  C    0.298999
    10  N   -0.565311
    11  C    0.734375
    12  O   -0.192125
 Charge=  -0.00000 Dipole=     1.1117    -1.5564     0.0003 Tot=     1.9126
 -----------------------------------------------------------------

              Electrostatic Properties (Atomic Units)

 -----------------------------------------------------------------
    Center     Electric         -------- Electric Field --------
               Potential          X             Y             Z
 -----------------------------------------------------------------
    1 Atom    -14.695358
    2 Atom    -22.284670
    3 Atom    -14.624141
    4 Atom    -22.366804
    5 Atom    -14.739712
    6 Atom    -14.743994
    7 Atom    -14.751762
    8 Atom    -14.759584
    9 Atom    -14.725885
   10 Atom    -18.400194
   11 Atom    -14.660623
   12 Atom    -22.327520
   13 Atom     -1.083156
   14 Atom     -1.088655
   15 Atom     -1.088655
   16 Atom     -1.087652
   17 Atom     -1.106271
   18 Atom     -1.106370
   19 Atom     -1.106370
   20 Atom     -1.099783
   21 Atom     -0.973360
 -----------------------------------------------------------------
 Unable to Open any file for archive entry.
 1\1\GINC-NOTCH255\SP\RwB97XD\def2TZVP\C8H9N1O3\U6053008\12-Jul-2024\0\
 \#N Guess=Read Geom=Check Integral(Ultrafine) Density Pop=(ChelpG,Read
 Radii) NMR wB97XD def2TZVP\\12387732_4\\0,1\C,0,-3.73684,-0.34465,0.00
 002\O,0,-2.41122,0.17204,-0.00008\C,0,-1.40505,-0.73436,-0.00002\O,0,-
 1.61852,-1.91726,0.00007\C,0,-0.06027,-0.10841,-0.00004\C,0,1.03858,-0
 .97207,-0.00005\C,0,2.33907,-0.47864,-0.00002\C,0,3.54205,-1.38199,0.0
 0002\C,0,2.45547,0.91705,0.00001\N,0,1.43611,1.76357,0.00002\C,0,0.198
 58,1.28894,-0.00001\O,0,-0.75957,2.20961,0.00003\H,0,-4.40276,0.52484,
 0.00042\H,0,-3.90976,-0.95953,-0.89366\H,0,-3.90941,-0.9601,0.89338\H,
 0,0.83916,-2.04688,-0.00007\H,0,4.47462,-0.80029,0.00018\H,0,3.55334,-
 2.03345,-0.88722\H,0,3.55313,-2.03363,0.88712\H,0,3.45389,1.37284,0.00
 004\H,0,-1.62001,1.76082,0.00004\\Version=ES64L-G16RevC.01\State=1-A\H
 F=-590.7471925\RMSD=1.754e-09\Dipole=-0.4463318,-0.6351667,-0.0000044\
 Quadrupole=12.7484868,-10.8380246,-1.9104622,-5.041126,-0.0001745,0.00
 02306\PG=C01 [X(C8H9N1O3)]\\@
 The archive entry for this job was punched.


 SATCHEL PAIGE'S GUIDE TO LONGEVITY

    1.  AVOID FRIED MEATS, WHICH ANGRY UP THE BLOOD.

    2.  IF YOUR STOMACH DISPUTES YOU, LIE DOWN AND PACIFY IT WITH COOL
        THOUGHTS.

    3.  KEEP THE JUICES FLOWING BY JANGLING AROUND GENTLY AS YOU MOVE.

    4.  GO VERY LIGHT ON THE VICES, SUCH AS CARRYING ON IN SOCIETY.
        THE SOCIAL RUMBLE AIN'T RESTFUL.

    5.  AVOID RUNNING AT ALL TIMES.

    6.  DON'T LOOK BACK.  SOMETHING MAY BE GAINING ON YOU.
 Job cpu time:       0 days  0 hours 37 minutes 19.9 seconds.
 Elapsed time:       0 days  0 hours  2 minutes 27.2 seconds.
 File lengths (MBytes):  RWF=    119 Int=      0 D2E=      0 Chk=     18 Scr=      2
 Normal termination of Gaussian 16 at Fri Jul 12 13:21:11 2024.
