 Entering Gaussian System, Link 0=g16
 Input=12387732_3.com
 Output=12387732_3.log
 Initial command:
 /uufs/chpc.utah.edu/sys/installdir/gaussian16/C01/AVX/g16/l1.exe "/scratch/general/vast/u6053008/1287193-notchpeak.peaks/Gau-1461325.inp" -scrdir="/scratch/general/vast/u6053008/1287193-notchpeak.peaks/"
 Entering Link 1 = /uufs/chpc.utah.edu/sys/installdir/gaussian16/C01/AVX/g16/l1.exe PID=   1461326.
  
 Copyright (c) 1988-2019, Gaussian, Inc.  All Rights Reserved.
  
 This is part of the Gaussian(R) 16 program.  It is based on
 the Gaussian(R) 09 system (copyright 2009, Gaussian, Inc.),
 the Gaussian(R) 03 system (copyright 2003, Gaussian, Inc.),
 the Gaussian(R) 98 system (copyright 1998, Gaussian, Inc.),
 the Gaussian(R) 94 system (copyright 1995, Gaussian, Inc.),
 the Gaussian 92(TM) system (copyright 1992, Gaussian, Inc.),
 the Gaussian 90(TM) system (copyright 1990, Gaussian, Inc.),
 the Gaussian 88(TM) system (copyright 1988, Gaussian, Inc.),
 the Gaussian 86(TM) system (copyright 1986, Carnegie Mellon
 University), and the Gaussian 82(TM) system (copyright 1983,
 Carnegie Mellon University). Gaussian is a federally registered
 trademark of Gaussian, Inc.
  
 This software contains proprietary and confidential information,
 including trade secrets, belonging to Gaussian, Inc.
  
 This software is provided under written license and may be
 used, copied, transmitted, or stored only in accord with that
 written license.
  
 The following legend is applicable only to US Government
 contracts under FAR:
  
                    RESTRICTED RIGHTS LEGEND
  
 Use, reproduction and disclosure by the US Government is
 subject to restrictions as set forth in subparagraphs (a)
 and (c) of the Commercial Computer Software - Restricted
 Rights clause in FAR 52.227-19.
  
 Gaussian, Inc.
 340 Quinnipiac St., Bldg. 40, Wallingford CT 06492
  
  
 ---------------------------------------------------------------
 Warning -- This program may not be used in any manner that
 competes with the business of Gaussian, Inc. or will provide
 assistance to any competitor of Gaussian, Inc.  The licensee
 of this program is prohibited from giving any competitor of
 Gaussian, Inc. access to this program.  By using this program,
 the user acknowledges that Gaussian, Inc. is engaged in the
 business of creating and licensing software in the field of
 computational chemistry and represents and warrants to the
 licensee that it is not a competitor of Gaussian, Inc. and that
 it will not use this program in any manner prohibited above.
 ---------------------------------------------------------------
  

 Cite this work as:
 Gaussian 16, Revision C.01,
 M. J. Frisch, G. W. Trucks, H. B. Schlegel, G. E. Scuseria, 
 M. A. Robb, J. R. Cheeseman, G. Scalmani, V. Barone, 
 G. A. Petersson, H. Nakatsuji, X. Li, M. Caricato, A. V. Marenich, 
 J. Bloino, B. G. Janesko, R. Gomperts, B. Mennucci, H. P. Hratchian, 
 J. V. Ortiz, A. F. Izmaylov, J. L. Sonnenberg, D. Williams-Young, 
 F. Ding, F. Lipparini, F. Egidi, J. Goings, B. Peng, A. Petrone, 
 T. Henderson, D. Ranasinghe, V. G. Zakrzewski, J. Gao, N. Rega, 
 G. Zheng, W. Liang, M. Hada, M. Ehara, K. Toyota, R. Fukuda, 
 J. Hasegawa, M. Ishida, T. Nakajima, Y. Honda, O. Kitao, H. Nakai, 
 T. Vreven, K. Throssell, J. A. Montgomery, Jr., J. E. Peralta, 
 F. Ogliaro, M. J. Bearpark, J. J. Heyd, E. N. Brothers, K. N. Kudin, 
 V. N. Staroverov, T. A. Keith, R. Kobayashi, J. Normand, 
 K. Raghavachari, A. P. Rendell, J. C. Burant, S. S. Iyengar, 
 J. Tomasi, M. Cossi, J. M. Millam, M. Klene, C. Adamo, R. Cammi, 
 J. W. Ochterski, R. L. Martin, K. Morokuma, O. Farkas, 
 J. B. Foresman, and D. J. Fox, Gaussian, Inc., Wallingford CT, 2019.
 
 ******************************************
 Gaussian 16:  ES64L-G16RevC.01  3-Jul-2019
                12-Jul-2024 
 ******************************************
 %NProcShared=16
 Will use up to   16 processors via shared memory.
 %Mem=32GB
 %chk=12387732_3.chk
 ------------------------------------------------------
 #N OPT FREQ=NORAMAN Integral(Ultrafine) wB97XD def2SVP
 ------------------------------------------------------
 1/18=20,19=15,26=4,38=1/1,3;
 2/9=110,12=2,17=6,18=5,40=1/2;
 3/5=43,7=101,11=2,25=1,30=1,71=1,74=-58,75=-5/1,2,3;
 4//1;
 5/5=2,38=5/2;
 6/7=2,8=2,9=2,10=2,28=1/1;
 7//1,2,3,16;
 1/18=20,19=15,26=4/3(2);
 2/9=110/2;
 99//99;
 2/9=110/2;
 3/5=43,7=101,11=2,25=1,30=1,71=1,74=-58,75=-5/1,2,3;
 4/5=5,16=3,69=1/1;
 5/5=2,38=5/2;
 7//1,2,3,16;
 1/18=20,19=15,26=4/3(-5);
 2/9=110/2;
 6/7=2,8=2,9=2,10=2,19=2,28=1/1;
 99/9=1/99;
 ----------
 12387732_3
 ----------
 Symbolic Z-matrix:
 Charge =  0 Multiplicity = 1
 C                    -3.44698  -1.38006  -0.00034 
 O                    -2.04457  -1.18435  -0.00033 
 C                    -1.62822   0.09471   0.0002 
 O                    -2.39034   1.02332   0.00062 
 C                    -0.14006   0.17926   0.00013 
 C                     0.64854  -0.9717    0.00021 
 C                     2.04349  -0.90118   0.00007 
 C                     2.90326  -2.13591   0.00019 
 C                     2.58789   0.38307  -0.00022 
 N                     1.86526   1.49906  -0.00031 
 C                     0.54242   1.41865  -0.00012 
 O                    -0.12333   2.56919  -0.00004 
 H                    -3.90653  -0.92922   0.89128 
 H                    -3.90656  -0.92891  -0.89178 
 H                    -3.60583  -2.46429  -0.00055 
 H                     0.14617  -1.94064   0.0004 
 H                     2.70924  -2.758     0.88745 
 H                     3.97136  -1.87668   0.00017 
 H                     2.70925  -2.7582   -0.88693 
 H                     3.67641   0.51572  -0.00044 
 H                     0.55352   3.26052  -0.00024 
 

 GradGradGradGradGradGradGradGradGradGradGradGradGradGradGradGradGradGrad
 Berny optimization.
 Initialization pass.
                           ----------------------------
                           !    Initial Parameters    !
                           ! (Angstroms and Degrees)  !
 --------------------------                            --------------------------
 ! Name  Definition              Value          Derivative Info.                !
 --------------------------------------------------------------------------------
 ! R1    R(1,2)                  1.416          estimate D2E/DX2                !
 ! R2    R(1,13)                 1.0997         estimate D2E/DX2                !
 ! R3    R(1,14)                 1.0997         estimate D2E/DX2                !
 ! R4    R(1,15)                 1.0958         estimate D2E/DX2                !
 ! R5    R(2,3)                  1.3451         estimate D2E/DX2                !
 ! R6    R(3,4)                  1.2013         estimate D2E/DX2                !
 ! R7    R(3,5)                  1.4906         estimate D2E/DX2                !
 ! R8    R(5,6)                  1.3952         estimate D2E/DX2                !
 ! R9    R(5,11)                 1.4149         estimate D2E/DX2                !
 ! R10   R(6,7)                  1.3967         estimate D2E/DX2                !
 ! R11   R(6,16)                 1.0914         estimate D2E/DX2                !
 ! R12   R(7,8)                  1.5046         estimate D2E/DX2                !
 ! R13   R(7,9)                  1.3949         estimate D2E/DX2                !
 ! R14   R(8,17)                 1.1008         estimate D2E/DX2                !
 ! R15   R(8,18)                 1.0991         estimate D2E/DX2                !
 ! R16   R(8,19)                 1.1008         estimate D2E/DX2                !
 ! R17   R(9,10)                 1.3295         estimate D2E/DX2                !
 ! R18   R(9,20)                 1.0966         estimate D2E/DX2                !
 ! R19   R(10,11)                1.3253         estimate D2E/DX2                !
 ! R20   R(11,12)                1.3293         estimate D2E/DX2                !
 ! R21   R(12,21)                0.9675         estimate D2E/DX2                !
 ! A1    A(2,1,13)             110.928          estimate D2E/DX2                !
 ! A2    A(2,1,14)             110.9281         estimate D2E/DX2                !
 ! A3    A(2,1,15)             106.2795         estimate D2E/DX2                !
 ! A4    A(13,1,14)            108.3239         estimate D2E/DX2                !
 ! A5    A(13,1,15)            110.1941         estimate D2E/DX2                !
 ! A6    A(14,1,15)            110.192          estimate D2E/DX2                !
 ! A7    A(1,2,3)              115.9752         estimate D2E/DX2                !
 ! A8    A(2,3,4)              122.5932         estimate D2E/DX2                !
 ! A9    A(2,3,5)              111.2825         estimate D2E/DX2                !
 ! A10   A(4,3,5)              126.1243         estimate D2E/DX2                !
 ! A11   A(3,5,6)              121.1659         estimate D2E/DX2                !
 ! A12   A(3,5,11)             122.0915         estimate D2E/DX2                !
 ! A13   A(6,5,11)             116.7426         estimate D2E/DX2                !
 ! A14   A(5,6,7)              121.5236         estimate D2E/DX2                !
 ! A15   A(5,6,16)             118.1768         estimate D2E/DX2                !
 ! A16   A(7,6,16)             120.2996         estimate D2E/DX2                !
 ! A17   A(6,7,8)              121.9563         estimate D2E/DX2                !
 ! A18   A(6,7,9)              115.8664         estimate D2E/DX2                !
 ! A19   A(8,7,9)              122.1773         estimate D2E/DX2                !
 ! A20   A(7,8,17)             111.2906         estimate D2E/DX2                !
 ! A21   A(7,8,18)             111.2083         estimate D2E/DX2                !
 ! A22   A(7,8,19)             111.2923         estimate D2E/DX2                !
 ! A23   A(17,8,18)            107.7323         estimate D2E/DX2                !
 ! A24   A(17,8,19)            107.3973         estimate D2E/DX2                !
 ! A25   A(18,8,19)            107.7326         estimate D2E/DX2                !
 ! A26   A(7,9,10)             124.1037         estimate D2E/DX2                !
 ! A27   A(7,9,20)             119.9203         estimate D2E/DX2                !
 ! A28   A(10,9,20)            115.9761         estimate D2E/DX2                !
 ! A29   A(9,10,11)            119.4455         estimate D2E/DX2                !
 ! A30   A(5,11,10)            122.3182         estimate D2E/DX2                !
 ! A31   A(5,11,12)            121.1048         estimate D2E/DX2                !
 ! A32   A(10,11,12)           116.577          estimate D2E/DX2                !
 ! A33   A(11,12,21)           105.5509         estimate D2E/DX2                !
 ! D1    D(13,1,2,3)           -60.2045         estimate D2E/DX2                !
 ! D2    D(14,1,2,3)            60.2341         estimate D2E/DX2                !
 ! D3    D(15,1,2,3)          -179.9864         estimate D2E/DX2                !
 ! D4    D(1,2,3,4)             -0.0012         estimate D2E/DX2                !
 ! D5    D(1,2,3,5)           -179.9989         estimate D2E/DX2                !
 ! D6    D(2,3,5,6)             -0.0307         estimate D2E/DX2                !
 ! D7    D(2,3,5,11)           179.9645         estimate D2E/DX2                !
 ! D8    D(4,3,5,6)            179.9717         estimate D2E/DX2                !
 ! D9    D(4,3,5,11)            -0.0331         estimate D2E/DX2                !
 ! D10   D(3,5,6,7)            179.9964         estimate D2E/DX2                !
 ! D11   D(3,5,6,16)            -0.0044         estimate D2E/DX2                !
 ! D12   D(11,5,6,7)             0.0009         estimate D2E/DX2                !
 ! D13   D(11,5,6,16)         -179.9999         estimate D2E/DX2                !
 ! D14   D(3,5,11,10)         -179.9935         estimate D2E/DX2                !
 ! D15   D(3,5,11,12)            0.0133         estimate D2E/DX2                !
 ! D16   D(6,5,11,10)            0.0019         estimate D2E/DX2                !
 ! D17   D(6,5,11,12)         -179.9913         estimate D2E/DX2                !
 ! D18   D(5,6,7,8)            179.9984         estimate D2E/DX2                !
 ! D19   D(5,6,7,9)             -0.0031         estimate D2E/DX2                !
 ! D20   D(16,6,7,8)            -0.0008         estimate D2E/DX2                !
 ! D21   D(16,6,7,9)           179.9977         estimate D2E/DX2                !
 ! D22   D(6,7,8,17)           -59.8712         estimate D2E/DX2                !
 ! D23   D(6,7,8,18)          -179.9933         estimate D2E/DX2                !
 ! D24   D(6,7,8,19)            59.8831         estimate D2E/DX2                !
 ! D25   D(9,7,8,17)           120.1304         estimate D2E/DX2                !
 ! D26   D(9,7,8,18)             0.0083         estimate D2E/DX2                !
 ! D27   D(9,7,8,19)          -120.1153         estimate D2E/DX2                !
 ! D28   D(6,7,9,10)             0.0028         estimate D2E/DX2                !
 ! D29   D(6,7,9,20)          -179.9942         estimate D2E/DX2                !
 ! D30   D(8,7,9,10)          -179.9987         estimate D2E/DX2                !
 ! D31   D(8,7,9,20)             0.0043         estimate D2E/DX2                !
 ! D32   D(7,9,10,11)           -0.0001         estimate D2E/DX2                !
 ! D33   D(20,9,10,11)         179.9969         estimate D2E/DX2                !
 ! D34   D(9,10,11,5)           -0.0023         estimate D2E/DX2                !
 ! D35   D(9,10,11,12)         179.9912         estimate D2E/DX2                !
 ! D36   D(5,11,12,21)         179.9993         estimate D2E/DX2                !
 ! D37   D(10,11,12,21)          0.0058         estimate D2E/DX2                !
 --------------------------------------------------------------------------------
 Trust Radius=3.00D-01 FncErr=1.00D-07 GrdErr=1.00D-06 EigMax=2.50D+02 EigMin=1.00D-04
 Number of steps in this run=    101 maximum allowed number of steps=    126.
 GradGradGradGradGradGradGradGradGradGradGradGradGradGradGradGradGradGrad

                          Input orientation:                          
 ---------------------------------------------------------------------
 Center     Atomic      Atomic             Coordinates (Angstroms)
 Number     Number       Type             X           Y           Z
 ---------------------------------------------------------------------
      1          6           0       -3.446980   -1.380060   -0.000340
      2          8           0       -2.044570   -1.184350   -0.000330
      3          6           0       -1.628220    0.094710    0.000200
      4          8           0       -2.390340    1.023320    0.000620
      5          6           0       -0.140060    0.179260    0.000130
      6          6           0        0.648540   -0.971700    0.000210
      7          6           0        2.043490   -0.901180    0.000070
      8          6           0        2.903260   -2.135910    0.000190
      9          6           0        2.587890    0.383070   -0.000220
     10          7           0        1.865260    1.499060   -0.000310
     11          6           0        0.542420    1.418650   -0.000120
     12          8           0       -0.123330    2.569190   -0.000040
     13          1           0       -3.906530   -0.929220    0.891280
     14          1           0       -3.906560   -0.928910   -0.891780
     15          1           0       -3.605830   -2.464290   -0.000550
     16          1           0        0.146170   -1.940640    0.000400
     17          1           0        2.709240   -2.758000    0.887450
     18          1           0        3.971360   -1.876680    0.000170
     19          1           0        2.709250   -2.758200   -0.886930
     20          1           0        3.676410    0.515720   -0.000440
     21          1           0        0.553520    3.260520   -0.000240
 ---------------------------------------------------------------------
                    Distance matrix (angstroms):
                    1          2          3          4          5
     1  C    0.000000
     2  O    1.416000   0.000000
     3  C    2.341545   1.345118   0.000000
     4  O    2.625400   2.234584   1.201309   0.000000
     5  C    3.656118   2.342347   1.490560   2.403372   0.000000
     6  C    4.115828   2.701493   2.514133   3.635230   1.395206
     7  C    5.511314   4.097856   3.804373   4.833482   2.436235
     8  C    6.395065   5.038501   5.050740   6.164652   3.823847
     9  C    6.287152   4.890449   4.225960   5.019232   2.735553
    10  N    6.042286   4.742094   3.765183   4.282109   2.400663
    11  C    4.873201   3.669895   2.542537   2.959285   1.414873
    12  O    5.161708   4.216660   2.896160   2.743911   2.389989
    13  H    1.099740   2.080133   2.652009   2.627645   4.026062
    14  H    1.099734   2.080130   2.652218   2.628023   4.026173
    15  H    1.095805   2.018856   3.234103   3.693351   4.358890
    16  H    3.636616   2.317610   2.700205   3.901146   2.139136
    17  H    6.370709   5.085591   5.266757   6.410192   4.187284
    18  H    7.434945   6.055637   5.936470   6.991511   4.596810
    19  H    6.370595   5.085457   5.266853   6.410418   4.187376
    20  H    7.371341   5.968237   5.321311   6.087948   3.831272
    21  H    6.126906   5.148489   3.844781   3.697482   3.158357
                    6          7          8          9         10
     6  C    0.000000
     7  C    1.396731   0.000000
     8  C    2.537547   1.504581   0.000000
     9  C    2.365688   1.394873   2.538645   0.000000
    10  N    2.754099   2.406848   3.780271   1.329522   0.000000
    11  C    2.392704   2.763118   4.267137   2.292678   1.325282
    12  O    3.624043   4.091281   5.594481   3.482791   2.258245
    13  H    4.641602   6.016459   6.973047   6.685385   6.324953
    14  H    4.641811   6.016582   6.973242   6.685361   6.324845
    15  H    4.508602   5.861581   6.517368   6.816863   6.755810
    16  H    1.091430   2.163400   2.763996   3.370701   3.845362
    17  H    2.867847   2.162972   1.100850   3.266344   4.429783
    18  H    3.443853   2.160621   1.099108   2.649615   3.978854
    19  H    2.867948   2.162991   1.100848   3.266276   4.429749
    20  H    3.373487   2.161951   2.762047   1.096573   2.060879
    21  H    4.233287   4.420380   5.885808   3.523972   2.196225
                   11         12         13         14         15
    11  C    0.000000
    12  O    1.329272   0.000000
    13  H    5.108840   5.229333   0.000000
    14  H    5.108769   5.229219   1.783060   0.000000
    15  H    5.682007   6.120762   1.800617   1.800589   0.000000
    16  H    3.382579   4.517875   4.270950   4.271323   3.788366
    17  H    4.788245   6.098364   6.863881   7.090842   6.383958
    18  H    4.755715   6.044191   7.984542   7.984702   7.599940
    19  H    4.788284   6.098456   7.090539   6.864056   6.383752
    20  H    3.261468   4.319116   7.770714   7.770642   7.868385
    21  H    1.841903   0.967504   6.183913   6.183727   7.076273
                   16         17         18         19         20
    16  H    0.000000
    17  H    2.832713   0.000000
    18  H    3.825725   1.776777   0.000000
    19  H    2.832867   1.774380   1.776780   0.000000
    20  H    4.300732   3.527181   2.410513   3.527012   0.000000
    21  H    5.217087   6.454278   6.170288   6.454330   4.157688
                   21
    21  H    0.000000
 Stoichiometry    C8H9NO3
 Framework group  C1[X(C8H9NO3)]
 Deg. of freedom    57
 Full point group                 C1      NOp   1
 Largest Abelian subgroup         C1      NOp   1
 Largest concise Abelian subgroup C1      NOp   1
                         Standard orientation:                         
 ---------------------------------------------------------------------
 Center     Atomic      Atomic             Coordinates (Angstroms)
 Number     Number       Type             X           Y           Z
 ---------------------------------------------------------------------
      1          6           0       -3.446978   -1.380064   -0.000339
      2          8           0       -2.044568   -1.184353   -0.000329
      3          6           0       -1.628220    0.094708    0.000201
      4          8           0       -2.390341    1.023317    0.000621
      5          6           0       -0.140060    0.179259    0.000131
      6          6           0        0.648541   -0.971700    0.000211
      7          6           0        2.043491   -0.901178    0.000071
      8          6           0        2.903263   -2.135907    0.000191
      9          6           0        2.587890    0.383072   -0.000219
     10          7           0        1.865259    1.499062   -0.000309
     11          6           0        0.542419    1.418650   -0.000119
     12          8           0       -0.123333    2.569189   -0.000039
     13          1           0       -3.906529   -0.929225    0.891281
     14          1           0       -3.906559   -0.928915   -0.891779
     15          1           0       -3.605827   -2.464295   -0.000549
     16          1           0        0.146173   -1.940640    0.000401
     17          1           0        2.709243   -2.757997    0.887451
     18          1           0        3.971362   -1.876676    0.000171
     19          1           0        2.709253   -2.758197   -0.886929
     20          1           0        3.676410    0.515724   -0.000439
     21          1           0        0.553517    3.260520   -0.000239
 ---------------------------------------------------------------------
 Rotational constants (GHZ):           1.4630714           0.7080778           0.4800425
 Standard basis: def2SVP (5D, 7F)
 There are   225 symmetry adapted cartesian basis functions of A   symmetry.
 There are   213 symmetry adapted basis functions of A   symmetry.
   213 basis functions,   363 primitive gaussians,   225 cartesian basis functions
    44 alpha electrons       44 beta electrons
       nuclear repulsion energy       689.6950691565 Hartrees.
 NAtoms=   21 NActive=   21 NUniq=   21 SFac= 1.00D+00 NAtFMM=   60 NAOKFM=F Big=F
 Integral buffers will be    131072 words long.
 Raffenetti 2 integral format.
 Two-electron integral symmetry is turned on.
 Nuclear repulsion after empirical dispersion term =      689.6851204875 Hartrees.
 One-electron integrals computed using PRISM.
   1 Symmetry operations used in ECPInt.
 ECPInt:  NShTT=    4950 NPrTT=   18138 LenC2=    4736 LenP2D=   12867.
 LDataN:  DoStor=T MaxTD1= 4 Len=   56
 NBasis=   213 RedAO= T EigKep=  5.83D-04  NBF=   213
 NBsUse=   213 1.00D-06 EigRej= -1.00D+00 NBFU=   213
 ExpMin= 1.22D-01 ExpMax= 2.27D+03 ExpMxC= 3.41D+02 IAcc=3 IRadAn=         5 AccDes= 0.00D+00
 Harris functional with IExCor= 4639 and IRadAn=       5 diagonalized for initial guess.
 HarFok:  IExCor= 4639 AccDes= 0.00D+00 IRadAn=         5 IDoV= 1 UseB2=F ITyADJ=14
 ICtDFT=  3500011 ScaDFX=  1.000000  1.000000  1.000000  1.000000
 FoFCou: FMM=F IPFlag=           0 FMFlag=      100000 FMFlg1=           0
         NFxFlg=           0 DoJE=T BraDBF=F KetDBF=T FulRan=T
         wScrn=  0.000000 ICntrl=       500 IOpCl=  0 I1Cent=   200000004 NGrid=           0
         NMat0=    1 NMatS0=      1 NMatT0=    0 NMatD0=    1 NMtDS0=    0 NMtDT0=    0
 Petite list used in FoFCou.
 Requested convergence on RMS density matrix=1.00D-08 within 128 cycles.
 Requested convergence on MAX density matrix=1.00D-06.
 Requested convergence on             energy=1.00D-06.
 No special actions if energy rises.
 Integral accuracy reduced to 1.0D-05 until final iterations.
 Initial convergence to 1.0D-05 achieved.  Increase integral accuracy.
 SCF Done:  E(RwB97XD) =  -590.090771492     A.U. after   16 cycles
            NFock= 16  Conv=0.65D-08     -V/T= 2.0094

 **********************************************************************

            Population analysis using the SCF Density.

 **********************************************************************

 Orbital symmetries:
       Occupied  (A) (A) (A) (A) (A) (A) (A) (A) (A) (A) (A) (A)
                 (A) (A) (A) (A) (A) (A) (A) (A) (A) (A) (A) (A)
                 (A) (A) (A) (A) (A) (A) (A) (A) (A) (A) (A) (A)
                 (A) (A) (A) (A) (A) (A) (A) (A)
       Virtual   (A) (A) (A) (A) (A) (A) (A) (A) (A) (A) (A) (A)
                 (A) (A) (A) (A) (A) (A) (A) (A) (A) (A) (A) (A)
                 (A) (A) (A) (A) (A) (A) (A) (A) (A) (A) (A) (A)
                 (A) (A) (A) (A) (A) (A) (A) (A) (A) (A) (A) (A)
                 (A) (A) (A) (A) (A) (A) (A) (A) (A) (A) (A) (A)
                 (A) (A) (A) (A) (A) (A) (A) (A) (A) (A) (A) (A)
                 (A) (A) (A) (A) (A) (A) (A) (A) (A) (A) (A) (A)
                 (A) (A) (A) (A) (A) (A) (A) (A) (A) (A) (A) (A)
                 (A) (A) (A) (A) (A) (A) (A) (A) (A) (A) (A) (A)
                 (A) (A) (A) (A) (A) (A) (A) (A) (A) (A) (A) (A)
                 (A) (A) (A) (A) (A) (A) (A) (A) (A) (A) (A) (A)
                 (A) (A) (A) (A) (A) (A) (A) (A) (A) (A) (A) (A)
                 (A) (A) (A) (A) (A) (A) (A) (A) (A) (A) (A) (A)
                 (A) (A) (A) (A) (A) (A) (A) (A) (A) (A) (A) (A)
                 (A)
 The electronic state is 1-A.
 Alpha  occ. eigenvalues --  -19.30129 -19.29249 -19.23851 -14.44600 -10.42776
 Alpha  occ. eigenvalues --  -10.40458 -10.35433 -10.34766 -10.32832 -10.32216
 Alpha  occ. eigenvalues --  -10.31677 -10.30962  -1.20336  -1.17923  -1.10621
 Alpha  occ. eigenvalues --   -1.04172  -0.92310  -0.88747  -0.82325  -0.79341
 Alpha  occ. eigenvalues --   -0.75410  -0.71850  -0.66194  -0.65361  -0.62034
 Alpha  occ. eigenvalues --   -0.60339  -0.57964  -0.56008  -0.54223  -0.54116
 Alpha  occ. eigenvalues --   -0.51371  -0.51167  -0.50816  -0.48639  -0.48321
 Alpha  occ. eigenvalues --   -0.47382  -0.46400  -0.44103  -0.43877  -0.38763
 Alpha  occ. eigenvalues --   -0.37336  -0.36452  -0.35368  -0.31449
 Alpha virt. eigenvalues --    0.01177   0.05674   0.12689   0.14350   0.15764
 Alpha virt. eigenvalues --    0.15939   0.17986   0.18869   0.20436   0.20610
 Alpha virt. eigenvalues --    0.22004   0.22345   0.22873   0.26635   0.27699
 Alpha virt. eigenvalues --    0.30703   0.31554   0.32509   0.35857   0.36702
 Alpha virt. eigenvalues --    0.38381   0.40282   0.43998   0.45991   0.47498
 Alpha virt. eigenvalues --    0.49506   0.50824   0.51525   0.52610   0.53760
 Alpha virt. eigenvalues --    0.54958   0.55013   0.56014   0.59796   0.61581
 Alpha virt. eigenvalues --    0.63574   0.64379   0.65538   0.66876   0.68067
 Alpha virt. eigenvalues --    0.68446   0.70485   0.71390   0.72563   0.73041
 Alpha virt. eigenvalues --    0.73677   0.74332   0.75040   0.75134   0.76112
 Alpha virt. eigenvalues --    0.77051   0.77418   0.79031   0.79667   0.80913
 Alpha virt. eigenvalues --    0.82204   0.85229   0.87197   0.89363   0.91940
 Alpha virt. eigenvalues --    0.93641   0.94487   0.98802   1.02572   1.06873
 Alpha virt. eigenvalues --    1.08117   1.10125   1.11912   1.12596   1.14353
 Alpha virt. eigenvalues --    1.17637   1.21902   1.22948   1.25900   1.30626
 Alpha virt. eigenvalues --    1.31774   1.33062   1.33569   1.36712   1.37969
 Alpha virt. eigenvalues --    1.41165   1.42090   1.45142   1.45240   1.46528
 Alpha virt. eigenvalues --    1.52866   1.53442   1.56437   1.59554   1.60965
 Alpha virt. eigenvalues --    1.62309   1.65019   1.66922   1.68105   1.69787
 Alpha virt. eigenvalues --    1.75118   1.76175   1.79542   1.79772   1.82029
 Alpha virt. eigenvalues --    1.82109   1.85712   1.85966   1.86214   1.87358
 Alpha virt. eigenvalues --    1.88051   1.90853   1.91449   1.92591   1.94441
 Alpha virt. eigenvalues --    1.97940   1.98347   2.02539   2.03680   2.04868
 Alpha virt. eigenvalues --    2.06094   2.08844   2.10455   2.12768   2.20646
 Alpha virt. eigenvalues --    2.21793   2.22529   2.27514   2.27746   2.31435
 Alpha virt. eigenvalues --    2.32363   2.36026   2.37411   2.39170   2.42563
 Alpha virt. eigenvalues --    2.43555   2.47864   2.48536   2.50395   2.54527
 Alpha virt. eigenvalues --    2.58687   2.60000   2.65789   2.67507   2.71999
 Alpha virt. eigenvalues --    2.72654   2.74590   2.79076   2.80035   2.81193
 Alpha virt. eigenvalues --    2.86587   2.88662   2.88724   2.97478   2.98561
 Alpha virt. eigenvalues --    2.99021   3.00721   3.03573   3.05405   3.07055
 Alpha virt. eigenvalues --    3.08594   3.08937   3.14534   3.18049   3.26131
 Alpha virt. eigenvalues --    3.28550   3.31699   3.41567   3.50403   3.53359
 Alpha virt. eigenvalues --    3.66134   3.73317   3.78996   3.93492
          Condensed to atoms (all electrons):
               1          2          3          4          5          6
     1  C    4.405697   0.268072  -0.034493   0.001185   0.012518  -0.000499
     2  O    0.268072   7.956452   0.422093  -0.085111  -0.172435   0.014475
     3  C   -0.034493   0.422093   4.572246   0.756600   0.090147  -0.052113
     4  O    0.001185  -0.085111   0.756600   7.640301  -0.117456   0.003729
     5  C    0.012518  -0.172435   0.090147  -0.117456   5.909380   0.433692
     6  C   -0.000499   0.014475  -0.052113   0.003729   0.433692   4.889197
     7  C    0.000007   0.001048   0.014819  -0.000035   0.007858   0.392587
     8  C    0.000000  -0.000046  -0.000080   0.000000   0.009264  -0.072201
     9  C    0.000000   0.000029  -0.000401   0.000018  -0.058272  -0.019000
    10  N    0.000002  -0.000009   0.007179   0.000058  -0.099557  -0.040066
    11  C   -0.000014   0.000212  -0.041172   0.003762   0.315433  -0.055841
    12  O    0.000008  -0.000003   0.008018  -0.005481  -0.115901   0.000328
    13  H    0.405954  -0.026978  -0.004351   0.007012   0.000427   0.000075
    14  H    0.405961  -0.026975  -0.004347   0.007002   0.000422   0.000075
    15  H    0.398087  -0.022909   0.004264   0.000761   0.000561  -0.000283
    16  H   -0.000497   0.017465  -0.021901   0.000292  -0.042650   0.440531
    17  H    0.000000  -0.000003  -0.000005  -0.000000   0.000489  -0.006588
    18  H    0.000000  -0.000000   0.000005  -0.000000  -0.000457   0.009093
    19  H    0.000000  -0.000003  -0.000005  -0.000000   0.000488  -0.006586
    20  H    0.000000  -0.000000   0.000071  -0.000000   0.001043   0.006812
    21  H   -0.000001   0.000007  -0.000956   0.000335   0.018019   0.000096
               7          8          9         10         11         12
     1  C    0.000007   0.000000   0.000000   0.000002  -0.000014   0.000008
     2  O    0.001048  -0.000046   0.000029  -0.000009   0.000212  -0.000003
     3  C    0.014819  -0.000080  -0.000401   0.007179  -0.041172   0.008018
     4  O   -0.000035   0.000000   0.000018   0.000058   0.003762  -0.005481
     5  C    0.007858   0.009264  -0.058272  -0.099557   0.315433  -0.115901
     6  C    0.392587  -0.072201  -0.019000  -0.040066  -0.055841   0.000328
     7  C    5.180337   0.383446   0.472251  -0.045516  -0.066753   0.000605
     8  C    0.383446   4.543923  -0.055568   0.005304   0.001500   0.000007
     9  C    0.472251  -0.055568   4.713473   0.520204  -0.041318   0.001124
    10  N   -0.045516   0.005304   0.520204   6.400718   0.546339  -0.087853
    11  C   -0.066753   0.001500  -0.041318   0.546339   4.716755   0.485617
    12  O    0.000605   0.000007   0.001124  -0.087853   0.485617   7.552023
    13  H    0.000006  -0.000000   0.000000  -0.000000  -0.000014  -0.000001
    14  H    0.000006  -0.000000   0.000000  -0.000000  -0.000014  -0.000001
    15  H   -0.000011   0.000000  -0.000000  -0.000000   0.000023   0.000000
    16  H   -0.062830  -0.009526   0.009771  -0.000147   0.011123  -0.000056
    17  H   -0.016457   0.390865   0.001336  -0.000133  -0.000016  -0.000000
    18  H   -0.020652   0.391052  -0.007605   0.000233   0.000049  -0.000000
    19  H   -0.016455   0.390865   0.001333  -0.000133  -0.000016  -0.000000
    20  H   -0.062434  -0.007546   0.419351  -0.033720   0.003723  -0.000059
    21  H    0.000189  -0.000009   0.001210   0.006296  -0.016191   0.314902
              13         14         15         16         17         18
     1  C    0.405954   0.405961   0.398087  -0.000497   0.000000   0.000000
     2  O   -0.026978  -0.026975  -0.022909   0.017465  -0.000003  -0.000000
     3  C   -0.004351  -0.004347   0.004264  -0.021901  -0.000005   0.000005
     4  O    0.007012   0.007002   0.000761   0.000292  -0.000000  -0.000000
     5  C    0.000427   0.000422   0.000561  -0.042650   0.000489  -0.000457
     6  C    0.000075   0.000075  -0.000283   0.440531  -0.006588   0.009093
     7  C    0.000006   0.000006  -0.000011  -0.062830  -0.016457  -0.020652
     8  C   -0.000000  -0.000000   0.000000  -0.009526   0.390865   0.391052
     9  C    0.000000   0.000000  -0.000000   0.009771   0.001336  -0.007605
    10  N   -0.000000  -0.000000  -0.000000  -0.000147  -0.000133   0.000233
    11  C   -0.000014  -0.000014   0.000023   0.011123  -0.000016   0.000049
    12  O   -0.000001  -0.000001   0.000000  -0.000056  -0.000000  -0.000000
    13  H    0.619660  -0.030268  -0.024096   0.000128   0.000000  -0.000000
    14  H   -0.030268   0.619670  -0.024100   0.000128  -0.000000  -0.000000
    15  H   -0.024096  -0.024100   0.617701  -0.000377   0.000000   0.000000
    16  H    0.000128   0.000128  -0.000377   0.623042   0.001790   0.000007
    17  H    0.000000  -0.000000   0.000000   0.001790   0.614077  -0.019780
    18  H   -0.000000  -0.000000   0.000000   0.000007  -0.019780   0.624050
    19  H   -0.000000   0.000000   0.000000   0.001789  -0.020839  -0.019779
    20  H    0.000000   0.000000  -0.000000  -0.000245   0.000041   0.006215
    21  H   -0.000000  -0.000000   0.000000   0.000018   0.000000  -0.000000
              19         20         21
     1  C    0.000000   0.000000  -0.000001
     2  O   -0.000003  -0.000000   0.000007
     3  C   -0.000005   0.000071  -0.000956
     4  O   -0.000000  -0.000000   0.000335
     5  C    0.000488   0.001043   0.018019
     6  C   -0.006586   0.006812   0.000096
     7  C   -0.016455  -0.062434   0.000189
     8  C    0.390865  -0.007546  -0.000009
     9  C    0.001333   0.419351   0.001210
    10  N   -0.000133  -0.033720   0.006296
    11  C   -0.000016   0.003723  -0.016191
    12  O   -0.000000  -0.000059   0.314902
    13  H   -0.000000   0.000000  -0.000000
    14  H    0.000000   0.000000  -0.000000
    15  H    0.000000  -0.000000   0.000000
    16  H    0.001789  -0.000245   0.000018
    17  H   -0.020839   0.000041   0.000000
    18  H   -0.019779   0.006215  -0.000000
    19  H    0.614069   0.000041   0.000000
    20  H    0.000041   0.638969  -0.000307
    21  H    0.000000  -0.000307   0.486532
 Mulliken charges:
               1
     1  C    0.138013
     2  O   -0.345379
     3  C    0.284383
     4  O   -0.212973
     5  C   -0.193013
     6  C    0.062488
     7  C   -0.162017
     8  C    0.028750
     9  C    0.042064
    10  N   -0.179197
    11  C    0.136812
    12  O   -0.153276
    13  H    0.052447
    14  H    0.052441
    15  H    0.050379
    16  H    0.032144
    17  H    0.055225
    18  H    0.037570
    19  H    0.055231
    20  H    0.028046
    21  H    0.189861
 Sum of Mulliken charges =  -0.00000
 Mulliken charges with hydrogens summed into heavy atoms:
               1
     1  C    0.293280
     2  O   -0.345379
     3  C    0.284383
     4  O   -0.212973
     5  C   -0.193013
     6  C    0.094631
     7  C   -0.162017
     8  C    0.176776
     9  C    0.070110
    10  N   -0.179197
    11  C    0.136812
    12  O    0.036586
 Electronic spatial extent (au):  <R**2>=           2266.8720
 Charge=             -0.0000 electrons
 Dipole moment (field-independent basis, Debye):
    X=              1.3649    Y=             -2.8434    Z=             -0.0007  Tot=              3.1540
 Quadrupole moment (field-independent basis, Debye-Ang):
   XX=            -62.7544   YY=            -64.3367   ZZ=            -69.3047
   XY=              5.4798   XZ=              0.0029   YZ=             -0.0028
 Traceless Quadrupole moment (field-independent basis, Debye-Ang):
   XX=              2.7109   YY=              1.1285   ZZ=             -3.8394
   XY=              5.4798   XZ=              0.0029   YZ=             -0.0028
 Octapole moment (field-independent basis, Debye-Ang**2):
  XXX=            -23.3798  YYY=             21.1325  ZZZ=              0.0005  XYY=              2.0289
  XXY=            -32.2893  XXZ=             -0.0102  XZZ=            -10.7064  YZZ=              3.2699
  YYZ=             -0.0034  XYZ=              0.0035
 Hexadecapole moment (field-independent basis, Debye-Ang**3):
 XXXX=          -1739.9260 YYYY=           -781.0878 ZZZZ=            -78.9376 XXXY=             63.9086
 XXXZ=              0.0217 YYYX=             37.7218 YYYZ=             -0.0077 ZZZX=             -0.0015
 ZZZY=              0.0019 XXYY=           -474.2143 XXZZ=           -332.4121 YYZZ=           -164.2234
 XXYZ=             -0.0014 YYXZ=              0.0082 ZZXY=             -0.0888
 N-N= 6.896851204875D+02 E-N=-2.756059706095D+03  KE= 5.846186996756D+02
   1 Symmetry operations used in ECPInt.
 ECPInt:  NShTT=    4950 NPrTT=   18138 LenC2=    4736 LenP2D=   12867.
 LDataN:  DoStor=T MaxTD1= 5 Len=  102
 Calling FoFJK, ICntrl=      2127 FMM=F ISym2X=0 I1Cent= 0 IOpClX= 0 NMat=1 NMatS=1 NMatT=0.
 ***** Axes restored to original set *****
 -------------------------------------------------------------------
 Center     Atomic                   Forces (Hartrees/Bohr)
 Number     Number              X              Y              Z
 -------------------------------------------------------------------
      1        6           0.000002068   -0.000001975    0.000004783
      2        8           0.000009943    0.000002252    0.000001553
      3        6          -0.000022454   -0.000001971   -0.000003288
      4        8           0.000010265   -0.000001469    0.000000735
      5        6          -0.000006584   -0.000029122   -0.000006591
      6        6          -0.000026328    0.000008779    0.000000602
      7        6           0.000041431    0.000011574   -0.000001153
      8        6          -0.000017328    0.000017446    0.000002952
      9        6           0.000002254   -0.000034004   -0.000006304
     10        7          -0.000047625    0.000013552   -0.000001449
     11        6           0.000064226    0.000005497    0.000019373
     12        8          -0.000015994    0.000005664   -0.000008666
     13        1           0.000001827   -0.000005598   -0.000003834
     14        1           0.000001211   -0.000001080   -0.000000151
     15        1           0.000001235    0.000001411    0.000000978
     16        1           0.000001393    0.000002951   -0.000000785
     17        1           0.000004499    0.000000344   -0.000000969
     18        1          -0.000001153   -0.000001303   -0.000000421
     19        1           0.000003250    0.000000894   -0.000000599
     20        1          -0.000006519    0.000001975    0.000003126
     21        1           0.000000381    0.000004183    0.000000109
 -------------------------------------------------------------------
 Cartesian Forces:  Max     0.000064226 RMS     0.000014726

 GradGradGradGradGradGradGradGradGradGradGradGradGradGradGradGradGradGrad
 Berny optimization.
 FormGI is forming the generalized inverse of G from B-inverse, IUseBI=4.
 Internal  Forces:  Max     0.000038020 RMS     0.000007365
 Search for a local minimum.
 Step number   1 out of a maximum of  101
 All quantities printed in internal units (Hartrees-Bohrs-Radians)
 Mixed Optimization -- En-DIIS/RFO-DIIS
 Second derivative matrix not updated -- first step.
 ITU=  0
     Eigenvalues ---    0.00705   0.00891   0.01372   0.01480   0.01527
     Eigenvalues ---    0.01669   0.02034   0.02142   0.02163   0.02246
     Eigenvalues ---    0.02310   0.02418   0.02526   0.02627   0.07145
     Eigenvalues ---    0.07154   0.10215   0.10626   0.16000   0.16000
     Eigenvalues ---    0.16000   0.16000   0.16000   0.16000   0.16000
     Eigenvalues ---    0.16000   0.16000   0.23281   0.23478   0.25000
     Eigenvalues ---    0.25000   0.25000   0.25000   0.25000   0.25000
     Eigenvalues ---    0.25000   0.31901   0.33388   0.33588   0.33588
     Eigenvalues ---    0.33711   0.33712   0.33781   0.34064   0.34150
     Eigenvalues ---    0.34648   0.41181   0.43068   0.44073   0.45117
     Eigenvalues ---    0.46370   0.53890   0.56073   0.57513   0.59356
     Eigenvalues ---    0.59678   1.04168
 RFO step:  Lambda=-1.90617803D-08 EMin= 7.05355592D-03
 Linear search not attempted -- first point.
 Iteration  1 RMS(Cart)=  0.00015645 RMS(Int)=  0.00000001
 Iteration  2 RMS(Cart)=  0.00000002 RMS(Int)=  0.00000000
 Variable       Old X    -DE/DX   Delta X   Delta X   Delta X     New X
                                 (Linear)    (Quad)   (Total)
    R1        2.67585  -0.00000   0.00000  -0.00001  -0.00001   2.67584
    R2        2.07821  -0.00001   0.00000  -0.00002  -0.00002   2.07819
    R3        2.07820   0.00000   0.00000   0.00000   0.00000   2.07820
    R4        2.07077  -0.00000   0.00000  -0.00001  -0.00001   2.07076
    R5        2.54190  -0.00001   0.00000  -0.00001  -0.00001   2.54189
    R6        2.27015  -0.00001   0.00000  -0.00001  -0.00001   2.27014
    R7        2.81675  -0.00000   0.00000  -0.00001  -0.00001   2.81674
    R8        2.63656  -0.00002   0.00000  -0.00004  -0.00004   2.63652
    R9        2.67372   0.00002   0.00000   0.00004   0.00004   2.67376
   R10        2.63944   0.00001   0.00000   0.00003   0.00003   2.63947
   R11        2.06250  -0.00000   0.00000  -0.00001  -0.00001   2.06250
   R12        2.84325  -0.00002   0.00000  -0.00006  -0.00006   2.84319
   R13        2.63593  -0.00002   0.00000  -0.00005  -0.00005   2.63588
   R14        2.08030  -0.00000   0.00000  -0.00000  -0.00000   2.08030
   R15        2.07701  -0.00000   0.00000  -0.00001  -0.00001   2.07701
   R16        2.08030   0.00000   0.00000   0.00000   0.00000   2.08030
   R17        2.51243   0.00002   0.00000   0.00003   0.00003   2.51246
   R18        2.07222  -0.00001   0.00000  -0.00002  -0.00002   2.07220
   R19        2.50442  -0.00004   0.00000  -0.00006  -0.00006   2.50436
   R20        2.51196   0.00001   0.00000   0.00002   0.00002   2.51199
   R21        1.82832   0.00000   0.00000   0.00001   0.00001   1.82832
    A1        1.93606   0.00000   0.00000   0.00001   0.00001   1.93607
    A2        1.93606  -0.00000   0.00000  -0.00001  -0.00001   1.93605
    A3        1.85493   0.00000   0.00000   0.00000   0.00000   1.85493
    A4        1.89061   0.00000   0.00000   0.00000   0.00000   1.89061
    A5        1.92325  -0.00000   0.00000  -0.00001  -0.00001   1.92324
    A6        1.92321   0.00000   0.00000   0.00001   0.00001   1.92322
    A7        2.02415   0.00000   0.00000   0.00000   0.00000   2.02415
    A8        2.13966   0.00002   0.00000   0.00007   0.00007   2.13972
    A9        1.94225  -0.00001   0.00000  -0.00006  -0.00006   1.94219
   A10        2.20128  -0.00000   0.00000  -0.00001  -0.00001   2.20128
   A11        2.11474  -0.00000   0.00000  -0.00001  -0.00001   2.11473
   A12        2.13090   0.00000   0.00000   0.00002   0.00002   2.13092
   A13        2.03754  -0.00000   0.00000  -0.00001  -0.00001   2.03754
   A14        2.12099  -0.00000   0.00000  -0.00000  -0.00000   2.12098
   A15        2.06257  -0.00000   0.00000  -0.00000  -0.00000   2.06257
   A16        2.09962   0.00000   0.00000   0.00001   0.00001   2.09963
   A17        2.12854  -0.00001   0.00000  -0.00003  -0.00003   2.12851
   A18        2.02225  -0.00000   0.00000  -0.00000  -0.00000   2.02225
   A19        2.13240   0.00001   0.00000   0.00003   0.00003   2.13242
   A20        1.94239   0.00000   0.00000   0.00003   0.00003   1.94242
   A21        1.94095   0.00000   0.00000   0.00001   0.00001   1.94096
   A22        1.94242   0.00000   0.00000   0.00001   0.00001   1.94242
   A23        1.88028  -0.00000   0.00000  -0.00002  -0.00002   1.88026
   A24        1.87444  -0.00000   0.00000  -0.00000  -0.00000   1.87444
   A25        1.88029  -0.00000   0.00000  -0.00003  -0.00003   1.88026
   A26        2.16602   0.00000   0.00000   0.00001   0.00001   2.16602
   A27        2.09300   0.00000   0.00000   0.00000   0.00000   2.09301
   A28        2.02416  -0.00000   0.00000  -0.00001  -0.00001   2.02415
   A29        2.08472  -0.00000   0.00000  -0.00001  -0.00001   2.08471
   A30        2.13486   0.00000   0.00000   0.00001   0.00001   2.13487
   A31        2.11368  -0.00001   0.00000  -0.00004  -0.00004   2.11364
   A32        2.03465   0.00001   0.00000   0.00003   0.00003   2.03468
   A33        1.84221   0.00000   0.00000   0.00001   0.00001   1.84223
    D1       -1.05077  -0.00000   0.00000  -0.00005  -0.00005  -1.05081
    D2        1.05128  -0.00000   0.00000  -0.00004  -0.00004   1.05124
    D3       -3.14136  -0.00000   0.00000  -0.00004  -0.00004  -3.14139
    D4       -0.00002   0.00000   0.00000   0.00006   0.00006   0.00004
    D5       -3.14157  -0.00000   0.00000  -0.00018  -0.00018   3.14143
    D6       -0.00054   0.00000   0.00000   0.00023   0.00023  -0.00031
    D7        3.14097   0.00000   0.00000   0.00030   0.00030   3.14127
    D8        3.14110  -0.00000   0.00000  -0.00003  -0.00003   3.14107
    D9       -0.00058  -0.00000   0.00000   0.00004   0.00004  -0.00054
   D10        3.14153   0.00000   0.00000   0.00002   0.00002   3.14155
   D11       -0.00008   0.00000   0.00000   0.00004   0.00004  -0.00003
   D12        0.00002  -0.00000   0.00000  -0.00004  -0.00004  -0.00003
   D13       -3.14159  -0.00000   0.00000  -0.00002  -0.00002   3.14158
   D14       -3.14148   0.00000   0.00000   0.00000   0.00000  -3.14148
   D15        0.00023  -0.00001   0.00000  -0.00028  -0.00028  -0.00005
   D16        0.00003   0.00000   0.00000   0.00006   0.00006   0.00010
   D17       -3.14144  -0.00000   0.00000  -0.00022  -0.00022   3.14153
   D18        3.14156   0.00000   0.00000   0.00000   0.00000   3.14157
   D19       -0.00005   0.00000   0.00000   0.00001   0.00001  -0.00005
   D20       -0.00001  -0.00000   0.00000  -0.00002  -0.00002  -0.00004
   D21        3.14155  -0.00000   0.00000  -0.00002  -0.00002   3.14154
   D22       -1.04495  -0.00000   0.00000  -0.00002  -0.00002  -1.04496
   D23       -3.14148  -0.00000   0.00000  -0.00002  -0.00002  -3.14149
   D24        1.04516   0.00000   0.00000   0.00001   0.00001   1.04516
   D25        2.09667  -0.00000   0.00000  -0.00002  -0.00002   2.09665
   D26        0.00014  -0.00000   0.00000  -0.00002  -0.00002   0.00012
   D27       -2.09641   0.00000   0.00000   0.00000   0.00000  -2.09641
   D28        0.00005   0.00000   0.00000   0.00001   0.00001   0.00006
   D29       -3.14149  -0.00000   0.00000  -0.00008  -0.00008  -3.14157
   D30       -3.14157   0.00000   0.00000   0.00002   0.00002  -3.14155
   D31        0.00008  -0.00000   0.00000  -0.00007  -0.00007   0.00000
   D32       -0.00000   0.00000   0.00000   0.00001   0.00001   0.00000
   D33        3.14154   0.00000   0.00000   0.00009   0.00009  -3.14155
   D34       -0.00004  -0.00000   0.00000  -0.00005  -0.00005  -0.00009
   D35        3.14144   0.00001   0.00000   0.00022   0.00022  -3.14152
   D36        3.14158   0.00000   0.00000   0.00013   0.00013  -3.14148
   D37        0.00010  -0.00000   0.00000  -0.00014  -0.00014  -0.00003
         Item               Value     Threshold  Converged?
 Maximum Force            0.000038     0.000450     YES
 RMS     Force            0.000007     0.000300     YES
 Maximum Displacement     0.000579     0.001800     YES
 RMS     Displacement     0.000156     0.001200     YES
 Predicted change in Energy=-9.530881D-09
 Optimization completed.
    -- Stationary point found.
                           ----------------------------
                           !   Optimized Parameters   !
                           ! (Angstroms and Degrees)  !
 --------------------------                            --------------------------
 ! Name  Definition              Value          Derivative Info.                !
 --------------------------------------------------------------------------------
 ! R1    R(1,2)                  1.416          -DE/DX =    0.0                 !
 ! R2    R(1,13)                 1.0997         -DE/DX =    0.0                 !
 ! R3    R(1,14)                 1.0997         -DE/DX =    0.0                 !
 ! R4    R(1,15)                 1.0958         -DE/DX =    0.0                 !
 ! R5    R(2,3)                  1.3451         -DE/DX =    0.0                 !
 ! R6    R(3,4)                  1.2013         -DE/DX =    0.0                 !
 ! R7    R(3,5)                  1.4906         -DE/DX =    0.0                 !
 ! R8    R(5,6)                  1.3952         -DE/DX =    0.0                 !
 ! R9    R(5,11)                 1.4149         -DE/DX =    0.0                 !
 ! R10   R(6,7)                  1.3967         -DE/DX =    0.0                 !
 ! R11   R(6,16)                 1.0914         -DE/DX =    0.0                 !
 ! R12   R(7,8)                  1.5046         -DE/DX =    0.0                 !
 ! R13   R(7,9)                  1.3949         -DE/DX =    0.0                 !
 ! R14   R(8,17)                 1.1008         -DE/DX =    0.0                 !
 ! R15   R(8,18)                 1.0991         -DE/DX =    0.0                 !
 ! R16   R(8,19)                 1.1008         -DE/DX =    0.0                 !
 ! R17   R(9,10)                 1.3295         -DE/DX =    0.0                 !
 ! R18   R(9,20)                 1.0966         -DE/DX =    0.0                 !
 ! R19   R(10,11)                1.3253         -DE/DX =    0.0                 !
 ! R20   R(11,12)                1.3293         -DE/DX =    0.0                 !
 ! R21   R(12,21)                0.9675         -DE/DX =    0.0                 !
 ! A1    A(2,1,13)             110.928          -DE/DX =    0.0                 !
 ! A2    A(2,1,14)             110.9281         -DE/DX =    0.0                 !
 ! A3    A(2,1,15)             106.2795         -DE/DX =    0.0                 !
 ! A4    A(13,1,14)            108.3239         -DE/DX =    0.0                 !
 ! A5    A(13,1,15)            110.1941         -DE/DX =    0.0                 !
 ! A6    A(14,1,15)            110.192          -DE/DX =    0.0                 !
 ! A7    A(1,2,3)              115.9752         -DE/DX =    0.0                 !
 ! A8    A(2,3,4)              122.5932         -DE/DX =    0.0                 !
 ! A9    A(2,3,5)              111.2825         -DE/DX =    0.0                 !
 ! A10   A(4,3,5)              126.1243         -DE/DX =    0.0                 !
 ! A11   A(3,5,6)              121.1659         -DE/DX =    0.0                 !
 ! A12   A(3,5,11)             122.0915         -DE/DX =    0.0                 !
 ! A13   A(6,5,11)             116.7426         -DE/DX =    0.0                 !
 ! A14   A(5,6,7)              121.5236         -DE/DX =    0.0                 !
 ! A15   A(5,6,16)             118.1768         -DE/DX =    0.0                 !
 ! A16   A(7,6,16)             120.2996         -DE/DX =    0.0                 !
 ! A17   A(6,7,8)              121.9563         -DE/DX =    0.0                 !
 ! A18   A(6,7,9)              115.8664         -DE/DX =    0.0                 !
 ! A19   A(8,7,9)              122.1773         -DE/DX =    0.0                 !
 ! A20   A(7,8,17)             111.2906         -DE/DX =    0.0                 !
 ! A21   A(7,8,18)             111.2083         -DE/DX =    0.0                 !
 ! A22   A(7,8,19)             111.2923         -DE/DX =    0.0                 !
 ! A23   A(17,8,18)            107.7323         -DE/DX =    0.0                 !
 ! A24   A(17,8,19)            107.3973         -DE/DX =    0.0                 !
 ! A25   A(18,8,19)            107.7326         -DE/DX =    0.0                 !
 ! A26   A(7,9,10)             124.1037         -DE/DX =    0.0                 !
 ! A27   A(7,9,20)             119.9203         -DE/DX =    0.0                 !
 ! A28   A(10,9,20)            115.9761         -DE/DX =    0.0                 !
 ! A29   A(9,10,11)            119.4455         -DE/DX =    0.0                 !
 ! A30   A(5,11,10)            122.3182         -DE/DX =    0.0                 !
 ! A31   A(5,11,12)            121.1048         -DE/DX =    0.0                 !
 ! A32   A(10,11,12)           116.577          -DE/DX =    0.0                 !
 ! A33   A(11,12,21)           105.5509         -DE/DX =    0.0                 !
 ! D1    D(13,1,2,3)           -60.2045         -DE/DX =    0.0                 !
 ! D2    D(14,1,2,3)            60.2341         -DE/DX =    0.0                 !
 ! D3    D(15,1,2,3)          -179.9864         -DE/DX =    0.0                 !
 ! D4    D(1,2,3,4)             -0.0012         -DE/DX =    0.0                 !
 ! D5    D(1,2,3,5)            180.0011         -DE/DX =    0.0                 !
 ! D6    D(2,3,5,6)             -0.0307         -DE/DX =    0.0                 !
 ! D7    D(2,3,5,11)           179.9645         -DE/DX =    0.0                 !
 ! D8    D(4,3,5,6)            179.9717         -DE/DX =    0.0                 !
 ! D9    D(4,3,5,11)            -0.0331         -DE/DX =    0.0                 !
 ! D10   D(3,5,6,7)            179.9964         -DE/DX =    0.0                 !
 ! D11   D(3,5,6,16)            -0.0044         -DE/DX =    0.0                 !
 ! D12   D(11,5,6,7)             0.0009         -DE/DX =    0.0                 !
 ! D13   D(11,5,6,16)          180.0001         -DE/DX =    0.0                 !
 ! D14   D(3,5,11,10)         -179.9935         -DE/DX =    0.0                 !
 ! D15   D(3,5,11,12)            0.0133         -DE/DX =    0.0                 !
 ! D16   D(6,5,11,10)            0.0019         -DE/DX =    0.0                 !
 ! D17   D(6,5,11,12)          180.0087         -DE/DX =    0.0                 !
 ! D18   D(5,6,7,8)            179.9984         -DE/DX =    0.0                 !
 ! D19   D(5,6,7,9)             -0.0031         -DE/DX =    0.0                 !
 ! D20   D(16,6,7,8)            -0.0008         -DE/DX =    0.0                 !
 ! D21   D(16,6,7,9)           179.9977         -DE/DX =    0.0                 !
 ! D22   D(6,7,8,17)           -59.8712         -DE/DX =    0.0                 !
 ! D23   D(6,7,8,18)          -179.9933         -DE/DX =    0.0                 !
 ! D24   D(6,7,8,19)            59.8831         -DE/DX =    0.0                 !
 ! D25   D(9,7,8,17)           120.1304         -DE/DX =    0.0                 !
 ! D26   D(9,7,8,18)             0.0083         -DE/DX =    0.0                 !
 ! D27   D(9,7,8,19)          -120.1153         -DE/DX =    0.0                 !
 ! D28   D(6,7,9,10)             0.0028         -DE/DX =    0.0                 !
 ! D29   D(6,7,9,20)          -179.9942         -DE/DX =    0.0                 !
 ! D30   D(8,7,9,10)          -179.9987         -DE/DX =    0.0                 !
 ! D31   D(8,7,9,20)             0.0043         -DE/DX =    0.0                 !
 ! D32   D(7,9,10,11)           -0.0001         -DE/DX =    0.0                 !
 ! D33   D(20,9,10,11)        -180.0031         -DE/DX =    0.0                 !
 ! D34   D(9,10,11,5)           -0.0023         -DE/DX =    0.0                 !
 ! D35   D(9,10,11,12)        -180.0088         -DE/DX =    0.0                 !
 ! D36   D(5,11,12,21)        -180.0007         -DE/DX =    0.0                 !
 ! D37   D(10,11,12,21)          0.0058         -DE/DX =    0.0                 !
 --------------------------------------------------------------------------------
 GradGradGradGradGradGradGradGradGradGradGradGradGradGradGradGradGradGrad

                          Input orientation:                          
 ---------------------------------------------------------------------
 Center     Atomic      Atomic             Coordinates (Angstroms)
 Number     Number       Type             X           Y           Z
 ---------------------------------------------------------------------
      1          6           0       -3.446980   -1.380060   -0.000340
      2          8           0       -2.044570   -1.184350   -0.000330
      3          6           0       -1.628220    0.094710    0.000200
      4          8           0       -2.390340    1.023320    0.000620
      5          6           0       -0.140060    0.179260    0.000130
      6          6           0        0.648540   -0.971700    0.000210
      7          6           0        2.043490   -0.901180    0.000070
      8          6           0        2.903260   -2.135910    0.000190
      9          6           0        2.587890    0.383070   -0.000220
     10          7           0        1.865260    1.499060   -0.000310
     11          6           0        0.542420    1.418650   -0.000120
     12          8           0       -0.123330    2.569190   -0.000040
     13          1           0       -3.906530   -0.929220    0.891280
     14          1           0       -3.906560   -0.928910   -0.891780
     15          1           0       -3.605830   -2.464290   -0.000550
     16          1           0        0.146170   -1.940640    0.000400
     17          1           0        2.709240   -2.758000    0.887450
     18          1           0        3.971360   -1.876680    0.000170
     19          1           0        2.709250   -2.758200   -0.886930
     20          1           0        3.676410    0.515720   -0.000440
     21          1           0        0.553520    3.260520   -0.000240
 ---------------------------------------------------------------------
                    Distance matrix (angstroms):
                    1          2          3          4          5
     1  C    0.000000
     2  O    1.416000   0.000000
     3  C    2.341545   1.345118   0.000000
     4  O    2.625400   2.234584   1.201309   0.000000
     5  C    3.656118   2.342347   1.490560   2.403372   0.000000
     6  C    4.115828   2.701493   2.514133   3.635230   1.395206
     7  C    5.511314   4.097856   3.804373   4.833482   2.436235
     8  C    6.395065   5.038501   5.050740   6.164652   3.823847
     9  C    6.287152   4.890449   4.225960   5.019232   2.735553
    10  N    6.042286   4.742094   3.765183   4.282109   2.400663
    11  C    4.873201   3.669895   2.542537   2.959285   1.414873
    12  O    5.161708   4.216660   2.896160   2.743911   2.389989
    13  H    1.099740   2.080133   2.652009   2.627645   4.026062
    14  H    1.099734   2.080130   2.652218   2.628023   4.026173
    15  H    1.095805   2.018856   3.234103   3.693351   4.358890
    16  H    3.636616   2.317610   2.700205   3.901146   2.139136
    17  H    6.370709   5.085591   5.266757   6.410192   4.187284
    18  H    7.434945   6.055637   5.936470   6.991511   4.596810
    19  H    6.370595   5.085457   5.266853   6.410418   4.187376
    20  H    7.371341   5.968237   5.321311   6.087948   3.831272
    21  H    6.126906   5.148489   3.844781   3.697482   3.158357
                    6          7          8          9         10
     6  C    0.000000
     7  C    1.396731   0.000000
     8  C    2.537547   1.504581   0.000000
     9  C    2.365688   1.394873   2.538645   0.000000
    10  N    2.754099   2.406848   3.780271   1.329522   0.000000
    11  C    2.392704   2.763118   4.267137   2.292678   1.325282
    12  O    3.624043   4.091281   5.594481   3.482791   2.258245
    13  H    4.641602   6.016459   6.973047   6.685385   6.324953
    14  H    4.641811   6.016582   6.973242   6.685361   6.324845
    15  H    4.508602   5.861581   6.517368   6.816863   6.755810
    16  H    1.091430   2.163400   2.763996   3.370701   3.845362
    17  H    2.867847   2.162972   1.100850   3.266344   4.429783
    18  H    3.443853   2.160621   1.099108   2.649615   3.978854
    19  H    2.867948   2.162991   1.100848   3.266276   4.429749
    20  H    3.373487   2.161951   2.762047   1.096573   2.060879
    21  H    4.233287   4.420380   5.885808   3.523972   2.196225
                   11         12         13         14         15
    11  C    0.000000
    12  O    1.329272   0.000000
    13  H    5.108840   5.229333   0.000000
    14  H    5.108769   5.229219   1.783060   0.000000
    15  H    5.682007   6.120762   1.800617   1.800589   0.000000
    16  H    3.382579   4.517875   4.270950   4.271323   3.788366
    17  H    4.788245   6.098364   6.863881   7.090842   6.383958
    18  H    4.755715   6.044191   7.984542   7.984702   7.599940
    19  H    4.788284   6.098456   7.090539   6.864056   6.383752
    20  H    3.261468   4.319116   7.770714   7.770642   7.868385
    21  H    1.841903   0.967504   6.183913   6.183727   7.076273
                   16         17         18         19         20
    16  H    0.000000
    17  H    2.832713   0.000000
    18  H    3.825725   1.776777   0.000000
    19  H    2.832867   1.774380   1.776780   0.000000
    20  H    4.300732   3.527181   2.410513   3.527012   0.000000
    21  H    5.217087   6.454278   6.170288   6.454330   4.157688
                   21
    21  H    0.000000
 Stoichiometry    C8H9NO3
 Framework group  C1[X(C8H9NO3)]
 Deg. of freedom    57
 Full point group                 C1      NOp   1
 Largest Abelian subgroup         C1      NOp   1
 Largest concise Abelian subgroup C1      NOp   1
                         Standard orientation:                         
 ---------------------------------------------------------------------
 Center     Atomic      Atomic             Coordinates (Angstroms)
 Number     Number       Type             X           Y           Z
 ---------------------------------------------------------------------
      1          6           0       -3.446978   -1.380064   -0.000339
      2          8           0       -2.044568   -1.184353   -0.000329
      3          6           0       -1.628220    0.094708    0.000201
      4          8           0       -2.390341    1.023317    0.000621
      5          6           0       -0.140060    0.179259    0.000131
      6          6           0        0.648541   -0.971700    0.000211
      7          6           0        2.043491   -0.901178    0.000071
      8          6           0        2.903263   -2.135907    0.000191
      9          6           0        2.587890    0.383072   -0.000219
     10          7           0        1.865259    1.499062   -0.000309
     11          6           0        0.542419    1.418650   -0.000119
     12          8           0       -0.123333    2.569189   -0.000039
     13          1           0       -3.906529   -0.929225    0.891281
     14          1           0       -3.906559   -0.928915   -0.891779
     15          1           0       -3.605827   -2.464295   -0.000549
     16          1           0        0.146173   -1.940640    0.000401
     17          1           0        2.709243   -2.757997    0.887451
     18          1           0        3.971362   -1.876676    0.000171
     19          1           0        2.709253   -2.758197   -0.886929
     20          1           0        3.676410    0.515724   -0.000439
     21          1           0        0.553517    3.260520   -0.000239
 ---------------------------------------------------------------------
 Rotational constants (GHZ):           1.4630714           0.7080778           0.4800425
 Unable to Open any file for archive entry.
 1\1\GINC-NOTCH319\FOpt\RwB97XD\def2SVP\C8H9N1O3\U6053008\12-Jul-2024\0
 \\#N OPT FREQ=NORAMAN Integral(Ultrafine) wB97XD def2SVP\\12387732_3\\
 0,1\C,-3.44698,-1.38006,-0.00034\O,-2.04457,-1.18435,-0.00033\C,-1.628
 22,0.09471,0.0002\O,-2.39034,1.02332,0.00062\C,-0.14006,0.17926,0.0001
 3\C,0.64854,-0.9717,0.00021\C,2.04349,-0.90118,0.00007\C,2.90326,-2.13
 591,0.00019\C,2.58789,0.38307,-0.00022\N,1.86526,1.49906,-0.00031\C,0.
 54242,1.41865,-0.00012\O,-0.12333,2.56919,-0.00004\H,-3.90653,-0.92922
 ,0.89128\H,-3.90656,-0.92891,-0.89178\H,-3.60583,-2.46429,-0.00055\H,0
 .14617,-1.94064,0.0004\H,2.70924,-2.758,0.88745\H,3.97136,-1.87668,0.0
 0017\H,2.70925,-2.7582,-0.88693\H,3.67641,0.51572,-0.00044\H,0.55352,3
 .26052,-0.00024\\Version=ES64L-G16RevC.01\State=1-A\HF=-590.0907715\RM
 SD=6.451e-09\RMSF=1.473e-05\Dipole=0.5369791,-1.118696,-0.0002787\Quad
 rupole=2.0154664,0.8390336,-2.8545,4.0741228,0.0021837,-0.0020564\PG=C
 01 [X(C8H9N1O3)]\\@
 The archive entry for this job was punched.


 In the beginning the Universe was created.
 This has made a lot of people very angry
 and been widely regarded as a bad move.
                               -D.Adams
 Job cpu time:       0 days  0 hours  5 minutes 51.0 seconds.
 Elapsed time:       0 days  0 hours  0 minutes 22.6 seconds.
 File lengths (MBytes):  RWF=     44 Int=      0 D2E=      0 Chk=      5 Scr=      2
 Normal termination of Gaussian 16 at Fri Jul 12 13:10:55 2024.
 Link1:  Proceeding to internal job step number  2.
 --------------------------------------------------------------------
 #N Geom=AllCheck Guess=TCheck SCRF=Check GenChk RwB97XD/def2SVP Freq
 --------------------------------------------------------------------
 1/10=4,29=7,30=1,38=1,40=1/1,3;
 2/12=2,40=1/2;
 3/5=43,7=101,11=2,14=-4,25=1,30=1,70=2,71=2,74=-58,75=-5,116=1,140=1/1,2,3;
 4/5=101/1;
 5/5=2,38=6,98=1/2;
 8/6=4,10=90,11=11/1;
 11/6=1,8=1,9=11,15=111,16=1/1,2,10;
 10/6=1/2;
 6/7=2,8=2,9=2,10=2,28=1/1;
 7/8=1,10=1,25=1/1,2,3,16;
 1/10=4,30=1/3;
 99//99;
 Structure from the checkpoint file:  "12387732_3.chk"
 ----------
 12387732_3
 ----------
 Charge =  0 Multiplicity = 1
 Redundant internal coordinates found in file.  (old form).
 C,0,-3.44698,-1.38006,-0.00034
 O,0,-2.04457,-1.18435,-0.00033
 C,0,-1.62822,0.09471,0.0002
 O,0,-2.39034,1.02332,0.00062
 C,0,-0.14006,0.17926,0.00013
 C,0,0.64854,-0.9717,0.00021
 C,0,2.04349,-0.90118,0.00007
 C,0,2.90326,-2.13591,0.00019
 C,0,2.58789,0.38307,-0.00022
 N,0,1.86526,1.49906,-0.00031
 C,0,0.54242,1.41865,-0.00012
 O,0,-0.12333,2.56919,-0.00004
 H,0,-3.90653,-0.92922,0.89128
 H,0,-3.90656,-0.92891,-0.89178
 H,0,-3.60583,-2.46429,-0.00055
 H,0,0.14617,-1.94064,0.0004
 H,0,2.70924,-2.758,0.88745
 H,0,3.97136,-1.87668,0.00017
 H,0,2.70925,-2.7582,-0.88693
 H,0,3.67641,0.51572,-0.00044
 H,0,0.55352,3.26052,-0.00024
 Recover connectivity data from disk.

 GradGradGradGradGradGradGradGradGradGradGradGradGradGradGradGradGradGrad
 Berny optimization.
 Initialization pass.
                           ----------------------------
                           !    Initial Parameters    !
                           ! (Angstroms and Degrees)  !
 --------------------------                            --------------------------
 ! Name  Definition              Value          Derivative Info.                !
 --------------------------------------------------------------------------------
 ! R1    R(1,2)                  1.416          calculate D2E/DX2 analytically  !
 ! R2    R(1,13)                 1.0997         calculate D2E/DX2 analytically  !
 ! R3    R(1,14)                 1.0997         calculate D2E/DX2 analytically  !
 ! R4    R(1,15)                 1.0958         calculate D2E/DX2 analytically  !
 ! R5    R(2,3)                  1.3451         calculate D2E/DX2 analytically  !
 ! R6    R(3,4)                  1.2013         calculate D2E/DX2 analytically  !
 ! R7    R(3,5)                  1.4906         calculate D2E/DX2 analytically  !
 ! R8    R(5,6)                  1.3952         calculate D2E/DX2 analytically  !
 ! R9    R(5,11)                 1.4149         calculate D2E/DX2 analytically  !
 ! R10   R(6,7)                  1.3967         calculate D2E/DX2 analytically  !
 ! R11   R(6,16)                 1.0914         calculate D2E/DX2 analytically  !
 ! R12   R(7,8)                  1.5046         calculate D2E/DX2 analytically  !
 ! R13   R(7,9)                  1.3949         calculate D2E/DX2 analytically  !
 ! R14   R(8,17)                 1.1008         calculate D2E/DX2 analytically  !
 ! R15   R(8,18)                 1.0991         calculate D2E/DX2 analytically  !
 ! R16   R(8,19)                 1.1008         calculate D2E/DX2 analytically  !
 ! R17   R(9,10)                 1.3295         calculate D2E/DX2 analytically  !
 ! R18   R(9,20)                 1.0966         calculate D2E/DX2 analytically  !
 ! R19   R(10,11)                1.3253         calculate D2E/DX2 analytically  !
 ! R20   R(11,12)                1.3293         calculate D2E/DX2 analytically  !
 ! R21   R(12,21)                0.9675         calculate D2E/DX2 analytically  !
 ! A1    A(2,1,13)             110.928          calculate D2E/DX2 analytically  !
 ! A2    A(2,1,14)             110.9281         calculate D2E/DX2 analytically  !
 ! A3    A(2,1,15)             106.2795         calculate D2E/DX2 analytically  !
 ! A4    A(13,1,14)            108.3239         calculate D2E/DX2 analytically  !
 ! A5    A(13,1,15)            110.1941         calculate D2E/DX2 analytically  !
 ! A6    A(14,1,15)            110.192          calculate D2E/DX2 analytically  !
 ! A7    A(1,2,3)              115.9752         calculate D2E/DX2 analytically  !
 ! A8    A(2,3,4)              122.5932         calculate D2E/DX2 analytically  !
 ! A9    A(2,3,5)              111.2825         calculate D2E/DX2 analytically  !
 ! A10   A(4,3,5)              126.1243         calculate D2E/DX2 analytically  !
 ! A11   A(3,5,6)              121.1659         calculate D2E/DX2 analytically  !
 ! A12   A(3,5,11)             122.0915         calculate D2E/DX2 analytically  !
 ! A13   A(6,5,11)             116.7426         calculate D2E/DX2 analytically  !
 ! A14   A(5,6,7)              121.5236         calculate D2E/DX2 analytically  !
 ! A15   A(5,6,16)             118.1768         calculate D2E/DX2 analytically  !
 ! A16   A(7,6,16)             120.2996         calculate D2E/DX2 analytically  !
 ! A17   A(6,7,8)              121.9563         calculate D2E/DX2 analytically  !
 ! A18   A(6,7,9)              115.8664         calculate D2E/DX2 analytically  !
 ! A19   A(8,7,9)              122.1773         calculate D2E/DX2 analytically  !
 ! A20   A(7,8,17)             111.2906         calculate D2E/DX2 analytically  !
 ! A21   A(7,8,18)             111.2083         calculate D2E/DX2 analytically  !
 ! A22   A(7,8,19)             111.2923         calculate D2E/DX2 analytically  !
 ! A23   A(17,8,18)            107.7323         calculate D2E/DX2 analytically  !
 ! A24   A(17,8,19)            107.3973         calculate D2E/DX2 analytically  !
 ! A25   A(18,8,19)            107.7326         calculate D2E/DX2 analytically  !
 ! A26   A(7,9,10)             124.1037         calculate D2E/DX2 analytically  !
 ! A27   A(7,9,20)             119.9203         calculate D2E/DX2 analytically  !
 ! A28   A(10,9,20)            115.9761         calculate D2E/DX2 analytically  !
 ! A29   A(9,10,11)            119.4455         calculate D2E/DX2 analytically  !
 ! A30   A(5,11,10)            122.3182         calculate D2E/DX2 analytically  !
 ! A31   A(5,11,12)            121.1048         calculate D2E/DX2 analytically  !
 ! A32   A(10,11,12)           116.577          calculate D2E/DX2 analytically  !
 ! A33   A(11,12,21)           105.5509         calculate D2E/DX2 analytically  !
 ! D1    D(13,1,2,3)           -60.2045         calculate D2E/DX2 analytically  !
 ! D2    D(14,1,2,3)            60.2341         calculate D2E/DX2 analytically  !
 ! D3    D(15,1,2,3)          -179.9864         calculate D2E/DX2 analytically  !
 ! D4    D(1,2,3,4)             -0.0012         calculate D2E/DX2 analytically  !
 ! D5    D(1,2,3,5)           -179.9989         calculate D2E/DX2 analytically  !
 ! D6    D(2,3,5,6)             -0.0307         calculate D2E/DX2 analytically  !
 ! D7    D(2,3,5,11)           179.9645         calculate D2E/DX2 analytically  !
 ! D8    D(4,3,5,6)            179.9717         calculate D2E/DX2 analytically  !
 ! D9    D(4,3,5,11)            -0.0331         calculate D2E/DX2 analytically  !
 ! D10   D(3,5,6,7)            179.9964         calculate D2E/DX2 analytically  !
 ! D11   D(3,5,6,16)            -0.0044         calculate D2E/DX2 analytically  !
 ! D12   D(11,5,6,7)             0.0009         calculate D2E/DX2 analytically  !
 ! D13   D(11,5,6,16)         -179.9999         calculate D2E/DX2 analytically  !
 ! D14   D(3,5,11,10)         -179.9935         calculate D2E/DX2 analytically  !
 ! D15   D(3,5,11,12)            0.0133         calculate D2E/DX2 analytically  !
 ! D16   D(6,5,11,10)            0.0019         calculate D2E/DX2 analytically  !
 ! D17   D(6,5,11,12)         -179.9913         calculate D2E/DX2 analytically  !
 ! D18   D(5,6,7,8)            179.9984         calculate D2E/DX2 analytically  !
 ! D19   D(5,6,7,9)             -0.0031         calculate D2E/DX2 analytically  !
 ! D20   D(16,6,7,8)            -0.0008         calculate D2E/DX2 analytically  !
 ! D21   D(16,6,7,9)           179.9977         calculate D2E/DX2 analytically  !
 ! D22   D(6,7,8,17)           -59.8712         calculate D2E/DX2 analytically  !
 ! D23   D(6,7,8,18)          -179.9933         calculate D2E/DX2 analytically  !
 ! D24   D(6,7,8,19)            59.8831         calculate D2E/DX2 analytically  !
 ! D25   D(9,7,8,17)           120.1304         calculate D2E/DX2 analytically  !
 ! D26   D(9,7,8,18)             0.0083         calculate D2E/DX2 analytically  !
 ! D27   D(9,7,8,19)          -120.1153         calculate D2E/DX2 analytically  !
 ! D28   D(6,7,9,10)             0.0028         calculate D2E/DX2 analytically  !
 ! D29   D(6,7,9,20)          -179.9942         calculate D2E/DX2 analytically  !
 ! D30   D(8,7,9,10)          -179.9987         calculate D2E/DX2 analytically  !
 ! D31   D(8,7,9,20)             0.0043         calculate D2E/DX2 analytically  !
 ! D32   D(7,9,10,11)           -0.0001         calculate D2E/DX2 analytically  !
 ! D33   D(20,9,10,11)         179.9969         calculate D2E/DX2 analytically  !
 ! D34   D(9,10,11,5)           -0.0023         calculate D2E/DX2 analytically  !
 ! D35   D(9,10,11,12)         179.9912         calculate D2E/DX2 analytically  !
 ! D36   D(5,11,12,21)         179.9993         calculate D2E/DX2 analytically  !
 ! D37   D(10,11,12,21)          0.0058         calculate D2E/DX2 analytically  !
 --------------------------------------------------------------------------------
 Trust Radius=3.00D-01 FncErr=1.00D-07 GrdErr=1.00D-07 EigMax=2.50D+02 EigMin=1.00D-04
 Number of steps in this run=      2 maximum allowed number of steps=      2.
 GradGradGradGradGradGradGradGradGradGradGradGradGradGradGradGradGradGrad

                          Input orientation:                          
 ---------------------------------------------------------------------
 Center     Atomic      Atomic             Coordinates (Angstroms)
 Number     Number       Type             X           Y           Z
 ---------------------------------------------------------------------
      1          6           0       -3.446980   -1.380060   -0.000340
      2          8           0       -2.044570   -1.184350   -0.000330
      3          6           0       -1.628220    0.094710    0.000200
      4          8           0       -2.390340    1.023320    0.000620
      5          6           0       -0.140060    0.179260    0.000130
      6          6           0        0.648540   -0.971700    0.000210
      7          6           0        2.043490   -0.901180    0.000070
      8          6           0        2.903260   -2.135910    0.000190
      9          6           0        2.587890    0.383070   -0.000220
     10          7           0        1.865260    1.499060   -0.000310
     11          6           0        0.542420    1.418650   -0.000120
     12          8           0       -0.123330    2.569190   -0.000040
     13          1           0       -3.906530   -0.929220    0.891280
     14          1           0       -3.906560   -0.928910   -0.891780
     15          1           0       -3.605830   -2.464290   -0.000550
     16          1           0        0.146170   -1.940640    0.000400
     17          1           0        2.709240   -2.758000    0.887450
     18          1           0        3.971360   -1.876680    0.000170
     19          1           0        2.709250   -2.758200   -0.886930
     20          1           0        3.676410    0.515720   -0.000440
     21          1           0        0.553520    3.260520   -0.000240
 ---------------------------------------------------------------------
                    Distance matrix (angstroms):
                    1          2          3          4          5
     1  C    0.000000
     2  O    1.416000   0.000000
     3  C    2.341545   1.345118   0.000000
     4  O    2.625400   2.234584   1.201309   0.000000
     5  C    3.656118   2.342347   1.490560   2.403372   0.000000
     6  C    4.115828   2.701493   2.514133   3.635230   1.395206
     7  C    5.511314   4.097856   3.804373   4.833482   2.436235
     8  C    6.395065   5.038501   5.050740   6.164652   3.823847
     9  C    6.287152   4.890449   4.225960   5.019232   2.735553
    10  N    6.042286   4.742094   3.765183   4.282109   2.400663
    11  C    4.873201   3.669895   2.542537   2.959285   1.414873
    12  O    5.161708   4.216660   2.896160   2.743911   2.389989
    13  H    1.099740   2.080133   2.652009   2.627645   4.026062
    14  H    1.099734   2.080130   2.652218   2.628023   4.026173
    15  H    1.095805   2.018856   3.234103   3.693351   4.358890
    16  H    3.636616   2.317610   2.700205   3.901146   2.139136
    17  H    6.370709   5.085591   5.266757   6.410192   4.187284
    18  H    7.434945   6.055637   5.936470   6.991511   4.596810
    19  H    6.370595   5.085457   5.266853   6.410418   4.187376
    20  H    7.371341   5.968237   5.321311   6.087948   3.831272
    21  H    6.126906   5.148489   3.844781   3.697482   3.158357
                    6          7          8          9         10
     6  C    0.000000
     7  C    1.396731   0.000000
     8  C    2.537547   1.504581   0.000000
     9  C    2.365688   1.394873   2.538645   0.000000
    10  N    2.754099   2.406848   3.780271   1.329522   0.000000
    11  C    2.392704   2.763118   4.267137   2.292678   1.325282
    12  O    3.624043   4.091281   5.594481   3.482791   2.258245
    13  H    4.641602   6.016459   6.973047   6.685385   6.324953
    14  H    4.641811   6.016582   6.973242   6.685361   6.324845
    15  H    4.508602   5.861581   6.517368   6.816863   6.755810
    16  H    1.091430   2.163400   2.763996   3.370701   3.845362
    17  H    2.867847   2.162972   1.100850   3.266344   4.429783
    18  H    3.443853   2.160621   1.099108   2.649615   3.978854
    19  H    2.867948   2.162991   1.100848   3.266276   4.429749
    20  H    3.373487   2.161951   2.762047   1.096573   2.060879
    21  H    4.233287   4.420380   5.885808   3.523972   2.196225
                   11         12         13         14         15
    11  C    0.000000
    12  O    1.329272   0.000000
    13  H    5.108840   5.229333   0.000000
    14  H    5.108769   5.229219   1.783060   0.000000
    15  H    5.682007   6.120762   1.800617   1.800589   0.000000
    16  H    3.382579   4.517875   4.270950   4.271323   3.788366
    17  H    4.788245   6.098364   6.863881   7.090842   6.383958
    18  H    4.755715   6.044191   7.984542   7.984702   7.599940
    19  H    4.788284   6.098456   7.090539   6.864056   6.383752
    20  H    3.261468   4.319116   7.770714   7.770642   7.868385
    21  H    1.841903   0.967504   6.183913   6.183727   7.076273
                   16         17         18         19         20
    16  H    0.000000
    17  H    2.832713   0.000000
    18  H    3.825725   1.776777   0.000000
    19  H    2.832867   1.774380   1.776780   0.000000
    20  H    4.300732   3.527181   2.410513   3.527012   0.000000
[...]
 Alpha virt. eigenvalues --    0.32479   0.33614   0.34044   0.35886   0.36066
 Alpha virt. eigenvalues --    0.36482   0.38354   0.39498   0.40656   0.40978
 Alpha virt. eigenvalues --    0.42355   0.43079   0.43374   0.43657   0.44111
 Alpha virt. eigenvalues --    0.45218   0.46259   0.46578   0.46724   0.49523
 Alpha virt. eigenvalues --    0.50000   0.51328   0.51816   0.52383   0.52649
 Alpha virt. eigenvalues --    0.53704   0.53966   0.55335   0.56456   0.56516
 Alpha virt. eigenvalues --    0.57638   0.59055   0.60492   0.60868   0.61022
 Alpha virt. eigenvalues --    0.61850   0.63907   0.65144   0.66050   0.66228
 Alpha virt. eigenvalues --    0.67859   0.68597   0.70336   0.70557   0.72941
 Alpha virt. eigenvalues --    0.73652   0.74315   0.75454   0.75503   0.75939
 Alpha virt. eigenvalues --    0.78681   0.78823   0.79525   0.82082   0.83229
 Alpha virt. eigenvalues --    0.85901   0.87963   0.88279   0.89025   0.90783
 Alpha virt. eigenvalues --    0.91084   0.91634   0.93141   0.96947   0.98039
 Alpha virt. eigenvalues --    0.98370   1.00272   1.01376   1.02455   1.03326
 Alpha virt. eigenvalues --    1.05563   1.06303   1.09554   1.10413   1.11746
 Alpha virt. eigenvalues --    1.13292   1.14230   1.15655   1.18711   1.20136
 Alpha virt. eigenvalues --    1.22658   1.24689   1.26733   1.28827   1.30871
 Alpha virt. eigenvalues --    1.32575   1.34372   1.36703   1.37618   1.39816
 Alpha virt. eigenvalues --    1.41261   1.41719   1.42930   1.44039   1.46469
 Alpha virt. eigenvalues --    1.49816   1.50712   1.52414   1.55757   1.56295
 Alpha virt. eigenvalues --    1.56341   1.57425   1.58872   1.59716   1.60575
 Alpha virt. eigenvalues --    1.60953   1.61069   1.64016   1.64588   1.65419
 Alpha virt. eigenvalues --    1.66261   1.66698   1.70215   1.71222   1.71629
 Alpha virt. eigenvalues --    1.74086   1.74673   1.75865   1.80124   1.81910
 Alpha virt. eigenvalues --    1.82689   1.84041   1.85886   1.85937   1.90454
 Alpha virt. eigenvalues --    1.90562   1.93790   1.96932   1.99764   2.00397
 Alpha virt. eigenvalues --    2.00910   2.02086   2.04082   2.04897   2.07165
 Alpha virt. eigenvalues --    2.07531   2.08492   2.09288   2.11819   2.12227
 Alpha virt. eigenvalues --    2.14159   2.15457   2.16788   2.16791   2.19184
 Alpha virt. eigenvalues --    2.19204   2.22242   2.24240   2.26049   2.26656
 Alpha virt. eigenvalues --    2.29259   2.31116   2.31965   2.33304   2.35784
 Alpha virt. eigenvalues --    2.36611   2.40476   2.42492   2.42740   2.43339
 Alpha virt. eigenvalues --    2.45354   2.46251   2.47230   2.48856   2.49324
 Alpha virt. eigenvalues --    2.51847   2.56710   2.57670   2.60024   2.60032
 Alpha virt. eigenvalues --    2.61216   2.62791   2.62809   2.64125   2.68598
 Alpha virt. eigenvalues --    2.68769   2.71916   2.75098   2.75306   2.76428
 Alpha virt. eigenvalues --    2.78040   2.80467   2.82770   2.83443   2.85215
 Alpha virt. eigenvalues --    2.87071   2.88277   2.89937   2.91049   2.91219
 Alpha virt. eigenvalues --    2.92099   2.94421   2.97409   2.97595   2.99793
 Alpha virt. eigenvalues --    3.00846   3.00913   3.02209   3.03492   3.04514
 Alpha virt. eigenvalues --    3.06114   3.10015   3.10677   3.12720   3.12882
 Alpha virt. eigenvalues --    3.13470   3.15368   3.19081   3.19767   3.21483
 Alpha virt. eigenvalues --    3.21789   3.24235   3.24465   3.25085   3.26866
 Alpha virt. eigenvalues --    3.27762   3.28626   3.31585   3.31590   3.32810
 Alpha virt. eigenvalues --    3.33623   3.34288   3.35891   3.36059   3.37404
 Alpha virt. eigenvalues --    3.37424   3.39930   3.41057   3.41698   3.41764
 Alpha virt. eigenvalues --    3.43283   3.44483   3.45293   3.46319   3.46591
 Alpha virt. eigenvalues --    3.48067   3.48811   3.50379   3.52170   3.55600
 Alpha virt. eigenvalues --    3.57990   3.58436   3.59884   3.65367   3.65422
 Alpha virt. eigenvalues --    3.65890   3.69812   3.70215   3.71212   3.75636
 Alpha virt. eigenvalues --    3.75983   3.76364   3.81180   3.83825   3.84358
 Alpha virt. eigenvalues --    3.87270   3.88159   3.93236   3.95250   3.97056
 Alpha virt. eigenvalues --    4.00359   4.02479   4.07940   4.11332   4.15721
 Alpha virt. eigenvalues --    4.18514   4.20204   4.21170   4.21873   4.25085
 Alpha virt. eigenvalues --    4.25378   4.29712   4.29895   4.35889   4.38439
 Alpha virt. eigenvalues --    4.40296   4.42365   4.44885   4.46357   4.49682
 Alpha virt. eigenvalues --    4.50674   4.53496   4.58696   4.60072   4.62626
 Alpha virt. eigenvalues --    4.63308   4.65951   4.67662   4.73721   4.77478
 Alpha virt. eigenvalues --    4.82339   4.93961   4.97309   4.98351   4.99961
 Alpha virt. eigenvalues --    5.09215   5.12444   5.17554   5.25606   5.27549
 Alpha virt. eigenvalues --    5.27991   5.29122   5.30996   5.31770   5.38343
 Alpha virt. eigenvalues --    5.39153   5.43706   5.44616   5.49773   5.53550
 Alpha virt. eigenvalues --    5.60155   5.61253   5.61681   5.70803   5.77692
 Alpha virt. eigenvalues --    5.79904   5.82211   5.86316   5.93951   5.96556
 Alpha virt. eigenvalues --    5.99827   6.06974   6.07396   6.23826   6.30713
 Alpha virt. eigenvalues --    6.38590   6.44421   6.45924   6.51972   6.53994
 Alpha virt. eigenvalues --    6.66493   6.69805   6.74663   6.81219   6.84854
 Alpha virt. eigenvalues --    6.85991   6.92721   6.98070   7.06251   7.09279
 Alpha virt. eigenvalues --    7.17280   7.24788   7.37717   7.46370   7.54864
 Alpha virt. eigenvalues --   22.44991  22.48038  22.66432  22.89028  23.09401
 Alpha virt. eigenvalues --   23.18031  23.36783  23.65428  32.62974  44.00756
 Alpha virt. eigenvalues --   44.09670  44.28828
          Condensed to atoms (all electrons):
               1          2          3          4          5          6
     1  C    4.765456   0.225732  -0.046509   0.008286   0.009719  -0.002193
     2  O    0.225732   7.990076   0.404136  -0.085826  -0.198453   0.041580
     3  C   -0.046509   0.404136   4.447263   0.675610   0.250974  -0.030948
     4  O    0.008286  -0.085826   0.675610   7.837790  -0.103801   0.007855
     5  C    0.009719  -0.198453   0.250974  -0.103801   5.660003   0.288996
     6  C   -0.002193   0.041580  -0.030948   0.007855   0.288996   5.271569
     7  C   -0.000058  -0.001033   0.004868  -0.000193   0.022484   0.338463
     8  C   -0.000001  -0.000432  -0.000538  -0.000000   0.016252  -0.083267
     9  C   -0.000008   0.000702   0.001509   0.000354  -0.033847  -0.002577
    10  N    0.000017  -0.000274   0.003018  -0.000133  -0.086710  -0.052772
    11  C   -0.000136  -0.005749  -0.071637  -0.006539   0.334642  -0.004027
    12  O    0.000039  -0.000147   0.004766  -0.009851  -0.109744  -0.005026
    13  H    0.420074  -0.035478  -0.007734   0.004557  -0.003022   0.000605
    14  H    0.420064  -0.035461  -0.007734   0.004550  -0.003032   0.000608
    15  H    0.395111  -0.033200   0.003626   0.001864   0.005005  -0.001436
    16  H   -0.000483   0.019203  -0.013069   0.000420  -0.033770   0.430427
    17  H   -0.000000  -0.000007   0.000000  -0.000000   0.000300  -0.008393
    18  H    0.000000   0.000001  -0.000024  -0.000000  -0.001003   0.016021
    19  H   -0.000000  -0.000007   0.000000  -0.000000   0.000297  -0.008400
    20  H    0.000000  -0.000001   0.000085  -0.000000  -0.004561   0.012529
    21  H   -0.000008   0.000027  -0.000815   0.000589   0.025495  -0.000450
               7          8          9         10         11         12
     1  C   -0.000058  -0.000001  -0.000008   0.000017  -0.000136   0.000039
     2  O   -0.001033  -0.000432   0.000702  -0.000274  -0.005749  -0.000147
     3  C    0.004868  -0.000538   0.001509   0.003018  -0.071637   0.004766
     4  O   -0.000193  -0.000000   0.000354  -0.000133  -0.006539  -0.009851
     5  C    0.022484   0.016252  -0.033847  -0.086710   0.334642  -0.109744
     6  C    0.338463  -0.083267  -0.002577  -0.052772  -0.004027  -0.005026
     7  C    5.134945   0.284395   0.529587  -0.065868  -0.073631   0.004562
     8  C    0.284395   4.955009  -0.054791   0.009444  -0.002671   0.000081
     9  C    0.529587  -0.054791   4.708481   0.543023  -0.080437  -0.002211
    10  N   -0.065868   0.009444   0.543023   6.555238   0.528666  -0.090471
    11  C   -0.073631  -0.002671  -0.080437   0.528666   4.674132   0.432398
    12  O    0.004562   0.000081  -0.002211  -0.090471   0.432398   7.855220
    13  H    0.000007  -0.000002   0.000003  -0.000000  -0.000167  -0.000006
    14  H    0.000008  -0.000002   0.000003  -0.000000  -0.000165  -0.000006
    15  H   -0.000056   0.000005  -0.000006   0.000000   0.000131   0.000001
    16  H   -0.053429  -0.003941   0.005129  -0.000968   0.009449  -0.000106
    17  H   -0.034879   0.412556  -0.001629  -0.000221   0.000024  -0.000002
    18  H   -0.062162   0.422798  -0.003347   0.000223   0.000551  -0.000001
    19  H   -0.034863   0.412547  -0.001630  -0.000221   0.000025  -0.000002
    20  H   -0.082582  -0.005197   0.435457  -0.025326   0.006082  -0.000122
    21  H    0.000679  -0.000019   0.001893   0.012143  -0.040741   0.289011
              13         14         15         16         17         18
     1  C    0.420074   0.420064   0.395111  -0.000483  -0.000000   0.000000
     2  O   -0.035478  -0.035461  -0.033200   0.019203  -0.000007   0.000001
     3  C   -0.007734  -0.007734   0.003626  -0.013069   0.000000  -0.000024
     4  O    0.004557   0.004550   0.001864   0.000420  -0.000000  -0.000000
     5  C   -0.003022  -0.003032   0.005005  -0.033770   0.000300  -0.001003
     6  C    0.000605   0.000608  -0.001436   0.430427  -0.008393   0.016021
     7  C    0.000007   0.000008  -0.000056  -0.053429  -0.034879  -0.062162
     8  C   -0.000002  -0.000002   0.000005  -0.003941   0.412556   0.422798
     9  C    0.000003   0.000003  -0.000006   0.005129  -0.001629  -0.003347
    10  N   -0.000000  -0.000000   0.000000  -0.000968  -0.000221   0.000223
    11  C   -0.000167  -0.000165   0.000131   0.009449   0.000024   0.000551
    12  O   -0.000006  -0.000006   0.000001  -0.000106  -0.000002  -0.000001
    13  H    0.549908  -0.036994  -0.024637   0.000151   0.000000   0.000000
    14  H   -0.036994   0.549928  -0.024639   0.000152  -0.000000   0.000000
    15  H   -0.024637  -0.024639   0.550407  -0.000450   0.000000  -0.000000
    16  H    0.000151   0.000152  -0.000450   0.484686  -0.000038   0.000193
    17  H    0.000000  -0.000000   0.000000  -0.000038   0.552493  -0.020471
    18  H    0.000000   0.000000  -0.000000   0.000193  -0.020471   0.541644
    19  H   -0.000000   0.000000   0.000000  -0.000036  -0.033088  -0.020469
    20  H    0.000000   0.000000  -0.000000  -0.000084  -0.000065   0.003440
    21  H   -0.000000  -0.000000   0.000000   0.000020   0.000000   0.000000
              19         20         21
     1  C   -0.000000   0.000000  -0.000008
     2  O   -0.000007  -0.000001   0.000027
     3  C    0.000000   0.000085  -0.000815
     4  O   -0.000000  -0.000000   0.000589
     5  C    0.000297  -0.004561   0.025495
     6  C   -0.008400   0.012529  -0.000450
     7  C   -0.034863  -0.082582   0.000679
     8  C    0.412547  -0.005197  -0.000019
     9  C   -0.001630   0.435457   0.001893
    10  N   -0.000221  -0.025326   0.012143
    11  C    0.000025   0.006082  -0.040741
    12  O   -0.000002  -0.000122   0.289011
    13  H   -0.000000   0.000000  -0.000000
    14  H    0.000000   0.000000  -0.000000
    15  H    0.000000  -0.000000   0.000000
    16  H   -0.000036  -0.000084   0.000020
    17  H   -0.033088  -0.000065   0.000000
    18  H   -0.020469   0.003440   0.000000
    19  H    0.552490  -0.000065   0.000000
    20  H   -0.000065   0.537157  -0.000312
    21  H    0.000000  -0.000312   0.380998
 Mulliken charges:
               1
     1  C   -0.195102
     2  O   -0.285391
     3  C    0.383153
     4  O   -0.335530
     5  C   -0.036223
     6  C   -0.209163
     7  C    0.088757
     8  C   -0.362227
     9  C   -0.045657
    10  N   -0.328807
    11  C    0.299801
    12  O   -0.368384
    13  H    0.132735
    14  H    0.132723
    15  H    0.128274
    16  H    0.156542
    17  H    0.133418
    18  H    0.122605
    19  H    0.133421
    20  H    0.123566
    21  H    0.331489
 Sum of Mulliken charges =  -0.00000
 Mulliken charges with hydrogens summed into heavy atoms:
               1
     1  C    0.198629
     2  O   -0.285391
     3  C    0.383153
     4  O   -0.335530
     5  C   -0.036223
     6  C   -0.052621
     7  C    0.088757
     8  C    0.027217
     9  C    0.077909
    10  N   -0.328807
    11  C    0.299801
    12  O   -0.036895
 Electronic spatial extent (au):  <R**2>=           2268.2026
 Charge=              0.0000 electrons
 Dipole moment (field-independent basis, Debye):
    X=              1.5376    Y=             -2.9718    Z=             -0.0007  Tot=              3.3460
 Quadrupole moment (field-independent basis, Debye-Ang):
   XX=            -63.4823   YY=            -64.9024   ZZ=            -69.8008
   XY=              5.4556   XZ=              0.0030   YZ=             -0.0027
 Traceless Quadrupole moment (field-independent basis, Debye-Ang):
   XX=              2.5795   YY=              1.1595   ZZ=             -3.7390
   XY=              5.4556   XZ=              0.0030   YZ=             -0.0027
 Octapole moment (field-independent basis, Debye-Ang**2):
  XXX=            -18.1075  YYY=             20.2554  ZZZ=              0.0006  XYY=              1.6571
  XXY=            -32.4033  XXZ=             -0.0105  XZZ=            -10.5718  YZZ=              2.6834
  YYZ=             -0.0035  XYZ=              0.0035
 Hexadecapole moment (field-independent basis, Debye-Ang**3):
 XXXX=          -1764.7460 YYYY=           -796.3280 ZZZZ=            -82.8915 XXXY=             63.0870
 XXXZ=              0.0209 YYYX=             39.0392 YYYZ=             -0.0071 ZZZX=             -0.0007
 ZZZY=              0.0016 XXYY=           -483.3128 XXZZ=           -337.3483 YYZZ=           -168.2311
 XXYZ=             -0.0018 YYXZ=              0.0085 ZZXY=             -0.6802
 N-N= 6.896851204875D+02 E-N=-2.760494723735D+03  KE= 5.879351380987D+02
 Breneman (CHELPG) radii used.
 Read replacement radii for each type of atom:
 Atom Element Radius
    1     6    1.50
    2     8    1.70
    3     6    1.50
    4     8    1.70
    5     6    1.50
    6     6    1.50
    7     6    1.50
    8     6    1.50
    9     6    1.50
   10     7    1.70
   11     6    1.50
   12     8    1.70
   13     1    1.45
   14     1    1.45
   15     1    1.45
   16     1    1.45
   17     1    1.45
   18     1    1.45
   19     1    1.45
   20     1    1.45
   21     1    1.45
 Generate Potential Derived Charges using the Breneman model, NDens= 1.
 Grid spacing= 0.300 Box extension= 2.800
 NStep X,Y,Z=   46     40     26   Total possible points=       47840
 Number of Points to Fit=   14020

 **********************************************************************

            Electrostatic Properties Using The SCF Density.

 **********************************************************************

       Atomic Center    1 is at  -3.446978 -1.380064 -0.000339
       Atomic Center    2 is at  -2.044568 -1.184353 -0.000329
       Atomic Center    3 is at  -1.628220  0.094708  0.000201
       Atomic Center    4 is at  -2.390341  1.023317  0.000621
       Atomic Center    5 is at  -0.140060  0.179259  0.000131
       Atomic Center    6 is at   0.648541 -0.971700  0.000211
       Atomic Center    7 is at   2.043491 -0.901178  0.000071
       Atomic Center    8 is at   2.903263 -2.135907  0.000191
       Atomic Center    9 is at   2.587890  0.383072 -0.000219
       Atomic Center   10 is at   1.865259  1.499062 -0.000309
       Atomic Center   11 is at   0.542419  1.418650 -0.000119
       Atomic Center   12 is at  -0.123333  2.569189 -0.000039
       Atomic Center   13 is at  -3.906529 -0.929225  0.891281
       Atomic Center   14 is at  -3.906559 -0.928915 -0.891779
       Atomic Center   15 is at  -3.605827 -2.464295 -0.000549
       Atomic Center   16 is at   0.146173 -1.940640  0.000401
       Atomic Center   17 is at   2.709243 -2.757997  0.887451
       Atomic Center   18 is at   3.971362 -1.876676  0.000171
       Atomic Center   19 is at   2.709253 -2.758197 -0.886929
       Atomic Center   20 is at   3.676410  0.515724 -0.000439
       Atomic Center   21 is at   0.553517  3.260520 -0.000239
   14020 points will be used for fitting atomic charges
 Fitting point charges to electrostatic potential
 Charges from ESP fit, RMS=   0.00298 RRMS=   0.19591:
 ESP charges:
               1
     1  C   -0.050448
     2  O   -0.334312
     3  C    0.756744
     4  O   -0.506762
     5  C   -0.412518
     6  C    0.029717
     7  C   -0.060702
     8  C   -0.265648
     9  C    0.280203
    10  N   -0.698589
    11  C    0.769789
    12  O   -0.584595
    13  H    0.073561
    14  H    0.073555
    15  H    0.090136
    16  H    0.097480
    17  H    0.092259
    18  H    0.073053
    19  H    0.092217
    20  H    0.071921
    21  H    0.412940
 Sum of ESP charges =  -0.00000
 ESP charges with hydrogens summed into heavy atoms:
               1
     1  C    0.186804
     2  O   -0.334312
     3  C    0.756744
     4  O   -0.506762
     5  C   -0.412518
     6  C    0.127196
     7  C   -0.060702
     8  C   -0.008118
     9  C    0.352124
    10  N   -0.698589
    11  C    0.769789
    12  O   -0.171656
 Charge=  -0.00000 Dipole=     1.5731    -2.9886    -0.0006 Tot=     3.3774
 -----------------------------------------------------------------

              Electrostatic Properties (Atomic Units)

 -----------------------------------------------------------------
    Center     Electric         -------- Electric Field --------
               Potential          X             Y             Z
 -----------------------------------------------------------------
    1 Atom    -14.713773
    2 Atom    -22.313118
    3 Atom    -14.641704
    4 Atom    -22.385748
    5 Atom    -14.741902
    6 Atom    -14.743075
    7 Atom    -14.749710
    8 Atom    -14.757209
    9 Atom    -14.723661
   10 Atom    -18.392076
   11 Atom    -14.662400
   12 Atom    -22.323263
   13 Atom     -1.106728
   14 Atom     -1.106729
   15 Atom     -1.101867
   16 Atom     -1.087048
   17 Atom     -1.104067
   18 Atom     -1.103861
   19 Atom     -1.104066
   20 Atom     -1.094578
   21 Atom     -0.973455
 -----------------------------------------------------------------
 Unable to Open any file for archive entry.
 1\1\GINC-NOTCH319\SP\RwB97XD\def2TZVP\C8H9N1O3\U6053008\12-Jul-2024\0\
 \#N Guess=Read Geom=Check Integral(Ultrafine) Density Pop=(ChelpG,Read
 Radii) NMR wB97XD def2TZVP\\12387732_3\\0,1\C,0,-3.44698,-1.38006,-0.0
 0034\O,0,-2.04457,-1.18435,-0.00033\C,0,-1.62822,0.09471,0.0002\O,0,-2
 .39034,1.02332,0.00062\C,0,-0.14006,0.17926,0.00013\C,0,0.64854,-0.971
 7,0.00021\C,0,2.04349,-0.90118,0.00007\C,0,2.90326,-2.13591,0.00019\C,
 0,2.58789,0.38307,-0.00022\N,0,1.86526,1.49906,-0.00031\C,0,0.54242,1.
 41865,-0.00012\O,0,-0.12333,2.56919,-0.00004\H,0,-3.90653,-0.92922,0.8
 9128\H,0,-3.90656,-0.92891,-0.89178\H,0,-3.60583,-2.46429,-0.00055\H,0
 ,0.14617,-1.94064,0.0004\H,0,2.70924,-2.758,0.88745\H,0,3.97136,-1.876
 68,0.00017\H,0,2.70925,-2.7582,-0.88693\H,0,3.67641,0.51572,-0.00044\H
 ,0,0.55352,3.26052,-0.00024\\Version=ES64L-G16RevC.01\State=1-A\HF=-59
 0.7437551\RMSD=3.907e-09\Dipole=0.6049387,-1.1692109,-0.000287\Quadrup
 ole=1.9178254,0.86202,-2.7798454,4.0561124,0.0022066,-0.0020258\PG=C01
  [X(C8H9N1O3)]\\@
 The archive entry for this job was punched.


 TELEVISION IS CALLED A MEDIUM BECAUSE IT ISN'T
 RARE, AND IT ISN'T WELL DONE.
 Job cpu time:       0 days  0 hours 37 minutes 52.6 seconds.
 Elapsed time:       0 days  0 hours  2 minutes 29.5 seconds.
 File lengths (MBytes):  RWF=    119 Int=      0 D2E=      0 Chk=     18 Scr=      2
 Normal termination of Gaussian 16 at Fri Jul 12 13:21:23 2024.
