 Entering Gaussian System, Link 0=g16
 Input=12397251_2.com
 Output=12397251_2.log
 Initial command:
 /uufs/chpc.utah.edu/sys/installdir/gaussian16/C01/AVX/g16/l1.exe "/scratch/general/vast/u6053008/1287198-notchpeak.peaks/Gau-702269.inp" -scrdir="/scratch/general/vast/u6053008/1287198-notchpeak.peaks/"
 Entering Link 1 = /uufs/chpc.utah.edu/sys/installdir/gaussian16/C01/AVX/g16/l1.exe PID=    702271.
  
 Copyright (c) 1988-2019, Gaussian, Inc.  All Rights Reserved.
  
 This is part of the Gaussian(R) 16 program.  It is based on
 the Gaussian(R) 09 system (copyright 2009, Gaussian, Inc.),
 the Gaussian(R) 03 system (copyright 2003, Gaussian, Inc.),
 the Gaussian(R) 98 system (copyright 1998, Gaussian, Inc.),
 the Gaussian(R) 94 system (copyright 1995, Gaussian, Inc.),
 the Gaussian 92(TM) system (copyright 1992, Gaussian, Inc.),
 the Gaussian 90(TM) system (copyright 1990, Gaussian, Inc.),
 the Gaussian 88(TM) system (copyright 1988, Gaussian, Inc.),
 the Gaussian 86(TM) system (copyright 1986, Carnegie Mellon
 University), and the Gaussian 82(TM) system (copyright 1983,
 Carnegie Mellon University). Gaussian is a federally registered
 trademark of Gaussian, Inc.
  
 This software contains proprietary and confidential information,
 including trade secrets, belonging to Gaussian, Inc.
  
 This software is provided under written license and may be
 used, copied, transmitted, or stored only in accord with that
 written license.
  
 The following legend is applicable only to US Government
 contracts under FAR:
  
                    RESTRICTED RIGHTS LEGEND
  
 Use, reproduction and disclosure by the US Government is
 subject to restrictions as set forth in subparagraphs (a)
 and (c) of the Commercial Computer Software - Restricted
 Rights clause in FAR 52.227-19.
  
 Gaussian, Inc.
 340 Quinnipiac St., Bldg. 40, Wallingford CT 06492
  
  
 ---------------------------------------------------------------
 Warning -- This program may not be used in any manner that
 competes with the business of Gaussian, Inc. or will provide
 assistance to any competitor of Gaussian, Inc.  The licensee
 of this program is prohibited from giving any competitor of
 Gaussian, Inc. access to this program.  By using this program,
 the user acknowledges that Gaussian, Inc. is engaged in the
 business of creating and licensing software in the field of
 computational chemistry and represents and warrants to the
 licensee that it is not a competitor of Gaussian, Inc. and that
 it will not use this program in any manner prohibited above.
 ---------------------------------------------------------------
  

 Cite this work as:
 Gaussian 16, Revision C.01,
 M. J. Frisch, G. W. Trucks, H. B. Schlegel, G. E. Scuseria, 
 M. A. Robb, J. R. Cheeseman, G. Scalmani, V. Barone, 
 G. A. Petersson, H. Nakatsuji, X. Li, M. Caricato, A. V. Marenich, 
 J. Bloino, B. G. Janesko, R. Gomperts, B. Mennucci, H. P. Hratchian, 
 J. V. Ortiz, A. F. Izmaylov, J. L. Sonnenberg, D. Williams-Young, 
 F. Ding, F. Lipparini, F. Egidi, J. Goings, B. Peng, A. Petrone, 
 T. Henderson, D. Ranasinghe, V. G. Zakrzewski, J. Gao, N. Rega, 
 G. Zheng, W. Liang, M. Hada, M. Ehara, K. Toyota, R. Fukuda, 
 J. Hasegawa, M. Ishida, T. Nakajima, Y. Honda, O. Kitao, H. Nakai, 
 T. Vreven, K. Throssell, J. A. Montgomery, Jr., J. E. Peralta, 
 F. Ogliaro, M. J. Bearpark, J. J. Heyd, E. N. Brothers, K. N. Kudin, 
 V. N. Staroverov, T. A. Keith, R. Kobayashi, J. Normand, 
 K. Raghavachari, A. P. Rendell, J. C. Burant, S. S. Iyengar, 
 J. Tomasi, M. Cossi, J. M. Millam, M. Klene, C. Adamo, R. Cammi, 
 J. W. Ochterski, R. L. Martin, K. Morokuma, O. Farkas, 
 J. B. Foresman, and D. J. Fox, Gaussian, Inc., Wallingford CT, 2019.
 
 ******************************************
 Gaussian 16:  ES64L-G16RevC.01  3-Jul-2019
                12-Jul-2024 
 ******************************************
 %NProcShared=16
 Will use up to   16 processors via shared memory.
 %Mem=32GB
 %chk=12397251_2.chk
 ------------------------------------------------------
 #N OPT FREQ=NORAMAN Integral(Ultrafine) wB97XD def2SVP
 ------------------------------------------------------
 1/18=20,19=15,26=4,38=1/1,3;
 2/9=110,12=2,17=6,18=5,40=1/2;
 3/5=43,7=101,11=2,25=1,30=1,71=1,74=-58,75=-5/1,2,3;
 4//1;
 5/5=2,38=5/2;
 6/7=2,8=2,9=2,10=2,28=1/1;
 7//1,2,3,16;
 1/18=20,19=15,26=4/3(2);
 2/9=110/2;
 99//99;
 2/9=110/2;
 3/5=43,7=101,11=2,25=1,30=1,71=1,74=-58,75=-5/1,2,3;
 4/5=5,16=3,69=1/1;
 5/5=2,38=5/2;
 7//1,2,3,16;
 1/18=20,19=15,26=4/3(-5);
 2/9=110/2;
 6/7=2,8=2,9=2,10=2,19=2,28=1/1;
 99/9=1/99;
 ----------
 12397251_2
 ----------
 Symbolic Z-matrix:
 Charge =  0 Multiplicity = 1
 C                     4.50827  -1.54875  -0.03302 
 C                     3.27272  -0.69065  -0.05568 
 C                     2.15909  -1.0097   -0.83292 
 C                     1.03413  -0.18424  -0.81879 
 C                     1.06497   0.95508  -0.01743 
 O                     0.06986   1.864     0.10819 
 C                    -1.09139   1.72586  -0.67086 
 C                    -2.00149   0.59928  -0.22831 
 C                    -2.86899  -0.00294  -1.14373 
 C                    -3.73771  -1.01419  -0.73665 
 C                    -3.73932  -1.4401    0.59094 
 C                    -2.87072  -0.84764   1.50686 
 C                    -2.00816   0.16872   1.10076 
 C                     2.22662   1.19662   0.73282 
 N                     3.28537   0.40619   0.71406 
 H                     4.70818  -1.90108   0.98999 
 H                     5.38413  -0.9626   -0.34908 
 H                     4.41279  -2.42179  -0.69286 
 H                     2.16064  -1.91046  -1.45017 
 H                     0.15667  -0.44827  -1.40992 
 H                    -0.83346   1.6123   -1.73994 
 H                    -1.61708   2.68715  -0.56641 
 H                    -2.86417   0.31947  -2.18922 
 H                    -4.41092  -1.47677  -1.46175 
 H                    -4.41427  -2.23695   0.9105 
 H                    -2.86353  -1.17986   2.54731 
 H                    -1.32386   0.63044   1.8157 
 H                     2.26032   2.08898   1.36799 
 

 GradGradGradGradGradGradGradGradGradGradGradGradGradGradGradGradGradGrad
 Berny optimization.
 Initialization pass.
                           ----------------------------
                           !    Initial Parameters    !
                           ! (Angstroms and Degrees)  !
 --------------------------                            --------------------------
 ! Name  Definition              Value          Derivative Info.                !
 --------------------------------------------------------------------------------
 ! R1    R(1,2)                  1.5045         estimate D2E/DX2                !
 ! R2    R(1,16)                 1.1003         estimate D2E/DX2                !
 ! R3    R(1,17)                 1.1003         estimate D2E/DX2                !
 ! R4    R(1,18)                 1.0985         estimate D2E/DX2                !
 ! R5    R(2,3)                  1.395          estimate D2E/DX2                !
 ! R6    R(2,15)                 1.34           estimate D2E/DX2                !
 ! R7    R(3,4)                  1.3954         estimate D2E/DX2                !
 ! R8    R(3,19)                 1.092          estimate D2E/DX2                !
 ! R9    R(4,5)                  1.3933         estimate D2E/DX2                !
 ! R10   R(4,20)                 1.0905         estimate D2E/DX2                !
 ! R11   R(5,6)                  1.3536         estimate D2E/DX2                !
 ! R12   R(5,14)                 1.4038         estimate D2E/DX2                !
 ! R13   R(6,7)                  1.4052         estimate D2E/DX2                !
 ! R14   R(7,8)                  1.5144         estimate D2E/DX2                !
 ! R15   R(7,21)                 1.1056         estimate D2E/DX2                !
 ! R16   R(7,22)                 1.1006         estimate D2E/DX2                !
 ! R17   R(8,9)                  1.3976         estimate D2E/DX2                !
 ! R18   R(8,13)                 1.3971         estimate D2E/DX2                !
 ! R19   R(9,10)                 1.3939         estimate D2E/DX2                !
 ! R20   R(9,23)                 1.0941         estimate D2E/DX2                !
 ! R21   R(10,11)                1.3942         estimate D2E/DX2                !
 ! R22   R(10,24)                1.0922         estimate D2E/DX2                !
 ! R23   R(11,12)                1.3944         estimate D2E/DX2                !
 ! R24   R(11,25)                1.0921         estimate D2E/DX2                !
 ! R25   R(12,13)                1.3935         estimate D2E/DX2                !
 ! R26   R(12,26)                1.0922         estimate D2E/DX2                !
 ! R27   R(13,27)                1.0921         estimate D2E/DX2                !
 ! R28   R(14,15)                1.3214         estimate D2E/DX2                !
 ! R29   R(14,28)                1.0958         estimate D2E/DX2                !
 ! A1    A(2,1,16)             110.234          estimate D2E/DX2                !
 ! A2    A(2,1,17)             110.2166         estimate D2E/DX2                !
 ! A3    A(2,1,18)             111.8929         estimate D2E/DX2                !
 ! A4    A(16,1,17)            107.0399         estimate D2E/DX2                !
 ! A5    A(16,1,18)            108.6497         estimate D2E/DX2                !
 ! A6    A(17,1,18)            108.6651         estimate D2E/DX2                !
 ! A7    A(1,2,3)              122.2452         estimate D2E/DX2                !
 ! A8    A(1,2,15)             116.7724         estimate D2E/DX2                !
 ! A9    A(3,2,15)             120.9823         estimate D2E/DX2                !
 ! A10   A(2,3,4)              120.1751         estimate D2E/DX2                !
 ! A11   A(2,3,19)             120.1637         estimate D2E/DX2                !
 ! A12   A(4,3,19)             119.6599         estimate D2E/DX2                !
 ! A13   A(3,4,5)              118.146          estimate D2E/DX2                !
 ! A14   A(3,4,20)             120.0002         estimate D2E/DX2                !
 ! A15   A(5,4,20)             121.8439         estimate D2E/DX2                !
 ! A16   A(4,5,6)              125.8887         estimate D2E/DX2                !
 ! A17   A(4,5,14)             117.8017         estimate D2E/DX2                !
 ! A18   A(6,5,14)             116.3096         estimate D2E/DX2                !
 ! A19   A(5,6,7)              119.3464         estimate D2E/DX2                !
 ! A20   A(6,7,8)              114.0648         estimate D2E/DX2                !
 ! A21   A(6,7,21)             110.6956         estimate D2E/DX2                !
 ! A22   A(6,7,22)             104.8474         estimate D2E/DX2                !
 ! A23   A(8,7,21)             110.2656         estimate D2E/DX2                !
 ! A24   A(8,7,22)             109.5711         estimate D2E/DX2                !
 ! A25   A(21,7,22)            107.0321         estimate D2E/DX2                !
 ! A26   A(7,8,9)              120.1445         estimate D2E/DX2                !
 ! A27   A(7,8,13)             120.6733         estimate D2E/DX2                !
 ! A28   A(9,8,13)             119.1669         estimate D2E/DX2                !
 ! A29   A(8,9,10)             120.5416         estimate D2E/DX2                !
 ! A30   A(8,9,23)             119.7488         estimate D2E/DX2                !
 ! A31   A(10,9,23)            119.7093         estimate D2E/DX2                !
 ! A32   A(9,10,11)            120.0275         estimate D2E/DX2                !
 ! A33   A(9,10,24)            119.8351         estimate D2E/DX2                !
 ! A34   A(11,10,24)           120.1357         estimate D2E/DX2                !
 ! A35   A(10,11,12)           119.6658         estimate D2E/DX2                !
 ! A36   A(10,11,25)           120.1481         estimate D2E/DX2                !
 ! A37   A(12,11,25)           120.1855         estimate D2E/DX2                !
 ! A38   A(11,12,13)           120.2674         estimate D2E/DX2                !
 ! A39   A(11,12,26)           120.0383         estimate D2E/DX2                !
 ! A40   A(13,12,26)           119.6943         estimate D2E/DX2                !
 ! A41   A(8,13,12)            120.3286         estimate D2E/DX2                !
 ! A42   A(8,13,27)            119.3083         estimate D2E/DX2                !
 ! A43   A(12,13,27)           120.3607         estimate D2E/DX2                !
 ! A44   A(5,14,15)            123.5398         estimate D2E/DX2                !
 ! A45   A(5,14,28)            118.3809         estimate D2E/DX2                !
 ! A46   A(15,14,28)           118.0792         estimate D2E/DX2                !
 ! A47   A(2,15,14)            119.3542         estimate D2E/DX2                !
 ! D1    D(16,1,2,3)          -120.7118         estimate D2E/DX2                !
 ! D2    D(16,1,2,15)           59.1577         estimate D2E/DX2                !
 ! D3    D(17,1,2,3)           121.3477         estimate D2E/DX2                !
 ! D4    D(17,1,2,15)          -58.7828         estimate D2E/DX2                !
 ! D5    D(18,1,2,3)             0.3142         estimate D2E/DX2                !
 ! D6    D(18,1,2,15)         -179.8163         estimate D2E/DX2                !
 ! D7    D(1,2,3,4)            179.8495         estimate D2E/DX2                !
 ! D8    D(1,2,3,19)             0.276          estimate D2E/DX2                !
 ! D9    D(15,2,3,4)            -0.0146         estimate D2E/DX2                !
 ! D10   D(15,2,3,19)         -179.5882         estimate D2E/DX2                !
 ! D11   D(1,2,15,14)          179.993          estimate D2E/DX2                !
 ! D12   D(3,2,15,14)           -0.1357         estimate D2E/DX2                !
 ! D13   D(2,3,4,5)              0.2626         estimate D2E/DX2                !
 ! D14   D(2,3,4,20)          -178.6136         estimate D2E/DX2                !
 ! D15   D(19,3,4,5)           179.8384         estimate D2E/DX2                !
 ! D16   D(19,3,4,20)            0.9621         estimate D2E/DX2                !
 ! D17   D(3,4,5,6)            179.5932         estimate D2E/DX2                !
 ! D18   D(3,4,5,14)            -0.353          estimate D2E/DX2                !
 ! D19   D(20,4,5,6)            -1.5524         estimate D2E/DX2                !
 ! D20   D(20,4,5,14)          178.5014         estimate D2E/DX2                !
 ! D21   D(4,5,6,7)             -3.516          estimate D2E/DX2                !
 ! D22   D(14,5,6,7)           176.4309         estimate D2E/DX2                !
 ! D23   D(4,5,14,15)            0.2173         estimate D2E/DX2                !
 ! D24   D(4,5,14,28)         -179.8771         estimate D2E/DX2                !
 ! D25   D(6,5,14,15)         -179.7341         estimate D2E/DX2                !
 ! D26   D(6,5,14,28)            0.1715         estimate D2E/DX2                !
 ! D27   D(5,6,7,8)             73.1698         estimate D2E/DX2                !
 ! D28   D(5,6,7,21)           -51.8753         estimate D2E/DX2                !
 ! D29   D(5,6,7,22)          -166.9676         estimate D2E/DX2                !
 ! D30   D(6,7,8,9)           -154.6724         estimate D2E/DX2                !
 ! D31   D(6,7,8,13)            26.7639         estimate D2E/DX2                !
 ! D32   D(21,7,8,9)           -29.3992         estimate D2E/DX2                !
 ! D33   D(21,7,8,13)          152.037          estimate D2E/DX2                !
 ! D34   D(22,7,8,9)            88.159          estimate D2E/DX2                !
 ! D35   D(22,7,8,13)          -90.4048         estimate D2E/DX2                !
 ! D36   D(7,8,9,10)          -178.137          estimate D2E/DX2                !
 ! D37   D(7,8,9,23)             2.0643         estimate D2E/DX2                !
 ! D38   D(13,8,9,10)            0.4484         estimate D2E/DX2                !
 ! D39   D(13,8,9,23)         -179.3503         estimate D2E/DX2                !
 ! D40   D(7,8,13,12)          178.5113         estimate D2E/DX2                !
 ! D41   D(7,8,13,27)           -2.0607         estimate D2E/DX2                !
 ! D42   D(9,8,13,12)           -0.0663         estimate D2E/DX2                !
 ! D43   D(9,8,13,27)          179.3617         estimate D2E/DX2                !
 ! D44   D(8,9,10,11)           -0.4845         estimate D2E/DX2                !
 ! D45   D(8,9,10,24)          179.9905         estimate D2E/DX2                !
 ! D46   D(23,9,10,11)         179.3143         estimate D2E/DX2                !
 ! D47   D(23,9,10,24)          -0.2107         estimate D2E/DX2                !
 ! D48   D(9,10,11,12)           0.1342         estimate D2E/DX2                !
 ! D49   D(9,10,11,25)        -179.5797         estimate D2E/DX2                !
 ! D50   D(24,10,11,12)        179.6578         estimate D2E/DX2                !
 ! D51   D(24,10,11,25)         -0.0561         estimate D2E/DX2                !
 ! D52   D(10,11,12,13)          0.2462         estimate D2E/DX2                !
 ! D53   D(10,11,12,26)       -179.7084         estimate D2E/DX2                !
 ! D54   D(25,11,12,13)        179.9599         estimate D2E/DX2                !
 ! D55   D(25,11,12,26)          0.0054         estimate D2E/DX2                !
 ! D56   D(11,12,13,8)          -0.2803         estimate D2E/DX2                !
 ! D57   D(11,12,13,27)       -179.7022         estimate D2E/DX2                !
 ! D58   D(26,12,13,8)         179.6744         estimate D2E/DX2                !
 ! D59   D(26,12,13,27)          0.2524         estimate D2E/DX2                !
 ! D60   D(5,14,15,2)            0.0326         estimate D2E/DX2                !
 ! D61   D(28,14,15,2)        -179.8732         estimate D2E/DX2                !
 --------------------------------------------------------------------------------
 Trust Radius=3.00D-01 FncErr=1.00D-07 GrdErr=1.00D-06 EigMax=2.50D+02 EigMin=1.00D-04
 Number of steps in this run=    147 maximum allowed number of steps=    168.
 GradGradGradGradGradGradGradGradGradGradGradGradGradGradGradGradGradGrad

                          Input orientation:                          
 ---------------------------------------------------------------------
 Center     Atomic      Atomic             Coordinates (Angstroms)
 Number     Number       Type             X           Y           Z
 ---------------------------------------------------------------------
      1          6           0        4.508270   -1.548750   -0.033020
      2          6           0        3.272720   -0.690650   -0.055680
      3          6           0        2.159090   -1.009700   -0.832920
      4          6           0        1.034130   -0.184240   -0.818790
      5          6           0        1.064970    0.955080   -0.017430
      6          8           0        0.069860    1.864000    0.108190
      7          6           0       -1.091390    1.725860   -0.670860
      8          6           0       -2.001490    0.599280   -0.228310
      9          6           0       -2.868990   -0.002940   -1.143730
     10          6           0       -3.737710   -1.014190   -0.736650
     11          6           0       -3.739320   -1.440100    0.590940
     12          6           0       -2.870720   -0.847640    1.506860
     13          6           0       -2.008160    0.168720    1.100760
     14          6           0        2.226620    1.196620    0.732820
     15          7           0        3.285370    0.406190    0.714060
     16          1           0        4.708180   -1.901080    0.989990
     17          1           0        5.384130   -0.962600   -0.349080
     18          1           0        4.412790   -2.421790   -0.692860
     19          1           0        2.160640   -1.910460   -1.450170
     20          1           0        0.156670   -0.448270   -1.409920
     21          1           0       -0.833460    1.612300   -1.739940
     22          1           0       -1.617080    2.687150   -0.566410
     23          1           0       -2.864170    0.319470   -2.189220
     24          1           0       -4.410920   -1.476770   -1.461750
     25          1           0       -4.414270   -2.236950    0.910500
     26          1           0       -2.863530   -1.179860    2.547310
     27          1           0       -1.323860    0.630440    1.815700
     28          1           0        2.260320    2.088980    1.367990
 ---------------------------------------------------------------------
                    Distance matrix (angstroms):
                    1          2          3          4          5
     1  C    0.000000
     2  C    1.504471   0.000000
     3  C    2.539500   1.395015   0.000000
     4  C    3.814311   2.418692   1.395392   0.000000
     5  C    4.257431   2.753915   2.392171   1.393262   0.000000
     6  O    5.600561   4.100171   3.675421   2.446302   1.353573
     7  C    6.518136   5.026273   4.251491   2.861503   2.381378
     8  C    6.857780   5.432404   4.501644   3.190229   3.094227
     9  C    7.618869   6.275141   5.137291   3.920816   4.202665
    10  C    8.293192   7.050853   5.897587   4.844174   5.240328
    11  C    8.271872   7.081560   6.083080   5.133259   5.402611
    12  C    7.570487   6.340980   5.549759   4.593104   4.589435
    13  C    6.833668   5.473898   4.742759   3.614524   3.363456
    14  C    3.650958   2.297356   2.706280   2.395057   1.403797
    15  N    2.423923   1.340044   2.380420   2.786811   2.401361
    16  H    1.100295   2.149212   3.258131   4.440481   4.737671
    17  H    1.100271   2.148975   3.261472   4.443982   4.737365
    18  H    1.098501   2.168549   2.663227   4.054360   4.802849
    19  H    2.765956   2.160847   1.091956   2.155806   3.385935
    20  H    4.695033   3.406242   2.158198   1.090451   2.175644
    21  H    6.437382   5.000102   4.080800   2.750266   2.646321
    22  H    7.466409   5.964941   5.291237   3.916311   3.239574
    23  H    7.905208   6.575238   5.370231   4.162757   4.534183
    24  H    9.033183   7.850690   6.616541   5.633170   6.163224
    25  H    8.998643   7.900276   6.910479   6.073642   6.408758
    26  H    7.819055   6.683446   6.056535   5.245345   5.154510
    27  H    6.494642   5.135746   4.672921   3.628272   3.028575
    28  H    4.499910   3.283007   3.802114   3.384240   2.152668
                    6          7          8          9         10
     6  O    0.000000
     7  C    1.405170   0.000000
     8  C    2.450151   1.514370   0.000000
     9  C    3.699947   2.524325   1.397576   0.000000
    10  C    4.847197   3.809883   2.424078   1.393921   0.000000
    11  C    5.065568   4.315898   2.801838   2.414950   1.394237
    12  C    4.237485   3.812005   2.420734   2.781932   2.410964
    13  C    2.859604   2.530571   1.397087   2.410027   2.786879
    14  C    2.342471   3.641374   4.376928   5.561081   6.528419
    15  N    3.582149   4.776564   5.373661   6.441655   7.310656
    16  H    6.038825   7.039043   7.263314   8.097481   8.666079
    17  H    6.036574   7.018812   7.549930   8.346640   9.130216
    18  H    6.153919   6.891987   7.105326   7.686250   8.271270
    19  H    4.587635   4.940227   5.011493   5.387923   6.008572
    20  H    2.767451   2.613562   2.674176   3.069820   3.992462
    21  H    2.072420   1.105602   2.162297   2.666055   4.042241
    22  H    1.994600   1.100608   2.149717   3.022774   4.269189
    23  H    4.033881   2.725087   2.160481   1.094084   2.156776
    24  H    5.805415   4.679917   3.411262   2.156585   1.092228
    25  H    6.129349   5.407966   3.893918   3.405665   2.160088
    26  H    4.880488   4.684048   3.407715   3.874138   3.402357
    27  H    2.525810   2.727080   2.153632   3.398062   3.878914
    28  H    2.536893   3.939889   4.788570   6.082326   7.073580
                   11         12         13         14         15
    11  C    0.000000
    12  C    1.394412   0.000000
    13  C    2.417671   1.393526   0.000000
    14  C    6.524175   5.546261   4.373250   0.000000
    15  N    7.264311   6.332303   5.312945   1.321394   0.000000
    16  H    8.469475   7.669199   7.028909   3.977439   2.724706
    17  H    9.184170   8.461695   7.617603   3.975249   2.721883
    18  H    8.310761   7.769571   7.152371   4.461479   3.353799
    19  H    6.260742   5.931964   5.311226   3.797861   3.363893
    20  H    4.490646   4.222818   3.372044   3.403188   3.876875
    21  H    4.816033   4.554497   3.396089   3.956188   4.943842
    22  H    4.783049   4.285417   3.045470   4.322465   5.556653
    23  H    3.404595   3.875977   3.402859   5.934969   6.800985
    24  H    2.160076   3.403038   3.879091   7.484657   8.216603
    25  H    1.092083   2.160642   3.407758   7.478128   8.143048
    26  H    2.159193   1.092226   2.154723   5.903360   6.609488
    27  H    3.409050   2.161684   1.092058   3.754876   4.744355
    28  H    7.003848   5.913594   4.688148   1.095848   2.076086
                   16         17         18         19         20
    16  H    0.000000
    17  H    1.769396   0.000000
    18  H    1.786163   1.786315   0.000000
    19  H    3.527666   3.535778   2.430464   0.000000
    20  H    5.346631   5.358755   4.745894   2.481031   0.000000
    21  H    7.106767   6.871901   6.700254   4.632325   2.309809
    22  H    7.967631   7.898408   7.904213   6.015831   3.699805
    23  H    8.507567   8.547764   7.918822   5.546846   3.212819
    24  H    9.452463   9.871444   8.907419   6.585865   4.682241
    25  H    9.128977   9.960881   8.973401   6.993483   5.429293
    26  H    7.763775   8.744151   8.061385   6.461881   5.031551
    27  H    6.593625   7.226422   6.965496   5.409604   3.709476
    28  H    4.696326   4.692404   5.406226   4.893616   4.310425
                   21         22         23         24         25
    21  H    0.000000
    22  H    1.773848   0.000000
    23  H    2.448886   3.129641   0.000000
    24  H    4.734761   5.093663   2.479542   0.000000
    25  H    5.887594   5.852546   4.306548   2.491075   0.000000
    26  H    5.504349   5.118853   4.968169   4.307567   2.490257
    27  H    3.721171   3.160772   4.302167   4.971112   4.311838
    28  H    4.411114   4.374236   6.484235   8.076351   7.967002
                   26         27         28
    26  H    0.000000
    27  H    2.486569   0.000000
    28  H    6.191119   3.895398   0.000000
 Stoichiometry    C13H13NO
 Framework group  C1[X(C13H13NO)]
 Deg. of freedom    78
 Full point group                 C1      NOp   1
 Largest Abelian subgroup         C1      NOp   1
 Largest concise Abelian subgroup C1      NOp   1
                         Standard orientation:                         
 ---------------------------------------------------------------------
 Center     Atomic      Atomic             Coordinates (Angstroms)
 Number     Number       Type             X           Y           Z
 ---------------------------------------------------------------------
      1          6           0        4.508270   -1.548749   -0.033020
      2          6           0        3.272720   -0.690649   -0.055680
      3          6           0        2.159090   -1.009699   -0.832920
      4          6           0        1.034130   -0.184240   -0.818790
      5          6           0        1.064969    0.955080   -0.017430
      6          8           0        0.069859    1.864000    0.108190
      7          6           0       -1.091391    1.725860   -0.670860
      8          6           0       -2.001490    0.599279   -0.228310
      9          6           0       -2.868990   -0.002941   -1.143730
     10          6           0       -3.737710   -1.014191   -0.736650
     11          6           0       -3.739320   -1.440101    0.590940
     12          6           0       -2.870720   -0.847641    1.506860
     13          6           0       -2.008160    0.168719    1.100760
     14          6           0        2.226619    1.196621    0.732820
     15          7           0        3.285370    0.406191    0.714060
     16          1           0        4.708180   -1.901078    0.989990
     17          1           0        5.384130   -0.962598   -0.349080
     18          1           0        4.412790   -2.421789   -0.692860
     19          1           0        2.160640   -1.910459   -1.450170
     20          1           0        0.156670   -0.448270   -1.409920
     21          1           0       -0.833461    1.612300   -1.739940
     22          1           0       -1.617081    2.687150   -0.566410
     23          1           0       -2.864170    0.319469   -2.189220
     24          1           0       -4.410920   -1.476771   -1.461750
     25          1           0       -4.414270   -2.236951    0.910500
     26          1           0       -2.863530   -1.179861    2.547310
     27          1           0       -1.323860    0.630440    1.815700
     28          1           0        2.260319    2.088981    1.367990
 ---------------------------------------------------------------------
 Rotational constants (GHZ):           1.2958102           0.3189559           0.2958191
 Standard basis: def2SVP (5D, 7F)
 There are   290 symmetry adapted cartesian basis functions of A   symmetry.
 There are   275 symmetry adapted basis functions of A   symmetry.
   275 basis functions,   466 primitive gaussians,   290 cartesian basis functions
    53 alpha electrons       53 beta electrons
       nuclear repulsion energy       909.6623190495 Hartrees.
 NAtoms=   28 NActive=   28 NUniq=   28 SFac= 1.00D+00 NAtFMM=   60 NAOKFM=F Big=F
 Integral buffers will be    131072 words long.
 Raffenetti 2 integral format.
 Two-electron integral symmetry is turned on.
 Nuclear repulsion after empirical dispersion term =      909.6453730038 Hartrees.
 One-electron integrals computed using PRISM.
   1 Symmetry operations used in ECPInt.
 ECPInt:  NShTT=    8385 NPrTT=   30369 LenC2=    7810 LenP2D=   20553.
 LDataN:  DoStor=T MaxTD1= 4 Len=   56
 NBasis=   275 RedAO= T EigKep=  2.83D-04  NBF=   275
 NBsUse=   275 1.00D-06 EigRej= -1.00D+00 NBFU=   275
 ExpMin= 1.22D-01 ExpMax= 2.27D+03 ExpMxC= 3.41D+02 IAcc=3 IRadAn=         5 AccDes= 0.00D+00
 Harris functional with IExCor= 4639 and IRadAn=       5 diagonalized for initial guess.
 HarFok:  IExCor= 4639 AccDes= 0.00D+00 IRadAn=         5 IDoV= 1 UseB2=F ITyADJ=14
 ICtDFT=  3500011 ScaDFX=  1.000000  1.000000  1.000000  1.000000
 FoFCou: FMM=F IPFlag=           0 FMFlag=      100000 FMFlg1=           0
         NFxFlg=           0 DoJE=T BraDBF=F KetDBF=T FulRan=T
         wScrn=  0.000000 ICntrl=       500 IOpCl=  0 I1Cent=   200000004 NGrid=           0
         NMat0=    1 NMatS0=      1 NMatT0=    0 NMatD0=    1 NMtDS0=    0 NMtDT0=    0
 Petite list used in FoFCou.
 Requested convergence on RMS density matrix=1.00D-08 within 128 cycles.
 Requested convergence on MAX density matrix=1.00D-06.
 Requested convergence on             energy=1.00D-06.
 No special actions if energy rises.
 Integral accuracy reduced to 1.0D-05 until final iterations.
 Initial convergence to 1.0D-05 achieved.  Increase integral accuracy.
 SCF Done:  E(RwB97XD) =  -632.515299977     A.U. after   15 cycles
            NFock= 15  Conv=0.89D-08     -V/T= 2.0108

 **********************************************************************

            Population analysis using the SCF Density.

 **********************************************************************

 Orbital symmetries:
       Occupied  (A) (A) (A) (A) (A) (A) (A) (A) (A) (A) (A) (A)
                 (A) (A) (A) (A) (A) (A) (A) (A) (A) (A) (A) (A)
                 (A) (A) (A) (A) (A) (A) (A) (A) (A) (A) (A) (A)
                 (A) (A) (A) (A) (A) (A) (A) (A) (A) (A) (A) (A)
                 (A) (A) (A) (A) (A)
       Virtual   (A) (A) (A) (A) (A) (A) (A) (A) (A) (A) (A) (A)
                 (A) (A) (A) (A) (A) (A) (A) (A) (A) (A) (A) (A)
                 (A) (A) (A) (A) (A) (A) (A) (A) (A) (A) (A) (A)
                 (A) (A) (A) (A) (A) (A) (A) (A) (A) (A) (A) (A)
                 (A) (A) (A) (A) (A) (A) (A) (A) (A) (A) (A) (A)
                 (A) (A) (A) (A) (A) (A) (A) (A) (A) (A) (A) (A)
                 (A) (A) (A) (A) (A) (A) (A) (A) (A) (A) (A) (A)
                 (A) (A) (A) (A) (A) (A) (A) (A) (A) (A) (A) (A)
                 (A) (A) (A) (A) (A) (A) (A) (A) (A) (A) (A) (A)
                 (A) (A) (A) (A) (A) (A) (A) (A) (A) (A) (A) (A)
                 (A) (A) (A) (A) (A) (A) (A) (A) (A) (A) (A) (A)
                 (A) (A) (A) (A) (A) (A) (A) (A) (A) (A) (A) (A)
                 (A) (A) (A) (A) (A) (A) (A) (A) (A) (A) (A) (A)
                 (A) (A) (A) (A) (A) (A) (A) (A) (A) (A) (A) (A)
                 (A) (A) (A) (A) (A) (A) (A) (A) (A) (A) (A) (A)
                 (A) (A) (A) (A) (A) (A) (A) (A) (A) (A) (A) (A)
                 (A) (A) (A) (A) (A) (A) (A) (A) (A) (A) (A) (A)
                 (A) (A) (A) (A) (A) (A) (A) (A) (A) (A) (A) (A)
                 (A) (A) (A) (A) (A) (A)
 The electronic state is 1-A.
 Alpha  occ. eigenvalues --  -19.29623 -14.43211 -10.36846 -10.36399 -10.32981
 Alpha  occ. eigenvalues --  -10.32599 -10.31792 -10.31423 -10.31241 -10.31155
 Alpha  occ. eigenvalues --  -10.30994 -10.30897 -10.30785 -10.30617 -10.28962
 Alpha  occ. eigenvalues --   -1.17490  -1.03441  -0.96245  -0.89734  -0.88194
 Alpha  occ. eigenvalues --   -0.86132  -0.84587  -0.80918  -0.76182  -0.72542
 Alpha  occ. eigenvalues --   -0.70698  -0.69844  -0.67347  -0.63323  -0.61157
 Alpha  occ. eigenvalues --   -0.60339  -0.56907  -0.56115  -0.53992  -0.53567
 Alpha  occ. eigenvalues --   -0.53256  -0.51965  -0.51334  -0.51189  -0.50245
 Alpha  occ. eigenvalues --   -0.47815  -0.46468  -0.45927  -0.45604  -0.44702
 Alpha  occ. eigenvalues --   -0.43611  -0.42054  -0.41392  -0.36207  -0.34022
 Alpha  occ. eigenvalues --   -0.33432  -0.32844  -0.30100
 Alpha virt. eigenvalues --    0.04230   0.05122   0.05398   0.07063   0.13656
 Alpha virt. eigenvalues --    0.14709   0.15877   0.17448   0.17777   0.18938
 Alpha virt. eigenvalues --    0.19519   0.20037   0.20228   0.21453   0.22358
 Alpha virt. eigenvalues --    0.23283   0.23643   0.24884   0.25778   0.26463
 Alpha virt. eigenvalues --    0.29461   0.31363   0.31629   0.32749   0.35794
 Alpha virt. eigenvalues --    0.36187   0.36648   0.38214   0.38742   0.40479
 Alpha virt. eigenvalues --    0.41785   0.43441   0.44256   0.47063   0.48192
 Alpha virt. eigenvalues --    0.49252   0.50114   0.51148   0.51591   0.52041
 Alpha virt. eigenvalues --    0.53297   0.54067   0.54286   0.54715   0.55349
 Alpha virt. eigenvalues --    0.56345   0.57420   0.58099   0.60175   0.61455
 Alpha virt. eigenvalues --    0.62762   0.63903   0.64762   0.65326   0.66422
 Alpha virt. eigenvalues --    0.68335   0.68726   0.69568   0.70451   0.70654
 Alpha virt. eigenvalues --    0.71152   0.71714   0.72483   0.72931   0.73851
 Alpha virt. eigenvalues --    0.74298   0.75146   0.75546   0.75882   0.76409
 Alpha virt. eigenvalues --    0.77392   0.77512   0.78931   0.80413   0.81349
 Alpha virt. eigenvalues --    0.81953   0.82022   0.82446   0.83227   0.84889
 Alpha virt. eigenvalues --    0.85350   0.87429   0.88841   0.90676   0.91337
 Alpha virt. eigenvalues --    0.93476   0.95678   0.96892   0.97876   1.01608
 Alpha virt. eigenvalues --    1.02191   1.02626   1.10039   1.12872   1.14525
 Alpha virt. eigenvalues --    1.15973   1.17200   1.20021   1.23677   1.25614
 Alpha virt. eigenvalues --    1.27682   1.27715   1.29995   1.32116   1.33085
 Alpha virt. eigenvalues --    1.34199   1.35034   1.35924   1.36387   1.38020
 Alpha virt. eigenvalues --    1.38609   1.39525   1.41551   1.41708   1.44580
 Alpha virt. eigenvalues --    1.49847   1.56768   1.58789   1.60133   1.62103
 Alpha virt. eigenvalues --    1.63174   1.63917   1.66712   1.70186   1.73491
 Alpha virt. eigenvalues --    1.74460   1.75375   1.76698   1.79059   1.79486
 Alpha virt. eigenvalues --    1.80619   1.81531   1.82239   1.82586   1.83515
 Alpha virt. eigenvalues --    1.84135   1.85452   1.85871   1.86805   1.87587
 Alpha virt. eigenvalues --    1.88293   1.88954   1.89323   1.90546   1.92910
 Alpha virt. eigenvalues --    1.93183   1.94641   1.95945   1.97939   1.99587
 Alpha virt. eigenvalues --    2.02280   2.02624   2.03400   2.05237   2.05996
 Alpha virt. eigenvalues --    2.06236   2.07145   2.07479   2.10066   2.12084
 Alpha virt. eigenvalues --    2.14338   2.17643   2.18871   2.20873   2.21172
 Alpha virt. eigenvalues --    2.22592   2.23402   2.26501   2.28653   2.29530
 Alpha virt. eigenvalues --    2.32600   2.33689   2.35196   2.35791   2.37823
 Alpha virt. eigenvalues --    2.38749   2.41414   2.43237   2.45105   2.45577
 Alpha virt. eigenvalues --    2.46680   2.47502   2.48492   2.50631   2.57013
 Alpha virt. eigenvalues --    2.59123   2.59449   2.64002   2.64330   2.69185
 Alpha virt. eigenvalues --    2.70284   2.71169   2.72163   2.72954   2.77761
 Alpha virt. eigenvalues --    2.80598   2.81033   2.81717   2.82997   2.83683
 Alpha virt. eigenvalues --    2.89228   2.92410   2.95311   2.96330   2.96497
 Alpha virt. eigenvalues --    2.98864   3.00593   3.02564   3.03645   3.06494
 Alpha virt. eigenvalues --    3.10343   3.11825   3.16911   3.18668   3.21982
 Alpha virt. eigenvalues --    3.22520   3.32758   3.42114   3.52299   3.61983
 Alpha virt. eigenvalues --    3.71932   3.80790
          Condensed to atoms (all electrons):
               1          2          3          4          5          6
     1  C    4.578434   0.393314  -0.090906   0.006328   0.002067   0.000006
     2  C    0.393314   4.971350   0.468691  -0.012325  -0.068789   0.000247
     3  C   -0.090906   0.468691   4.952562   0.379580   0.044208   0.004779
     4  C    0.006328  -0.012325   0.379580   5.087297   0.329162  -0.075449
     5  C    0.002067  -0.068789   0.044208   0.329162   4.972345   0.340879
     6  O    0.000006   0.000247   0.004779  -0.075449   0.340879   7.893293
     7  C   -0.000001   0.000061   0.000076   0.005041  -0.061223   0.324982
     8  C    0.000000  -0.000048  -0.000301  -0.003571   0.007054  -0.066548
     9  C   -0.000000  -0.000004   0.000106  -0.003116   0.000859   0.003669
    10  C    0.000000   0.000000  -0.000001  -0.000067  -0.000097  -0.000119
    11  C   -0.000000  -0.000000   0.000001   0.000031   0.000017  -0.000017
    12  C    0.000000   0.000005  -0.000021  -0.000312  -0.001006   0.001061
    13  C    0.000000  -0.000019  -0.000136  -0.000640  -0.001482   0.003121
    14  C    0.003696  -0.063207  -0.061892  -0.042730   0.443780  -0.054518
    15  N   -0.074467   0.501341  -0.046773  -0.046485  -0.029070   0.001800
    16  H    0.377186  -0.011538   0.004489  -0.000451   0.000132  -0.000000
    17  H    0.377000  -0.011375   0.004444  -0.000444   0.000125  -0.000000
    18  H    0.382847  -0.013164  -0.009729   0.001674  -0.000224  -0.000000
    19  H   -0.009236  -0.044757   0.419254  -0.051269   0.012024  -0.000055
    20  H   -0.000279   0.011981  -0.046119   0.442654  -0.072444  -0.005883
    21  H    0.000000  -0.000044   0.000280   0.008681  -0.011868  -0.027278
    22  H   -0.000000   0.000002   0.000014   0.000087   0.005678  -0.020586
    23  H    0.000000   0.000000   0.000004  -0.000050  -0.000008   0.000061
    24  H   -0.000000   0.000000   0.000000  -0.000005   0.000001   0.000001
    25  H   -0.000000  -0.000000   0.000000   0.000000  -0.000000   0.000000
    26  H   -0.000000   0.000000  -0.000000   0.000004   0.000012  -0.000004
    27  H    0.000000   0.000015  -0.000046  -0.000780   0.001414   0.010462
    28  H   -0.000181   0.005616   0.000216   0.009311  -0.070472   0.005400
               7          8          9         10         11         12
     1  C   -0.000001   0.000000  -0.000000   0.000000  -0.000000   0.000000
     2  C    0.000061  -0.000048  -0.000004   0.000000  -0.000000   0.000005
     3  C    0.000076  -0.000301   0.000106  -0.000001   0.000001  -0.000021
     4  C    0.005041  -0.003571  -0.003116  -0.000067   0.000031  -0.000312
     5  C   -0.061223   0.007054   0.000859  -0.000097   0.000017  -0.001006
     6  O    0.324982  -0.066548   0.003669  -0.000119  -0.000017   0.001061
     7  C    4.484273   0.320273  -0.068012   0.009444  -0.000556   0.011235
     8  C    0.320273   5.489156   0.318351   0.064609  -0.136744   0.060340
     9  C   -0.068012   0.318351   5.057594   0.345283   0.060652  -0.118077
    10  C    0.009444   0.064609   0.345283   4.983557   0.327764   0.060052
    11  C   -0.000556  -0.136744   0.060652   0.327764   5.046355   0.320193
    12  C    0.011235   0.060340  -0.118077   0.060052   0.320193   5.001739
    13  C   -0.070998   0.292287   0.032704  -0.110243   0.062377   0.337346
    14  C    0.004433   0.000180  -0.000031  -0.000000  -0.000000  -0.000053
    15  N   -0.000100  -0.000010  -0.000000   0.000000   0.000000   0.000000
    16  H   -0.000000   0.000000  -0.000000  -0.000000   0.000000  -0.000000
    17  H    0.000000  -0.000000   0.000000  -0.000000  -0.000000   0.000000
    18  H    0.000000  -0.000000  -0.000000   0.000000  -0.000000  -0.000000
    19  H   -0.000027  -0.000014   0.000001  -0.000000   0.000001  -0.000001
    20  H    0.004355   0.002758   0.000720   0.000426  -0.000103  -0.000195
    21  H    0.413628  -0.066509  -0.006105   0.000680  -0.000043   0.000042
    22  H    0.372240  -0.004949   0.002447  -0.000554   0.000077  -0.000148
    23  H   -0.012327  -0.073046   0.446285  -0.056667   0.012493  -0.001501
    24  H   -0.000213   0.013969  -0.063360   0.445448  -0.065423   0.012503
    25  H    0.000026  -0.001345   0.012485  -0.062762   0.443979  -0.062151
    26  H   -0.000230   0.014071  -0.001497   0.012354  -0.065938   0.447050
    27  H   -0.016681  -0.068784   0.012378  -0.001477   0.012190  -0.054994
    28  H   -0.000042  -0.000121  -0.000002   0.000000   0.000000   0.000003
              13         14         15         16         17         18
     1  C    0.000000   0.003696  -0.074467   0.377186   0.377000   0.382847
     2  C   -0.000019  -0.063207   0.501341  -0.011538  -0.011375  -0.013164
     3  C   -0.000136  -0.061892  -0.046773   0.004489   0.004444  -0.009729
     4  C   -0.000640  -0.042730  -0.046485  -0.000451  -0.000444   0.001674
     5  C   -0.001482   0.443780  -0.029070   0.000132   0.000125  -0.000224
     6  O    0.003121  -0.054518   0.001800  -0.000000  -0.000000  -0.000000
     7  C   -0.070998   0.004433  -0.000100  -0.000000   0.000000   0.000000
     8  C    0.292287   0.000180  -0.000010   0.000000  -0.000000  -0.000000
     9  C    0.032704  -0.000031  -0.000000  -0.000000   0.000000  -0.000000
    10  C   -0.110243  -0.000000   0.000000  -0.000000  -0.000000   0.000000
    11  C    0.062377  -0.000000   0.000000   0.000000  -0.000000  -0.000000
    12  C    0.337346  -0.000053   0.000000  -0.000000   0.000000  -0.000000
    13  C    5.055220  -0.000681   0.000007   0.000000   0.000000  -0.000000
    14  C   -0.000681   4.792893   0.551353   0.000327   0.000336  -0.000083
    15  N    0.000007   0.551353   6.293630   0.001399   0.001497   0.005065
    16  H    0.000000   0.000327   0.001399   0.608234  -0.014254  -0.019480
    17  H    0.000000   0.000336   0.001497  -0.014254   0.608299  -0.019422
    18  H   -0.000000  -0.000083   0.005065  -0.019480  -0.019422   0.649245
    19  H    0.000021  -0.000102   0.005934   0.000082   0.000061   0.002526
    20  H   -0.002924   0.007766  -0.000248   0.000008   0.000009   0.000015
    21  H    0.011407   0.000516   0.000006  -0.000000   0.000000   0.000000
    22  H   -0.009626  -0.000132   0.000002  -0.000000   0.000000  -0.000000
    23  H    0.012855   0.000001   0.000000  -0.000000   0.000000  -0.000000
    24  H   -0.001736   0.000000  -0.000000  -0.000000   0.000000   0.000000
    25  H    0.012251  -0.000000   0.000000   0.000000  -0.000000   0.000000
    26  H   -0.063972   0.000001  -0.000000   0.000000  -0.000000   0.000000
    27  H    0.448731  -0.000947   0.000017  -0.000000   0.000000  -0.000000
    28  H    0.000071   0.414727  -0.034699  -0.000033  -0.000035   0.000003
              19         20         21         22         23         24
     1  C   -0.009236  -0.000279   0.000000  -0.000000   0.000000  -0.000000
     2  C   -0.044757   0.011981  -0.000044   0.000002   0.000000   0.000000
     3  C    0.419254  -0.046119   0.000280   0.000014   0.000004   0.000000
     4  C   -0.051269   0.442654   0.008681   0.000087  -0.000050  -0.000005
     5  C    0.012024  -0.072444  -0.011868   0.005678  -0.000008   0.000001
     6  O   -0.000055  -0.005883  -0.027278  -0.020586   0.000061   0.000001
     7  C   -0.000027   0.004355   0.413628   0.372240  -0.012327  -0.000213
     8  C   -0.000014   0.002758  -0.066509  -0.004949  -0.073046   0.013969
     9  C    0.000001   0.000720  -0.006105   0.002447   0.446285  -0.063360
    10  C   -0.000000   0.000426   0.000680  -0.000554  -0.056667   0.445448
    11  C    0.000001  -0.000103  -0.000043   0.000077   0.012493  -0.065423
    12  C   -0.000001  -0.000195   0.000042  -0.000148  -0.001501   0.012503
    13  C    0.000021  -0.002924   0.011407  -0.009626   0.012855  -0.001736
    14  C   -0.000102   0.007766   0.000516  -0.000132   0.000001   0.000000
    15  N    0.005934  -0.000248   0.000006   0.000002   0.000000  -0.000000
    16  H    0.000082   0.000008  -0.000000  -0.000000  -0.000000  -0.000000
    17  H    0.000061   0.000009   0.000000   0.000000   0.000000   0.000000
    18  H    0.002526   0.000015   0.000000  -0.000000  -0.000000   0.000000
    19  H    0.663917  -0.012036   0.000029  -0.000001   0.000000  -0.000000
    20  H   -0.012036   0.646096  -0.000058   0.000100   0.000024   0.000016
    21  H    0.000029  -0.000058   0.664240  -0.025172   0.005550   0.000001
    22  H   -0.000001   0.000100  -0.025172   0.614614   0.000720   0.000008
    23  H    0.000000   0.000024   0.005550   0.000720   0.667981  -0.011436
    24  H   -0.000000   0.000016   0.000001   0.000008  -0.011436   0.657939
    25  H    0.000000  -0.000002  -0.000001  -0.000000  -0.000219  -0.010991
    26  H   -0.000000  -0.000002   0.000005   0.000009   0.000023  -0.000214
    27  H    0.000003  -0.000065   0.000832   0.000383  -0.000163   0.000021
    28  H    0.000070  -0.000235   0.000089  -0.000089   0.000000  -0.000000
              25         26         27         28
     1  C   -0.000000  -0.000000   0.000000  -0.000181
     2  C   -0.000000   0.000000   0.000015   0.005616
     3  C    0.000000  -0.000000  -0.000046   0.000216
     4  C    0.000000   0.000004  -0.000780   0.009311
     5  C   -0.000000   0.000012   0.001414  -0.070472
     6  O    0.000000  -0.000004   0.010462   0.005400
     7  C    0.000026  -0.000230  -0.016681  -0.000042
     8  C   -0.001345   0.014071  -0.068784  -0.000121
     9  C    0.012485  -0.001497   0.012378  -0.000002
    10  C   -0.062762   0.012354  -0.001477   0.000000
    11  C    0.443979  -0.065938   0.012190   0.000000
    12  C   -0.062151   0.447050  -0.054994   0.000003
    13  C    0.012251  -0.063972   0.448731   0.000071
    14  C   -0.000000   0.000001  -0.000947   0.414727
    15  N    0.000000  -0.000000   0.000017  -0.034699
    16  H    0.000000   0.000000  -0.000000  -0.000033
    17  H   -0.000000  -0.000000   0.000000  -0.000035
    18  H    0.000000   0.000000  -0.000000   0.000003
    19  H    0.000000  -0.000000   0.000003   0.000070
    20  H   -0.000002  -0.000002  -0.000065  -0.000235
    21  H   -0.000001   0.000005   0.000832   0.000089
    22  H   -0.000000   0.000009   0.000383  -0.000089
    23  H   -0.000219   0.000023  -0.000163   0.000000
    24  H   -0.010991  -0.000214   0.000021  -0.000000
    25  H    0.655059  -0.010989  -0.000196  -0.000000
    26  H   -0.010989   0.654167  -0.010859  -0.000000
    27  H   -0.000196  -0.010859   0.640396   0.000165
    28  H   -0.000000  -0.000000   0.000165   0.639232
 Mulliken charges:
               1
     1  C    0.054190
     2  C   -0.127352
     3  C   -0.022780
     4  C   -0.032156
     5  C    0.156927
     6  O   -0.339304
     7  C    0.280344
     8  C   -0.161058
     9  C   -0.033331
    10  C   -0.017631
    11  C   -0.017306
    12  C   -0.013112
    13  C   -0.005940
    14  C    0.004369
    15  N   -0.130199
    16  H    0.053901
    17  H    0.053759
    18  H    0.020726
    19  H    0.013574
    20  H    0.023664
    21  H    0.031093
    22  H    0.064876
    23  H    0.009420
    24  H    0.023473
    25  H    0.024855
    26  H    0.026009
    27  H    0.027985
    28  H    0.031005
 Sum of Mulliken charges =  -0.00000
 Mulliken charges with hydrogens summed into heavy atoms:
               1
     1  C    0.182576
     2  C   -0.127352
     3  C   -0.009206
     4  C   -0.008492
     5  C    0.156927
     6  O   -0.339304
     7  C    0.376312
     8  C   -0.161058
     9  C   -0.023911
    10  C    0.005841
    11  C    0.007550
    12  C    0.012897
    13  C    0.022045
    14  C    0.035374
    15  N   -0.130199
 Electronic spatial extent (au):  <R**2>=           3847.0142
 Charge=             -0.0000 electrons
 Dipole moment (field-independent basis, Debye):
    X=             -2.3981    Y=             -1.0885    Z=             -1.6806  Tot=              3.1241
 Quadrupole moment (field-independent basis, Debye-Ang):
   XX=            -90.2152   YY=            -85.1327   ZZ=            -83.5055
   XY=             -2.1403   XZ=             -1.3249   YZ=             -0.9626
 Traceless Quadrupole moment (field-independent basis, Debye-Ang):
   XX=             -3.9308   YY=              1.1518   ZZ=              2.7790
   XY=             -2.1403   XZ=             -1.3249   YZ=             -0.9626
 Octapole moment (field-independent basis, Debye-Ang**2):
  XXX=            -16.9910  YYY=              7.5231  ZZZ=              2.5267  XYY=             -1.8599
  XXY=            -32.5284  XXZ=            -17.9018  XZZ=            -13.2219  YZZ=              0.0118
  YYZ=             -1.4448  XYZ=              6.6956
 Hexadecapole moment (field-independent basis, Debye-Ang**3):
 XXXX=          -4078.3524 YYYY=           -768.9309 ZZZZ=           -454.8103 XXXY=             22.7532
 XXXZ=            -17.7798 YYYX=             -7.4064 YYYZ=              2.5749 ZZZX=              5.7171
 ZZZY=             -4.9906 XXYY=           -746.8375 XXZZ=           -740.6497 YYZZ=           -195.8368
 XXYZ=            -12.9272 YYXZ=              0.2616 ZZXY=              6.2723
 N-N= 9.096453730038D+02 E-N=-3.286143403704D+03  KE= 6.257458485353D+02
   1 Symmetry operations used in ECPInt.
 ECPInt:  NShTT=    8385 NPrTT=   30369 LenC2=    7810 LenP2D=   20553.
 LDataN:  DoStor=T MaxTD1= 5 Len=  102
 Calling FoFJK, ICntrl=      2127 FMM=F ISym2X=0 I1Cent= 0 IOpClX= 0 NMat=1 NMatS=1 NMatT=0.
 ***** Axes restored to original set *****
 -------------------------------------------------------------------
 Center     Atomic                   Forces (Hartrees/Bohr)
 Number     Number              X              Y              Z
 -------------------------------------------------------------------
      1        6           0.000015166   -0.000006331   -0.000003422
      2        6           0.000023035    0.000040803    0.000041117
      3        6          -0.000035163    0.000003858   -0.000015204
      4        6           0.000010177   -0.000032443   -0.000011185
      5        6           0.000026633    0.000018649    0.000024371
      6        8          -0.000027481   -0.000006163   -0.000018361
      7        6           0.000029036    0.000007067    0.000018645
      8        6          -0.000008968   -0.000000639   -0.000020577
      9        6           0.000011611    0.000007303    0.000012677
     10        6          -0.000007801   -0.000010741    0.000008718
     11        6          -0.000007371   -0.000005106   -0.000015423
     12        6           0.000016052    0.000017354    0.000005659
     13        6          -0.000013374   -0.000018418    0.000008391
     14        6          -0.000037670    0.000016004   -0.000001146
     15        7           0.000007076   -0.000030885   -0.000023122
     16        1          -0.000006300   -0.000001814   -0.000002276
     17        1          -0.000002827   -0.000003369   -0.000002836
     18        1          -0.000000976   -0.000001349    0.000000832
     19        1           0.000002432    0.000001124   -0.000000880
     20        1           0.000001636    0.000004336    0.000000883
     21        1          -0.000001220   -0.000001306   -0.000002289
     22        1          -0.000002143    0.000000136   -0.000001108
     23        1          -0.000001900    0.000000388   -0.000004094
     24        1           0.000003077    0.000003202   -0.000000066
     25        1           0.000002353    0.000001611    0.000001420
     26        1          -0.000001986   -0.000002815   -0.000000785
     27        1           0.000003162    0.000004374    0.000003448
     28        1           0.000003734   -0.000004830   -0.000003387
 -------------------------------------------------------------------
 Cartesian Forces:  Max     0.000041117 RMS     0.000014246

 GradGradGradGradGradGradGradGradGradGradGradGradGradGradGradGradGradGrad
 Berny optimization.
 FormGI is forming the generalized inverse of G from B-inverse, IUseBI=4.
 Internal  Forces:  Max     0.000025459 RMS     0.000006404
 Search for a local minimum.
 Step number   1 out of a maximum of  147
 All quantities printed in internal units (Hartrees-Bohrs-Radians)
 Mixed Optimization -- En-DIIS/RFO-DIIS
 Second derivative matrix not updated -- first step.
 ITU=  0
     Eigenvalues ---    0.00576   0.00707   0.01500   0.01550   0.01623
     Eigenvalues ---    0.02115   0.02129   0.02144   0.02151   0.02152
     Eigenvalues ---    0.02156   0.02160   0.02164   0.02166   0.02166
     Eigenvalues ---    0.02167   0.02169   0.02195   0.02274   0.02306
     Eigenvalues ---    0.02499   0.05742   0.07097   0.07261   0.07386
     Eigenvalues ---    0.12078   0.14286   0.15997   0.15999   0.15999
     Eigenvalues ---    0.16000   0.16000   0.16000   0.16000   0.16000
     Eigenvalues ---    0.16000   0.16000   0.16000   0.22000   0.22000
     Eigenvalues ---    0.22085   0.22340   0.23394   0.23476   0.24581
     Eigenvalues ---    0.24992   0.25000   0.25000   0.25000   0.30915
     Eigenvalues ---    0.31913   0.33070   0.33615   0.33649   0.33652
     Eigenvalues ---    0.33848   0.34145   0.34345   0.34556   0.34557
     Eigenvalues ---    0.34573   0.34576   0.34588   0.34761   0.42016
     Eigenvalues ---    0.42140   0.42226   0.44379   0.44774   0.45709
     Eigenvalues ---    0.46170   0.46337   0.46547   0.46593   0.46680
     Eigenvalues ---    0.54268   0.55595   0.59900
 RFO step:  Lambda=-1.76137143D-08 EMin= 5.75866474D-03
 Linear search not attempted -- first point.
 Iteration  1 RMS(Cart)=  0.00015341 RMS(Int)=  0.00000001
 Iteration  2 RMS(Cart)=  0.00000001 RMS(Int)=  0.00000000
 Variable       Old X    -DE/DX   Delta X   Delta X   Delta X     New X
                                 (Linear)    (Quad)   (Total)
    R1        2.84304   0.00001   0.00000   0.00004   0.00004   2.84307
    R2        2.07926  -0.00000   0.00000  -0.00001  -0.00001   2.07925
    R3        2.07921  -0.00000   0.00000  -0.00001  -0.00001   2.07920
    R4        2.07587   0.00000   0.00000   0.00000   0.00000   2.07587
    R5        2.63620   0.00002   0.00000   0.00005   0.00005   2.63625
    R6        2.53232  -0.00003   0.00000  -0.00004  -0.00004   2.53227
    R7        2.63691  -0.00002   0.00000  -0.00004  -0.00004   2.63686
    R8        2.06350  -0.00000   0.00000  -0.00000  -0.00000   2.06350
    R9        2.63288   0.00002   0.00000   0.00004   0.00004   2.63292
   R10        2.06065  -0.00000   0.00000  -0.00001  -0.00001   2.06064
   R11        2.55788   0.00000   0.00000   0.00001   0.00001   2.55789
   R12        2.65279  -0.00002   0.00000  -0.00004  -0.00004   2.65275
   R13        2.65539  -0.00003   0.00000  -0.00006  -0.00006   2.65533
   R14        2.86174   0.00000   0.00000   0.00001   0.00001   2.86176
   R15        2.08929   0.00000   0.00000   0.00001   0.00001   2.08929
   R16        2.07985   0.00000   0.00000   0.00000   0.00000   2.07985
   R17        2.64104  -0.00001   0.00000  -0.00002  -0.00002   2.64101
   R18        2.64011   0.00001   0.00000   0.00002   0.00002   2.64014
   R19        2.63413   0.00001   0.00000   0.00001   0.00001   2.63414
   R20        2.06752   0.00000   0.00000   0.00001   0.00001   2.06753
   R21        2.63473  -0.00001   0.00000  -0.00002  -0.00002   2.63471
   R22        2.06401  -0.00000   0.00000  -0.00001  -0.00001   2.06400
   R23        2.63506   0.00001   0.00000   0.00002   0.00002   2.63508
   R24        2.06374  -0.00000   0.00000  -0.00001  -0.00001   2.06373
   R25        2.63338  -0.00001   0.00000  -0.00003  -0.00003   2.63336
   R26        2.06401   0.00000   0.00000   0.00000   0.00000   2.06401
   R27        2.06369   0.00001   0.00000   0.00002   0.00002   2.06371
   R28        2.49707   0.00002   0.00000   0.00004   0.00004   2.49711
   R29        2.07085  -0.00001   0.00000  -0.00002  -0.00002   2.07084
    A1        1.92395  -0.00001   0.00000  -0.00003  -0.00003   1.92391
    A2        1.92364   0.00000   0.00000   0.00004   0.00004   1.92368
    A3        1.95290  -0.00000   0.00000  -0.00002  -0.00002   1.95288
    A4        1.86820   0.00000   0.00000   0.00005   0.00005   1.86825
    A5        1.89630  -0.00000   0.00000  -0.00003  -0.00003   1.89627
    A6        1.89656  -0.00000   0.00000  -0.00000  -0.00000   1.89656
    A7        2.13358  -0.00002   0.00000  -0.00007  -0.00007   2.13352
    A8        2.03806   0.00002   0.00000   0.00008   0.00008   2.03814
    A9        2.11154  -0.00000   0.00000  -0.00001  -0.00001   2.11153
   A10        2.09745   0.00000   0.00000   0.00000   0.00000   2.09745
   A11        2.09725  -0.00000   0.00000  -0.00001  -0.00001   2.09724
   A12        2.08846   0.00000   0.00000   0.00001   0.00001   2.08847
   A13        2.06204  -0.00000   0.00000  -0.00000  -0.00000   2.06204
   A14        2.09440   0.00000   0.00000   0.00002   0.00002   2.09442
   A15        2.12658  -0.00000   0.00000  -0.00002  -0.00002   2.12656
   A16        2.19717  -0.00001   0.00000  -0.00004  -0.00004   2.19713
   A17        2.05603   0.00000   0.00000   0.00001   0.00001   2.05604
   A18        2.02998   0.00001   0.00000   0.00003   0.00003   2.03001
   A19        2.08299   0.00000   0.00000   0.00001   0.00001   2.08299
   A20        1.99081  -0.00000   0.00000   0.00000   0.00000   1.99081
   A21        1.93200   0.00000   0.00000   0.00001   0.00001   1.93201
   A22        1.82993   0.00000   0.00000   0.00002   0.00002   1.82995
   A23        1.92450  -0.00000   0.00000  -0.00001  -0.00001   1.92449
   A24        1.91238  -0.00000   0.00000  -0.00001  -0.00001   1.91236
   A25        1.86806  -0.00000   0.00000  -0.00000  -0.00000   1.86806
   A26        2.09692   0.00000   0.00000   0.00002   0.00002   2.09694
   A27        2.10615  -0.00000   0.00000  -0.00001  -0.00001   2.10614
   A28        2.07986  -0.00000   0.00000  -0.00001  -0.00001   2.07984
   A29        2.10385   0.00000   0.00000   0.00001   0.00001   2.10386
   A30        2.09001   0.00000   0.00000   0.00001   0.00001   2.09002
   A31        2.08932  -0.00000   0.00000  -0.00002  -0.00002   2.08930
   A32        2.09487  -0.00000   0.00000  -0.00000  -0.00000   2.09487
   A33        2.09152  -0.00000   0.00000  -0.00002  -0.00002   2.09150
   A34        2.09676   0.00000   0.00000   0.00002   0.00002   2.09679
   A35        2.08856  -0.00000   0.00000  -0.00000  -0.00000   2.08856
   A36        2.09698   0.00000   0.00000   0.00002   0.00002   2.09700
   A37        2.09763  -0.00000   0.00000  -0.00001  -0.00001   2.09762
   A38        2.09906  -0.00000   0.00000  -0.00000  -0.00000   2.09906
   A39        2.09506  -0.00000   0.00000  -0.00002  -0.00002   2.09504
   A40        2.08906   0.00000   0.00000   0.00002   0.00002   2.08908
   A41        2.10013   0.00000   0.00000   0.00001   0.00001   2.10014
   A42        2.08232  -0.00000   0.00000  -0.00001  -0.00001   2.08231
   A43        2.10069   0.00000   0.00000   0.00000   0.00000   2.10069
   A44        2.15618  -0.00000   0.00000  -0.00002  -0.00002   2.15616
   A45        2.06614   0.00001   0.00000   0.00003   0.00003   2.06617
   A46        2.06087  -0.00000   0.00000  -0.00002  -0.00002   2.06086
   A47        2.08312   0.00001   0.00000   0.00002   0.00002   2.08314
    D1       -2.10682   0.00000   0.00000   0.00006   0.00006  -2.10676
    D2        1.03250   0.00000   0.00000   0.00000   0.00000   1.03250
    D3        2.11792  -0.00000   0.00000  -0.00001  -0.00001   2.11790
    D4       -1.02595  -0.00000   0.00000  -0.00006  -0.00006  -1.02602
    D5        0.00548  -0.00000   0.00000  -0.00002  -0.00002   0.00547
    D6       -3.13839  -0.00000   0.00000  -0.00007  -0.00007  -3.13846
    D7        3.13897  -0.00000   0.00000  -0.00010  -0.00010   3.13887
    D8        0.00482  -0.00000   0.00000  -0.00011  -0.00011   0.00471
    D9       -0.00025  -0.00000   0.00000  -0.00005  -0.00005  -0.00030
   D10       -3.13440  -0.00000   0.00000  -0.00006  -0.00006  -3.13446
   D11        3.14147   0.00000   0.00000   0.00010   0.00010   3.14157
   D12       -0.00237   0.00000   0.00000   0.00005   0.00005  -0.00232
   D13        0.00458   0.00000   0.00000   0.00003   0.00003   0.00462
   D14       -3.11740  -0.00000   0.00000  -0.00005  -0.00005  -3.11744
   D15        3.13877   0.00000   0.00000   0.00004   0.00004   3.13881
   D16        0.01679  -0.00000   0.00000  -0.00004  -0.00004   0.01675
   D17        3.13449  -0.00000   0.00000  -0.00005  -0.00005   3.13444
   D18       -0.00616  -0.00000   0.00000  -0.00002  -0.00002  -0.00618
   D19       -0.02709   0.00000   0.00000   0.00003   0.00003  -0.02707
   D20        3.11544   0.00000   0.00000   0.00006   0.00006   3.11550
   D21       -0.06137   0.00000   0.00000   0.00008   0.00008  -0.06129
   D22        3.07930   0.00000   0.00000   0.00005   0.00005   3.07935
   D23        0.00379   0.00000   0.00000   0.00002   0.00002   0.00381
   D24       -3.13945  -0.00000   0.00000  -0.00005  -0.00005  -3.13950
   D25       -3.13695   0.00000   0.00000   0.00005   0.00005  -3.13690
   D26        0.00299  -0.00000   0.00000  -0.00002  -0.00002   0.00297
   D27        1.27705   0.00000   0.00000   0.00010   0.00010   1.27716
   D28       -0.90540   0.00000   0.00000   0.00011   0.00011  -0.90529
   D29       -2.91413   0.00000   0.00000   0.00010   0.00010  -2.91404
   D30       -2.69954   0.00000   0.00000   0.00006   0.00006  -2.69948
   D31        0.46712   0.00000   0.00000   0.00006   0.00006   0.46718
   D32       -0.51311   0.00000   0.00000   0.00007   0.00007  -0.51304
   D33        2.65355   0.00000   0.00000   0.00007   0.00007   2.65361
   D34        1.53866  -0.00000   0.00000   0.00005   0.00005   1.53871
   D35       -1.57786  -0.00000   0.00000   0.00004   0.00004  -1.57782
   D36       -3.10908  -0.00000   0.00000  -0.00003  -0.00003  -3.10911
   D37        0.03603  -0.00000   0.00000  -0.00003  -0.00003   0.03600
   D38        0.00783  -0.00000   0.00000  -0.00003  -0.00003   0.00780
   D39       -3.13025  -0.00000   0.00000  -0.00003  -0.00003  -3.13028
   D40        3.11561   0.00000   0.00000   0.00003   0.00003   3.11564
   D41       -0.03597   0.00000   0.00000   0.00005   0.00005  -0.03592
   D42       -0.00116   0.00000   0.00000   0.00002   0.00002  -0.00114
   D43        3.13045   0.00000   0.00000   0.00004   0.00004   3.13049
   D44       -0.00846   0.00000   0.00000   0.00000   0.00000  -0.00845
   D45        3.14143   0.00000   0.00000   0.00001   0.00001   3.14143
   D46        3.12962   0.00000   0.00000   0.00000   0.00000   3.12963
   D47       -0.00368   0.00000   0.00000   0.00000   0.00000  -0.00367
   D48        0.00234   0.00000   0.00000   0.00003   0.00003   0.00237
   D49       -3.13426   0.00000   0.00000   0.00000   0.00000  -3.13425
   D50        3.13562   0.00000   0.00000   0.00003   0.00003   3.13564
   D51       -0.00098   0.00000   0.00000   0.00000   0.00000  -0.00098
   D52        0.00430  -0.00000   0.00000  -0.00004  -0.00004   0.00426
   D53       -3.13650  -0.00000   0.00000  -0.00001  -0.00001  -3.13651
   D54        3.14089  -0.00000   0.00000  -0.00001  -0.00001   3.14088
   D55        0.00009   0.00000   0.00000   0.00001   0.00001   0.00011
   D56       -0.00489   0.00000   0.00000   0.00001   0.00001  -0.00488
   D57       -3.13640  -0.00000   0.00000  -0.00001  -0.00001  -3.13641
   D58        3.13591  -0.00000   0.00000  -0.00001  -0.00001   3.13590
   D59        0.00441  -0.00000   0.00000  -0.00003  -0.00003   0.00437
   D60        0.00057  -0.00000   0.00000  -0.00003  -0.00003   0.00054
   D61       -3.13938   0.00000   0.00000   0.00004   0.00004  -3.13934
         Item               Value     Threshold  Converged?
 Maximum Force            0.000025     0.000450     YES
 RMS     Force            0.000006     0.000300     YES
 Maximum Displacement     0.000507     0.001800     YES
 RMS     Displacement     0.000153     0.001200     YES
 Predicted change in Energy=-8.806843D-09
 Optimization completed.
    -- Stationary point found.
                           ----------------------------
                           !   Optimized Parameters   !
                           ! (Angstroms and Degrees)  !
 --------------------------                            --------------------------
 ! Name  Definition              Value          Derivative Info.                !
 --------------------------------------------------------------------------------
 ! R1    R(1,2)                  1.5045         -DE/DX =    0.0                 !
 ! R2    R(1,16)                 1.1003         -DE/DX =    0.0                 !
 ! R3    R(1,17)                 1.1003         -DE/DX =    0.0                 !
 ! R4    R(1,18)                 1.0985         -DE/DX =    0.0                 !
 ! R5    R(2,3)                  1.395          -DE/DX =    0.0                 !
 ! R6    R(2,15)                 1.34           -DE/DX =    0.0                 !
 ! R7    R(3,4)                  1.3954         -DE/DX =    0.0                 !
 ! R8    R(3,19)                 1.092          -DE/DX =    0.0                 !
 ! R9    R(4,5)                  1.3933         -DE/DX =    0.0                 !
 ! R10   R(4,20)                 1.0905         -DE/DX =    0.0                 !
 ! R11   R(5,6)                  1.3536         -DE/DX =    0.0                 !
 ! R12   R(5,14)                 1.4038         -DE/DX =    0.0                 !
 ! R13   R(6,7)                  1.4052         -DE/DX =    0.0                 !
 ! R14   R(7,8)                  1.5144         -DE/DX =    0.0                 !
 ! R15   R(7,21)                 1.1056         -DE/DX =    0.0                 !
 ! R16   R(7,22)                 1.1006         -DE/DX =    0.0                 !
 ! R17   R(8,9)                  1.3976         -DE/DX =    0.0                 !
 ! R18   R(8,13)                 1.3971         -DE/DX =    0.0                 !
 ! R19   R(9,10)                 1.3939         -DE/DX =    0.0                 !
 ! R20   R(9,23)                 1.0941         -DE/DX =    0.0                 !
 ! R21   R(10,11)                1.3942         -DE/DX =    0.0                 !
 ! R22   R(10,24)                1.0922         -DE/DX =    0.0                 !
 ! R23   R(11,12)                1.3944         -DE/DX =    0.0                 !
 ! R24   R(11,25)                1.0921         -DE/DX =    0.0                 !
 ! R25   R(12,13)                1.3935         -DE/DX =    0.0                 !
 ! R26   R(12,26)                1.0922         -DE/DX =    0.0                 !
 ! R27   R(13,27)                1.0921         -DE/DX =    0.0                 !
 ! R28   R(14,15)                1.3214         -DE/DX =    0.0                 !
 ! R29   R(14,28)                1.0958         -DE/DX =    0.0                 !
 ! A1    A(2,1,16)             110.234          -DE/DX =    0.0                 !
 ! A2    A(2,1,17)             110.2166         -DE/DX =    0.0                 !
 ! A3    A(2,1,18)             111.8929         -DE/DX =    0.0                 !
 ! A4    A(16,1,17)            107.0399         -DE/DX =    0.0                 !
 ! A5    A(16,1,18)            108.6497         -DE/DX =    0.0                 !
 ! A6    A(17,1,18)            108.6651         -DE/DX =    0.0                 !
 ! A7    A(1,2,3)              122.2452         -DE/DX =    0.0                 !
 ! A8    A(1,2,15)             116.7724         -DE/DX =    0.0                 !
 ! A9    A(3,2,15)             120.9823         -DE/DX =    0.0                 !
 ! A10   A(2,3,4)              120.1751         -DE/DX =    0.0                 !
 ! A11   A(2,3,19)             120.1637         -DE/DX =    0.0                 !
 ! A12   A(4,3,19)             119.6599         -DE/DX =    0.0                 !
 ! A13   A(3,4,5)              118.146          -DE/DX =    0.0                 !
 ! A14   A(3,4,20)             120.0002         -DE/DX =    0.0                 !
 ! A15   A(5,4,20)             121.8439         -DE/DX =    0.0                 !
 ! A16   A(4,5,6)              125.8887         -DE/DX =    0.0                 !
 ! A17   A(4,5,14)             117.8017         -DE/DX =    0.0                 !
 ! A18   A(6,5,14)             116.3096         -DE/DX =    0.0                 !
 ! A19   A(5,6,7)              119.3464         -DE/DX =    0.0                 !
 ! A20   A(6,7,8)              114.0648         -DE/DX =    0.0                 !
 ! A21   A(6,7,21)             110.6956         -DE/DX =    0.0                 !
 ! A22   A(6,7,22)             104.8474         -DE/DX =    0.0                 !
 ! A23   A(8,7,21)             110.2656         -DE/DX =    0.0                 !
 ! A24   A(8,7,22)             109.5711         -DE/DX =    0.0                 !
 ! A25   A(21,7,22)            107.0321         -DE/DX =    0.0                 !
 ! A26   A(7,8,9)              120.1445         -DE/DX =    0.0                 !
 ! A27   A(7,8,13)             120.6733         -DE/DX =    0.0                 !
 ! A28   A(9,8,13)             119.1669         -DE/DX =    0.0                 !
 ! A29   A(8,9,10)             120.5416         -DE/DX =    0.0                 !
 ! A30   A(8,9,23)             119.7488         -DE/DX =    0.0                 !
 ! A31   A(10,9,23)            119.7093         -DE/DX =    0.0                 !
 ! A32   A(9,10,11)            120.0275         -DE/DX =    0.0                 !
 ! A33   A(9,10,24)            119.8351         -DE/DX =    0.0                 !
 ! A34   A(11,10,24)           120.1357         -DE/DX =    0.0                 !
 ! A35   A(10,11,12)           119.6658         -DE/DX =    0.0                 !
 ! A36   A(10,11,25)           120.1481         -DE/DX =    0.0                 !
 ! A37   A(12,11,25)           120.1855         -DE/DX =    0.0                 !
 ! A38   A(11,12,13)           120.2674         -DE/DX =    0.0                 !
 ! A39   A(11,12,26)           120.0383         -DE/DX =    0.0                 !
 ! A40   A(13,12,26)           119.6943         -DE/DX =    0.0                 !
 ! A41   A(8,13,12)            120.3286         -DE/DX =    0.0                 !
 ! A42   A(8,13,27)            119.3083         -DE/DX =    0.0                 !
 ! A43   A(12,13,27)           120.3607         -DE/DX =    0.0                 !
 ! A44   A(5,14,15)            123.5398         -DE/DX =    0.0                 !
 ! A45   A(5,14,28)            118.3809         -DE/DX =    0.0                 !
 ! A46   A(15,14,28)           118.0792         -DE/DX =    0.0                 !
 ! A47   A(2,15,14)            119.3542         -DE/DX =    0.0                 !
 ! D1    D(16,1,2,3)          -120.7118         -DE/DX =    0.0                 !
 ! D2    D(16,1,2,15)           59.1577         -DE/DX =    0.0                 !
 ! D3    D(17,1,2,3)           121.3477         -DE/DX =    0.0                 !
 ! D4    D(17,1,2,15)          -58.7828         -DE/DX =    0.0                 !
 ! D5    D(18,1,2,3)             0.3142         -DE/DX =    0.0                 !
 ! D6    D(18,1,2,15)         -179.8163         -DE/DX =    0.0                 !
 ! D7    D(1,2,3,4)            179.8495         -DE/DX =    0.0                 !
 ! D8    D(1,2,3,19)             0.276          -DE/DX =    0.0                 !
 ! D9    D(15,2,3,4)            -0.0146         -DE/DX =    0.0                 !
 ! D10   D(15,2,3,19)         -179.5882         -DE/DX =    0.0                 !
 ! D11   D(1,2,15,14)          179.993          -DE/DX =    0.0                 !
 ! D12   D(3,2,15,14)           -0.1357         -DE/DX =    0.0                 !
 ! D13   D(2,3,4,5)              0.2626         -DE/DX =    0.0                 !
 ! D14   D(2,3,4,20)          -178.6136         -DE/DX =    0.0                 !
 ! D15   D(19,3,4,5)           179.8384         -DE/DX =    0.0                 !
 ! D16   D(19,3,4,20)            0.9621         -DE/DX =    0.0                 !
 ! D17   D(3,4,5,6)            179.5932         -DE/DX =    0.0                 !
 ! D18   D(3,4,5,14)            -0.353          -DE/DX =    0.0                 !
 ! D19   D(20,4,5,6)            -1.5524         -DE/DX =    0.0                 !
 ! D20   D(20,4,5,14)          178.5014         -DE/DX =    0.0                 !
 ! D21   D(4,5,6,7)             -3.516          -DE/DX =    0.0                 !
 ! D22   D(14,5,6,7)           176.4309         -DE/DX =    0.0                 !
 ! D23   D(4,5,14,15)            0.2173         -DE/DX =    0.0                 !
 ! D24   D(4,5,14,28)         -179.8771         -DE/DX =    0.0                 !
 ! D25   D(6,5,14,15)         -179.7341         -DE/DX =    0.0                 !
 ! D26   D(6,5,14,28)            0.1715         -DE/DX =    0.0                 !
 ! D27   D(5,6,7,8)             73.1698         -DE/DX =    0.0                 !
 ! D28   D(5,6,7,21)           -51.8753         -DE/DX =    0.0                 !
 ! D29   D(5,6,7,22)          -166.9676         -DE/DX =    0.0                 !
 ! D30   D(6,7,8,9)           -154.6724         -DE/DX =    0.0                 !
 ! D31   D(6,7,8,13)            26.7639         -DE/DX =    0.0                 !
 ! D32   D(21,7,8,9)           -29.3992         -DE/DX =    0.0                 !
 ! D33   D(21,7,8,13)          152.037          -DE/DX =    0.0                 !
 ! D34   D(22,7,8,9)            88.159          -DE/DX =    0.0                 !
 ! D35   D(22,7,8,13)          -90.4048         -DE/DX =    0.0                 !
 ! D36   D(7,8,9,10)          -178.137          -DE/DX =    0.0                 !
 ! D37   D(7,8,9,23)             2.0643         -DE/DX =    0.0                 !
 ! D38   D(13,8,9,10)            0.4484         -DE/DX =    0.0                 !
 ! D39   D(13,8,9,23)         -179.3503         -DE/DX =    0.0                 !
 ! D40   D(7,8,13,12)          178.5113         -DE/DX =    0.0                 !
 ! D41   D(7,8,13,27)           -2.0607         -DE/DX =    0.0                 !
 ! D42   D(9,8,13,12)           -0.0663         -DE/DX =    0.0                 !
 ! D43   D(9,8,13,27)          179.3617         -DE/DX =    0.0                 !
 ! D44   D(8,9,10,11)           -0.4845         -DE/DX =    0.0                 !
 ! D45   D(8,9,10,24)          179.9905         -DE/DX =    0.0                 !
 ! D46   D(23,9,10,11)         179.3143         -DE/DX =    0.0                 !
 ! D47   D(23,9,10,24)          -0.2107         -DE/DX =    0.0                 !
 ! D48   D(9,10,11,12)           0.1342         -DE/DX =    0.0                 !
 ! D49   D(9,10,11,25)        -179.5797         -DE/DX =    0.0                 !
 ! D50   D(24,10,11,12)        179.6578         -DE/DX =    0.0                 !
 ! D51   D(24,10,11,25)         -0.0561         -DE/DX =    0.0                 !
 ! D52   D(10,11,12,13)          0.2462         -DE/DX =    0.0                 !
 ! D53   D(10,11,12,26)       -179.7084         -DE/DX =    0.0                 !
 ! D54   D(25,11,12,13)        179.9599         -DE/DX =    0.0                 !
 ! D55   D(25,11,12,26)          0.0054         -DE/DX =    0.0                 !
 ! D56   D(11,12,13,8)          -0.2803         -DE/DX =    0.0                 !
 ! D57   D(11,12,13,27)       -179.7022         -DE/DX =    0.0                 !
 ! D58   D(26,12,13,8)         179.6744         -DE/DX =    0.0                 !
 ! D59   D(26,12,13,27)          0.2524         -DE/DX =    0.0                 !
 ! D60   D(5,14,15,2)            0.0326         -DE/DX =    0.0                 !
 ! D61   D(28,14,15,2)        -179.8732         -DE/DX =    0.0                 !
 --------------------------------------------------------------------------------
 GradGradGradGradGradGradGradGradGradGradGradGradGradGradGradGradGradGrad

                          Input orientation:                          
 ---------------------------------------------------------------------
 Center     Atomic      Atomic             Coordinates (Angstroms)
 Number     Number       Type             X           Y           Z
 ---------------------------------------------------------------------
      1          6           0        4.508270   -1.548750   -0.033020
      2          6           0        3.272720   -0.690650   -0.055680
      3          6           0        2.159090   -1.009700   -0.832920
      4          6           0        1.034130   -0.184240   -0.818790
      5          6           0        1.064970    0.955080   -0.017430
      6          8           0        0.069860    1.864000    0.108190
      7          6           0       -1.091390    1.725860   -0.670860
      8          6           0       -2.001490    0.599280   -0.228310
      9          6           0       -2.868990   -0.002940   -1.143730
     10          6           0       -3.737710   -1.014190   -0.736650
     11          6           0       -3.739320   -1.440100    0.590940
     12          6           0       -2.870720   -0.847640    1.506860
     13          6           0       -2.008160    0.168720    1.100760
     14          6           0        2.226620    1.196620    0.732820
     15          7           0        3.285370    0.406190    0.714060
     16          1           0        4.708180   -1.901080    0.989990
     17          1           0        5.384130   -0.962600   -0.349080
     18          1           0        4.412790   -2.421790   -0.692860
     19          1           0        2.160640   -1.910460   -1.450170
     20          1           0        0.156670   -0.448270   -1.409920
     21          1           0       -0.833460    1.612300   -1.739940
     22          1           0       -1.617080    2.687150   -0.566410
     23          1           0       -2.864170    0.319470   -2.189220
     24          1           0       -4.410920   -1.476770   -1.461750
     25          1           0       -4.414270   -2.236950    0.910500
     26          1           0       -2.863530   -1.179860    2.547310
     27          1           0       -1.323860    0.630440    1.815700
     28          1           0        2.260320    2.088980    1.367990
 ---------------------------------------------------------------------
                    Distance matrix (angstroms):
                    1          2          3          4          5
     1  C    0.000000
     2  C    1.504471   0.000000
     3  C    2.539500   1.395015   0.000000
     4  C    3.814311   2.418692   1.395392   0.000000
[...]
     3  C   -0.039462   0.561046   4.995049   0.398108   0.012965   0.010589
     4  C    0.010643  -0.017831   0.398108   5.190871   0.303353  -0.092236
     5  C    0.002494  -0.042267   0.012965   0.303353   4.989179   0.294602
     6  O    0.000002  -0.001962   0.010589  -0.092236   0.294602   7.973126
     7  C   -0.000008   0.001825  -0.007096   0.043697  -0.123030   0.280874
     8  C    0.000013  -0.000944   0.002912  -0.026295   0.095584  -0.126814
     9  C   -0.000001   0.000035   0.000502  -0.002304  -0.000768   0.005797
    10  C   -0.000000   0.000001   0.000001  -0.000006   0.000577  -0.001010
    11  C   -0.000000   0.000008  -0.000109  -0.000199  -0.000856   0.000537
    12  C    0.000000  -0.000021   0.000329   0.000360   0.000294   0.001089
    13  C   -0.000002   0.000081   0.001080  -0.005186  -0.027987   0.043214
    14  C    0.001244  -0.108140  -0.031827   0.005191   0.443962  -0.040359
    15  N   -0.036880   0.448045  -0.046963  -0.055675  -0.062959   0.005013
    16  H    0.402938  -0.031215  -0.001472  -0.000715   0.000224  -0.000003
    17  H    0.402382  -0.029223  -0.002960  -0.000489   0.000056  -0.000002
    18  H    0.437323  -0.079948   0.007056   0.004441  -0.000214  -0.000002
    19  H   -0.005931  -0.032016   0.393788  -0.036268   0.008347  -0.000031
    20  H   -0.000334   0.007448  -0.023488   0.437619  -0.066671  -0.004845
    21  H   -0.000001   0.000122  -0.000146   0.015114  -0.031791  -0.032229
    22  H   -0.000000  -0.000022   0.000211  -0.001891   0.007276  -0.032211
    23  H   -0.000000   0.000002  -0.000073  -0.000000  -0.000112   0.000042
    24  H    0.000000  -0.000000  -0.000000  -0.000006   0.000013   0.000003
    25  H   -0.000000  -0.000000  -0.000000  -0.000001  -0.000002   0.000000
    26  H    0.000000  -0.000002  -0.000001   0.000029   0.000145  -0.000081
    27  H   -0.000002   0.000065  -0.000062  -0.000490  -0.005282   0.014655
    28  H   -0.000552   0.002586  -0.000351   0.005500  -0.099138   0.010000
               7          8          9         10         11         12
     1  C   -0.000008   0.000013  -0.000001  -0.000000  -0.000000   0.000000
     2  C    0.001825  -0.000944   0.000035   0.000001   0.000008  -0.000021
     3  C   -0.007096   0.002912   0.000502   0.000001  -0.000109   0.000329
     4  C    0.043697  -0.026295  -0.002304  -0.000006  -0.000199   0.000360
     5  C   -0.123030   0.095584  -0.000768   0.000577  -0.000856   0.000294
     6  O    0.280874  -0.126814   0.005797  -0.001010   0.000537   0.001089
     7  C    4.919779   0.093288  -0.058241   0.002652   0.000720   0.003382
     8  C    0.093288   5.628319   0.386789   0.021915  -0.099100   0.015491
     9  C   -0.058241   0.386789   5.104473   0.425024   0.026481  -0.066303
    10  C    0.002652   0.021915   0.425024   4.919546   0.440009   0.012789
    11  C    0.000720  -0.099100   0.026481   0.440009   4.945827   0.429403
    12  C    0.003382   0.015491  -0.066303   0.012789   0.429403   4.927720
    13  C   -0.010387   0.203040   0.005197  -0.071363   0.038982   0.425258
    14  C   -0.000868  -0.000190  -0.000517   0.000021   0.000005  -0.000083
    15  N   -0.001064  -0.000036   0.000002  -0.000000   0.000001  -0.000000
    16  H   -0.000001   0.000002   0.000000   0.000000  -0.000000  -0.000000
    17  H    0.000000  -0.000001  -0.000000  -0.000000   0.000000   0.000000
    18  H    0.000004  -0.000000   0.000000  -0.000000   0.000000  -0.000000
    19  H   -0.000154   0.000086  -0.000051   0.000002  -0.000003   0.000013
    20  H    0.013885  -0.008869   0.001414   0.000043   0.000307  -0.000620
    21  H    0.499083  -0.144273  -0.002424   0.000101   0.000470  -0.000562
    22  H    0.374209  -0.011284   0.006563  -0.001321   0.000278  -0.000012
    23  H   -0.001996  -0.071402   0.441067  -0.044438   0.010192  -0.003886
    24  H   -0.000214   0.012737  -0.056826   0.442836  -0.054215   0.010751
    25  H    0.000086  -0.002358   0.009877  -0.053054   0.439413  -0.052198
    26  H   -0.000370   0.013296  -0.002957   0.010059  -0.055361   0.442944
    27  H   -0.003857  -0.064796   0.009492  -0.003233   0.009774  -0.045069
    28  H   -0.000107  -0.000500  -0.000025   0.000001   0.000001   0.000018
              13         14         15         16         17         18
     1  C   -0.000002   0.001244  -0.036880   0.402938   0.402382   0.437323
     2  C    0.000081  -0.108140   0.448045  -0.031215  -0.029223  -0.079948
     3  C    0.001080  -0.031827  -0.046963  -0.001472  -0.002960   0.007056
     4  C   -0.005186   0.005191  -0.055675  -0.000715  -0.000489   0.004441
     5  C   -0.027987   0.443962  -0.062959   0.000224   0.000056  -0.000214
     6  O    0.043214  -0.040359   0.005013  -0.000003  -0.000002  -0.000002
     7  C   -0.010387  -0.000868  -0.001064  -0.000001   0.000000   0.000004
     8  C    0.203040  -0.000190  -0.000036   0.000002  -0.000001  -0.000000
     9  C    0.005197  -0.000517   0.000002   0.000000  -0.000000   0.000000
    10  C   -0.071363   0.000021  -0.000000   0.000000  -0.000000  -0.000000
    11  C    0.038982   0.000005   0.000001  -0.000000   0.000000   0.000000
    12  C    0.425258  -0.000083  -0.000000  -0.000000   0.000000  -0.000000
    13  C    5.174737   0.001778   0.000146  -0.000001   0.000000  -0.000001
    14  C    0.001778   4.822553   0.577036   0.000700   0.000718  -0.000016
    15  N    0.000146   0.577036   6.460437   0.001295   0.001280   0.004038
    16  H   -0.000001   0.000700   0.001295   0.547998  -0.024386  -0.022511
    17  H    0.000000   0.000718   0.001280  -0.024386   0.547804  -0.022277
    18  H   -0.000001  -0.000016   0.004038  -0.022511  -0.022277   0.562712
    19  H    0.000053  -0.000039   0.008127  -0.000165  -0.000257  -0.001221
    20  H    0.001292   0.000607  -0.001275   0.000012   0.000021  -0.000028
    21  H    0.024318   0.001953  -0.000013  -0.000000   0.000001   0.000000
    22  H   -0.012543  -0.000507   0.000012  -0.000000   0.000000   0.000000
    23  H    0.014588  -0.000003   0.000000  -0.000000   0.000000  -0.000000
    24  H   -0.004075  -0.000000   0.000000   0.000000   0.000000  -0.000000
    25  H    0.009492   0.000000   0.000000   0.000000  -0.000000   0.000000
    26  H   -0.056406   0.000002  -0.000001   0.000000  -0.000000  -0.000000
    27  H    0.445037  -0.000197   0.000139  -0.000001   0.000000  -0.000000
    28  H    0.000263   0.445386  -0.021865  -0.000037  -0.000040  -0.000002
              19         20         21         22         23         24
     1  C   -0.005931  -0.000334  -0.000001  -0.000000  -0.000000   0.000000
     2  C   -0.032016   0.007448   0.000122  -0.000022   0.000002  -0.000000
     3  C    0.393788  -0.023488  -0.000146   0.000211  -0.000073  -0.000000
     4  C   -0.036268   0.437619   0.015114  -0.001891  -0.000000  -0.000006
     5  C    0.008347  -0.066671  -0.031791   0.007276  -0.000112   0.000013
     6  O   -0.000031  -0.004845  -0.032229  -0.032211   0.000042   0.000003
     7  C   -0.000154   0.013885   0.499083   0.374209  -0.001996  -0.000214
     8  C    0.000086  -0.008869  -0.144273  -0.011284  -0.071402   0.012737
     9  C   -0.000051   0.001414  -0.002424   0.006563   0.441067  -0.056826
    10  C    0.000002   0.000043   0.000101  -0.001321  -0.044438   0.442836
    11  C   -0.000003   0.000307   0.000470   0.000278   0.010192  -0.054215
    12  C    0.000013  -0.000620  -0.000562  -0.000012  -0.003886   0.010751
    13  C    0.000053   0.001292   0.024318  -0.012543   0.014588  -0.004075
    14  C   -0.000039   0.000607   0.001953  -0.000507  -0.000003  -0.000000
    15  N    0.008127  -0.001275  -0.000013   0.000012   0.000000   0.000000
    16  H   -0.000165   0.000012  -0.000000  -0.000000  -0.000000   0.000000
    17  H   -0.000257   0.000021   0.000001   0.000000   0.000000   0.000000
    18  H   -0.001221  -0.000028   0.000000   0.000000  -0.000000  -0.000000
    19  H    0.548777  -0.005632  -0.000030   0.000001   0.000001   0.000000
    20  H   -0.005632   0.497005  -0.000118  -0.000042   0.000078  -0.000014
    21  H   -0.000030  -0.000118   0.562114  -0.028996   0.003108  -0.000054
    22  H    0.000001  -0.000042  -0.028996   0.566728   0.000778   0.000009
    23  H    0.000001   0.000078   0.003108   0.000778   0.539789  -0.006939
    24  H    0.000000  -0.000014  -0.000054   0.000009  -0.006939   0.539952
    25  H   -0.000000   0.000000  -0.000002  -0.000001  -0.000137  -0.006696
    26  H   -0.000000  -0.000008  -0.000007   0.000017   0.000030  -0.000113
    27  H    0.000010   0.000058   0.000772   0.000320  -0.000017   0.000021
    28  H    0.000154  -0.000110   0.000180  -0.000183   0.000000  -0.000000
              25         26         27         28
     1  C   -0.000000   0.000000  -0.000002  -0.000552
     2  C   -0.000000  -0.000002   0.000065   0.002586
     3  C   -0.000000  -0.000001  -0.000062  -0.000351
     4  C   -0.000001   0.000029  -0.000490   0.005500
     5  C   -0.000002   0.000145  -0.005282  -0.099138
     6  O    0.000000  -0.000081   0.014655   0.010000
     7  C    0.000086  -0.000370  -0.003857  -0.000107
     8  C   -0.002358   0.013296  -0.064796  -0.000500
     9  C    0.009877  -0.002957   0.009492  -0.000025
    10  C   -0.053054   0.010059  -0.003233   0.000001
    11  C    0.439413  -0.055361   0.009774   0.000001
    12  C   -0.052198   0.442944  -0.045069   0.000018
    13  C    0.009492  -0.056406   0.445037   0.000263
    14  C    0.000000   0.000002  -0.000197   0.445386
    15  N    0.000000  -0.000001   0.000139  -0.021865
    16  H    0.000000   0.000000  -0.000001  -0.000037
    17  H   -0.000000  -0.000000   0.000000  -0.000040
    18  H    0.000000  -0.000000  -0.000000  -0.000002
    19  H   -0.000000  -0.000000   0.000010   0.000154
    20  H    0.000000  -0.000008   0.000058  -0.000110
    21  H   -0.000002  -0.000007   0.000772   0.000180
    22  H   -0.000001   0.000017   0.000320  -0.000183
    23  H   -0.000137   0.000030  -0.000017   0.000000
    24  H   -0.006696  -0.000113   0.000021  -0.000000
    25  H    0.538891  -0.006702  -0.000097  -0.000000
    26  H   -0.006702   0.537559  -0.006421  -0.000001
    27  H   -0.000097  -0.006421   0.502910   0.000310
    28  H   -0.000000  -0.000001   0.000310   0.529635
 Mulliken charges:
               1
     1  C   -0.351432
     2  C    0.198975
     3  C   -0.229626
     4  C   -0.175333
     5  C    0.302008
     6  O   -0.307759
     7  C   -0.026092
     8  C    0.083393
     9  C   -0.232296
    10  C   -0.101152
    11  C   -0.132565
    12  C   -0.101084
    13  C   -0.200605
    14  C   -0.118410
    15  N   -0.278839
    16  H    0.127338
    17  H    0.127373
    18  H    0.110646
    19  H    0.122441
    20  H    0.152266
    21  H    0.133311
    22  H    0.132609
    23  H    0.119329
    24  H    0.122831
    25  H    0.123487
    26  H    0.124350
    27  H    0.145958
    28  H    0.128878
 Sum of Mulliken charges =  -0.00000
 Mulliken charges with hydrogens summed into heavy atoms:
               1
     1  C    0.013925
     2  C    0.198975
     3  C   -0.107186
     4  C   -0.023068
     5  C    0.302008
     6  O   -0.307759
     7  C    0.239828
     8  C    0.083393
     9  C   -0.112967
    10  C    0.021679
    11  C   -0.009077
    12  C    0.023266
    13  C   -0.054647
    14  C    0.010469
    15  N   -0.278839
 Electronic spatial extent (au):  <R**2>=           3847.8936
 Charge=             -0.0000 electrons
 Dipole moment (field-independent basis, Debye):
    X=             -2.4600    Y=             -1.0714    Z=             -1.6699  Tot=              3.1604
 Quadrupole moment (field-independent basis, Debye-Ang):
   XX=            -91.1302   YY=            -85.2041   ZZ=            -83.7020
   XY=             -1.9909   XZ=             -1.4068   YZ=             -0.7630
 Traceless Quadrupole moment (field-independent basis, Debye-Ang):
   XX=             -4.4514   YY=              1.4747   ZZ=              2.9767
   XY=             -1.9909   XZ=             -1.4068   YZ=             -0.7630
 Octapole moment (field-independent basis, Debye-Ang**2):
  XXX=            -20.0167  YYY=              8.2051  ZZZ=              2.4615  XYY=             -1.9270
  XXY=            -34.0503  XXZ=            -19.2704  XZZ=            -14.1831  YZZ=             -0.2066
  YYZ=             -1.1740  XYZ=              7.1503
 Hexadecapole moment (field-independent basis, Debye-Ang**3):
 XXXX=          -4128.3525 YYYY=           -777.0709 ZZZZ=           -460.3786 XXXY=             28.6468
 XXXZ=            -21.6748 YYYX=             -6.5186 YYYZ=              4.1792 ZZZX=              5.4417
 ZZZY=             -5.6183 XXYY=           -749.8697 XXZZ=           -747.3569 YYZZ=           -197.5463
 XXYZ=            -12.8278 YYXZ=             -0.6637 ZZXY=              7.7169
 N-N= 9.096453730038D+02 E-N=-3.291537923677D+03  KE= 6.297747027394D+02
 Breneman (CHELPG) radii used.
 Read replacement radii for each type of atom:
 Atom Element Radius
    1     6    1.50
    2     6    1.50
    3     6    1.50
    4     6    1.50
    5     6    1.50
    6     8    1.70
    7     6    1.50
    8     6    1.50
    9     6    1.50
   10     6    1.50
   11     6    1.50
   12     6    1.50
   13     6    1.50
   14     6    1.50
   15     7    1.70
   16     1    1.45
   17     1    1.45
   18     1    1.45
   19     1    1.45
   20     1    1.45
   21     1    1.45
   22     1    1.45
   23     1    1.45
   24     1    1.45
   25     1    1.45
   26     1    1.45
   27     1    1.45
   28     1    1.45
 Generate Potential Derived Charges using the Breneman model, NDens= 1.
 Grid spacing= 0.300 Box extension= 2.800
 NStep X,Y,Z=   53     37     36   Total possible points=       70596
 Number of Points to Fit=   17823

 **********************************************************************

            Electrostatic Properties Using The SCF Density.

 **********************************************************************

       Atomic Center    1 is at   4.508270 -1.548749 -0.033020
       Atomic Center    2 is at   3.272720 -0.690649 -0.055680
       Atomic Center    3 is at   2.159090 -1.009699 -0.832920
       Atomic Center    4 is at   1.034130 -0.184240 -0.818790
       Atomic Center    5 is at   1.064969  0.955080 -0.017430
       Atomic Center    6 is at   0.069859  1.864000  0.108190
       Atomic Center    7 is at  -1.091391  1.725860 -0.670860
       Atomic Center    8 is at  -2.001490  0.599279 -0.228310
       Atomic Center    9 is at  -2.868990 -0.002941 -1.143730
       Atomic Center   10 is at  -3.737710 -1.014191 -0.736650
       Atomic Center   11 is at  -3.739320 -1.440101  0.590940
       Atomic Center   12 is at  -2.870720 -0.847641  1.506860
       Atomic Center   13 is at  -2.008160  0.168719  1.100760
       Atomic Center   14 is at   2.226619  1.196621  0.732820
       Atomic Center   15 is at   3.285370  0.406191  0.714060
       Atomic Center   16 is at   4.708180 -1.901078  0.989990
       Atomic Center   17 is at   5.384130 -0.962598 -0.349080
       Atomic Center   18 is at   4.412790 -2.421789 -0.692860
       Atomic Center   19 is at   2.160640 -1.910459 -1.450170
       Atomic Center   20 is at   0.156670 -0.448270 -1.409920
       Atomic Center   21 is at  -0.833461  1.612300 -1.739940
       Atomic Center   22 is at  -1.617081  2.687150 -0.566410
       Atomic Center   23 is at  -2.864170  0.319469 -2.189220
       Atomic Center   24 is at  -4.410920 -1.476771 -1.461750
       Atomic Center   25 is at  -4.414270 -2.236951  0.910500
       Atomic Center   26 is at  -2.863530 -1.179861  2.547310
       Atomic Center   27 is at  -1.323860  0.630440  1.815700
       Atomic Center   28 is at   2.260319  2.088981  1.367990
   17823 points will be used for fitting atomic charges
 Fitting point charges to electrostatic potential
 Charges from ESP fit, RMS=   0.00378 RRMS=   0.31438:
 ESP charges:
               1
     1  C   -0.476501
     2  C    0.577694
     3  C   -0.384779
     4  C   -0.028227
     5  C    0.130048
     6  O   -0.326666
     7  C    0.092257
     8  C    0.128556
     9  C   -0.175866
    10  C   -0.067087
    11  C   -0.103038
    12  C   -0.100810
    13  C   -0.133338
    14  C    0.213892
    15  N   -0.589655
    16  H    0.127690
    17  H    0.127486
    18  H    0.109329
    19  H    0.149749
    20  H    0.087645
    21  H    0.048635
    22  H    0.051939
    23  H    0.093684
    24  H    0.091287
    25  H    0.093886
    26  H    0.102386
    27  H    0.101653
    28  H    0.058151
 Sum of ESP charges =   0.00000
 ESP charges with hydrogens summed into heavy atoms:
               1
     1  C   -0.111995
     2  C    0.577694
     3  C   -0.235030
     4  C    0.059418
     5  C    0.130048
     6  O   -0.326666
     7  C    0.192831
     8  C    0.128556
     9  C   -0.082182
    10  C    0.024199
    11  C   -0.009153
    12  C    0.001576
    13  C   -0.031685
    14  C    0.272044
    15  N   -0.589655
 Charge=   0.00000 Dipole=    -2.5073    -0.9951    -1.6894 Tot=     3.1829
 -----------------------------------------------------------------

              Electrostatic Properties (Atomic Units)

 -----------------------------------------------------------------
    Center     Electric         -------- Electric Field --------
               Potential          X             Y             Z
 -----------------------------------------------------------------
    1 Atom    -14.778198
    2 Atom    -14.738501
    3 Atom    -14.765810
    4 Atom    -14.757153
    5 Atom    -14.704904
    6 Atom    -22.317735
    7 Atom    -14.697050
    8 Atom    -14.751428
    9 Atom    -14.759287
   10 Atom    -14.759986
   11 Atom    -14.762593
   12 Atom    -14.761646
   13 Atom    -14.763677
   14 Atom    -14.744654
   15 Atom    -18.407022
   16 Atom     -1.120759
   17 Atom     -1.120756
   18 Atom     -1.120142
   19 Atom     -1.100252
   20 Atom     -1.089116
   21 Atom     -1.096376
   22 Atom     -1.097199
   23 Atom     -1.094543
   24 Atom     -1.099099
   25 Atom     -1.100975
   26 Atom     -1.101772
   27 Atom     -1.102792
   28 Atom     -1.109237
 -----------------------------------------------------------------
 Unable to Open any file for archive entry.
 1\1\GINC-NOTCH454\SP\RwB97XD\def2TZVP\C13H13N1O1\U6053008\12-Jul-2024\
 0\\#N Guess=Read Geom=Check Integral(Ultrafine) Density Pop=(ChelpG,Re
 adRadii) NMR wB97XD def2TZVP\\12397251_2\\0,1\C,0,4.50827,-1.54875,-0.
 03302\C,0,3.27272,-0.69065,-0.05568\C,0,2.15909,-1.0097,-0.83292\C,0,1
 .03413,-0.18424,-0.81879\C,0,1.06497,0.95508,-0.01743\O,0,0.06986,1.86
 4,0.10819\C,0,-1.09139,1.72586,-0.67086\C,0,-2.00149,0.59928,-0.22831\
 C,0,-2.86899,-0.00294,-1.14373\C,0,-3.73771,-1.01419,-0.73665\C,0,-3.7
 3932,-1.4401,0.59094\C,0,-2.87072,-0.84764,1.50686\C,0,-2.00816,0.1687
 2,1.10076\C,0,2.22662,1.19662,0.73282\N,0,3.28537,0.40619,0.71406\H,0,
 4.70818,-1.90108,0.98999\H,0,5.38413,-0.9626,-0.34908\H,0,4.41279,-2.4
 2179,-0.69286\H,0,2.16064,-1.91046,-1.45017\H,0,0.15667,-0.44827,-1.40
 992\H,0,-0.83346,1.6123,-1.73994\H,0,-1.61708,2.68715,-0.56641\H,0,-2.
 86417,0.31947,-2.18922\H,0,-4.41092,-1.47677,-1.46175\H,0,-4.41427,-2.
 23695,0.9105\H,0,-2.86353,-1.17986,2.54731\H,0,-1.32386,0.63044,1.8157
 \H,0,2.26032,2.08898,1.36799\\Version=ES64L-G16RevC.01\State=1-A\HF=-6
 33.1900209\RMSD=2.809e-09\Dipole=-0.9678284,-0.4215275,-0.6569919\Quad
 rupole=-3.3095164,1.096385,2.2131314,-1.4802143,-1.0459184,-0.5672351\
 PG=C01 [X(C13H13N1O1)]\\@
 The archive entry for this job was punched.


 "I COULD HAVE DONE IT IN A MUCH MORE COMPLICATED WAY"
 SAID THE RED QUEEN, IMMENSELY PROUD.

                                      -- LEWIS CARROLL
 Job cpu time:       0 days  1 hours  3 minutes 20.7 seconds.
 Elapsed time:       0 days  0 hours  4 minutes  9.8 seconds.
 File lengths (MBytes):  RWF=    183 Int=      0 D2E=      0 Chk=     27 Scr=      2
 Normal termination of Gaussian 16 at Fri Jul 12 13:32:34 2024.
