 Entering Gaussian System, Link 0=g16
 Input=12397251_5.com
 Output=12397251_5.log
 Initial command:
 /uufs/chpc.utah.edu/sys/installdir/gaussian16/C01/AVX/g16/l1.exe "/scratch/general/vast/u6053008/1287201-notchpeak.peaks/Gau-1145637.inp" -scrdir="/scratch/general/vast/u6053008/1287201-notchpeak.peaks/"
 Entering Link 1 = /uufs/chpc.utah.edu/sys/installdir/gaussian16/C01/AVX/g16/l1.exe PID=   1145638.
  
 Copyright (c) 1988-2019, Gaussian, Inc.  All Rights Reserved.
  
 This is part of the Gaussian(R) 16 program.  It is based on
 the Gaussian(R) 09 system (copyright 2009, Gaussian, Inc.),
 the Gaussian(R) 03 system (copyright 2003, Gaussian, Inc.),
 the Gaussian(R) 98 system (copyright 1998, Gaussian, Inc.),
 the Gaussian(R) 94 system (copyright 1995, Gaussian, Inc.),
 the Gaussian 92(TM) system (copyright 1992, Gaussian, Inc.),
 the Gaussian 90(TM) system (copyright 1990, Gaussian, Inc.),
 the Gaussian 88(TM) system (copyright 1988, Gaussian, Inc.),
 the Gaussian 86(TM) system (copyright 1986, Carnegie Mellon
 University), and the Gaussian 82(TM) system (copyright 1983,
 Carnegie Mellon University). Gaussian is a federally registered
 trademark of Gaussian, Inc.
  
 This software contains proprietary and confidential information,
 including trade secrets, belonging to Gaussian, Inc.
  
 This software is provided under written license and may be
 used, copied, transmitted, or stored only in accord with that
 written license.
  
 The following legend is applicable only to US Government
 contracts under FAR:
  
                    RESTRICTED RIGHTS LEGEND
  
 Use, reproduction and disclosure by the US Government is
 subject to restrictions as set forth in subparagraphs (a)
 and (c) of the Commercial Computer Software - Restricted
 Rights clause in FAR 52.227-19.
  
 Gaussian, Inc.
 340 Quinnipiac St., Bldg. 40, Wallingford CT 06492
  
  
 ---------------------------------------------------------------
 Warning -- This program may not be used in any manner that
 competes with the business of Gaussian, Inc. or will provide
 assistance to any competitor of Gaussian, Inc.  The licensee
 of this program is prohibited from giving any competitor of
 Gaussian, Inc. access to this program.  By using this program,
 the user acknowledges that Gaussian, Inc. is engaged in the
 business of creating and licensing software in the field of
 computational chemistry and represents and warrants to the
 licensee that it is not a competitor of Gaussian, Inc. and that
 it will not use this program in any manner prohibited above.
 ---------------------------------------------------------------
  

 Cite this work as:
 Gaussian 16, Revision C.01,
 M. J. Frisch, G. W. Trucks, H. B. Schlegel, G. E. Scuseria, 
 M. A. Robb, J. R. Cheeseman, G. Scalmani, V. Barone, 
 G. A. Petersson, H. Nakatsuji, X. Li, M. Caricato, A. V. Marenich, 
 J. Bloino, B. G. Janesko, R. Gomperts, B. Mennucci, H. P. Hratchian, 
 J. V. Ortiz, A. F. Izmaylov, J. L. Sonnenberg, D. Williams-Young, 
 F. Ding, F. Lipparini, F. Egidi, J. Goings, B. Peng, A. Petrone, 
 T. Henderson, D. Ranasinghe, V. G. Zakrzewski, J. Gao, N. Rega, 
 G. Zheng, W. Liang, M. Hada, M. Ehara, K. Toyota, R. Fukuda, 
 J. Hasegawa, M. Ishida, T. Nakajima, Y. Honda, O. Kitao, H. Nakai, 
 T. Vreven, K. Throssell, J. A. Montgomery, Jr., J. E. Peralta, 
 F. Ogliaro, M. J. Bearpark, J. J. Heyd, E. N. Brothers, K. N. Kudin, 
 V. N. Staroverov, T. A. Keith, R. Kobayashi, J. Normand, 
 K. Raghavachari, A. P. Rendell, J. C. Burant, S. S. Iyengar, 
 J. Tomasi, M. Cossi, J. M. Millam, M. Klene, C. Adamo, R. Cammi, 
 J. W. Ochterski, R. L. Martin, K. Morokuma, O. Farkas, 
 J. B. Foresman, and D. J. Fox, Gaussian, Inc., Wallingford CT, 2019.
 
 ******************************************
 Gaussian 16:  ES64L-G16RevC.01  3-Jul-2019
                12-Jul-2024 
 ******************************************
 %NProcShared=16
 Will use up to   16 processors via shared memory.
 %Mem=32GB
 %chk=12397251_5.chk
 ------------------------------------------------------
 #N OPT FREQ=NORAMAN Integral(Ultrafine) wB97XD def2SVP
 ------------------------------------------------------
 1/18=20,19=15,26=4,38=1/1,3;
 2/9=110,12=2,17=6,18=5,40=1/2;
 3/5=43,7=101,11=2,25=1,30=1,71=1,74=-58,75=-5/1,2,3;
 4//1;
 5/5=2,38=5/2;
 6/7=2,8=2,9=2,10=2,28=1/1;
 7//1,2,3,16;
 1/18=20,19=15,26=4/3(2);
 2/9=110/2;
 99//99;
 2/9=110/2;
 3/5=43,7=101,11=2,25=1,30=1,71=1,74=-58,75=-5/1,2,3;
 4/5=5,16=3,69=1/1;
 5/5=2,38=5/2;
 7//1,2,3,16;
 1/18=20,19=15,26=4/3(-5);
 2/9=110/2;
 6/7=2,8=2,9=2,10=2,19=2,28=1/1;
 99/9=1/99;
 ----------
 12397251_5
 ----------
 Symbolic Z-matrix:
 Charge =  0 Multiplicity = 1
 C                    -5.57451   0.04577  -0.02186 
 C                    -4.07048   0.02408  -0.0036 
 C                    -3.34095  -1.15574  -0.14489 
 C                    -1.94527  -1.1238   -0.12131 
 C                    -1.31692   0.10861   0.04487 
 O                     0.0156    0.31246   0.08998 
 C                     0.87702  -0.78372  -0.06363 
 C                     2.31306  -0.32397  -0.02216 
 C                     2.65634   1.01928  -0.18414 
 C                     3.99611   1.40754  -0.17355 
 C                     5.00338   0.45982  -0.00535 
 C                     4.66493  -0.88376   0.15738 
 C                     3.32752  -1.27121   0.15193 
 C                    -2.13204   1.24516   0.18034 
 N                    -3.45144   1.20265   0.15685 
 H                    -5.997    -0.95904  -0.15794 
 H                    -5.93562   0.69265  -0.8353 
 H                    -5.96023   0.4653    0.9193 
 H                    -3.85841  -2.10862  -0.27399 
 H                    -1.37881  -2.04923  -0.23053 
 H                     0.679    -1.28844  -1.02961 
 H                     0.70077  -1.52832   0.73544 
 H                     1.86592   1.75961  -0.31134 
 H                     4.253     2.46193  -0.29769 
 H                     6.05147   0.76662   0.00275 
 H                     5.44694  -1.63366   0.29525 
 H                     3.06892  -2.32549   0.28788 
 H                    -1.64981   2.2201    0.31373 
 

 GradGradGradGradGradGradGradGradGradGradGradGradGradGradGradGradGradGrad
 Berny optimization.
 Initialization pass.
                           ----------------------------
                           !    Initial Parameters    !
                           ! (Angstroms and Degrees)  !
 --------------------------                            --------------------------
 ! Name  Definition              Value          Derivative Info.                !
 --------------------------------------------------------------------------------
 ! R1    R(1,2)                  1.5043         estimate D2E/DX2                !
 ! R2    R(1,16)                 1.0985         estimate D2E/DX2                !
 ! R3    R(1,17)                 1.1002         estimate D2E/DX2                !
 ! R4    R(1,18)                 1.1003         estimate D2E/DX2                !
 ! R5    R(2,3)                  1.3943         estimate D2E/DX2                !
 ! R6    R(2,15)                 1.3409         estimate D2E/DX2                !
 ! R7    R(3,4)                  1.3962         estimate D2E/DX2                !
 ! R8    R(3,19)                 1.092          estimate D2E/DX2                !
 ! R9    R(4,5)                  1.3933         estimate D2E/DX2                !
 ! R10   R(4,20)                 1.0905         estimate D2E/DX2                !
 ! R11   R(5,6)                  1.3488         estimate D2E/DX2                !
 ! R12   R(5,14)                 1.4052         estimate D2E/DX2                !
 ! R13   R(6,7)                  1.4026         estimate D2E/DX2                !
 ! R14   R(7,8)                  1.5084         estimate D2E/DX2                !
 ! R15   R(7,21)                 1.1077         estimate D2E/DX2                !
 ! R16   R(7,22)                 1.1063         estimate D2E/DX2                !
 ! R17   R(8,9)                  1.3959         estimate D2E/DX2                !
 ! R18   R(8,13)                 1.3988         estimate D2E/DX2                !
 ! R19   R(9,10)                 1.3949         estimate D2E/DX2                !
 ! R20   R(9,23)                 1.0904         estimate D2E/DX2                !
 ! R21   R(10,11)                1.3932         estimate D2E/DX2                !
 ! R22   R(10,24)                1.0923         estimate D2E/DX2                !
 ! R23   R(11,12)                1.3951         estimate D2E/DX2                !
 ! R24   R(11,25)                1.0921         estimate D2E/DX2                !
 ! R25   R(12,13)                1.3924         estimate D2E/DX2                !
 ! R26   R(12,26)                1.0922         estimate D2E/DX2                !
 ! R27   R(13,27)                1.094          estimate D2E/DX2                !
 ! R28   R(14,15)                1.3203         estimate D2E/DX2                !
 ! R29   R(14,28)                1.0958         estimate D2E/DX2                !
 ! A1    A(2,1,16)             111.8921         estimate D2E/DX2                !
 ! A2    A(2,1,17)             110.2186         estimate D2E/DX2                !
 ! A3    A(2,1,18)             110.2199         estimate D2E/DX2                !
 ! A4    A(16,1,17)            108.662          estimate D2E/DX2                !
 ! A5    A(16,1,18)            108.658          estimate D2E/DX2                !
 ! A6    A(17,1,18)            107.0482         estimate D2E/DX2                !
 ! A7    A(1,2,3)              122.2822         estimate D2E/DX2                !
 ! A8    A(1,2,15)             116.7669         estimate D2E/DX2                !
 ! A9    A(3,2,15)             120.9509         estimate D2E/DX2                !
 ! A10   A(2,3,4)              120.128          estimate D2E/DX2                !
 ! A11   A(2,3,19)             120.1599         estimate D2E/DX2                !
 ! A12   A(4,3,19)             119.7121         estimate D2E/DX2                !
 ! A13   A(3,4,5)              118.2323         estimate D2E/DX2                !
 ! A14   A(3,4,20)             119.8762         estimate D2E/DX2                !
 ! A15   A(5,4,20)             121.8915         estimate D2E/DX2                !
 ! A16   A(4,5,6)              125.6773         estimate D2E/DX2                !
 ! A17   A(4,5,14)             117.7313         estimate D2E/DX2                !
 ! A18   A(6,5,14)             116.5913         estimate D2E/DX2                !
 ! A19   A(5,6,7)              119.0111         estimate D2E/DX2                !
 ! A20   A(6,7,8)              110.0891         estimate D2E/DX2                !
 ! A21   A(6,7,21)             109.9873         estimate D2E/DX2                !
 ! A22   A(6,7,22)             110.4295         estimate D2E/DX2                !
 ! A23   A(8,7,21)             109.4529         estimate D2E/DX2                !
 ! A24   A(8,7,22)             109.6906         estimate D2E/DX2                !
 ! A25   A(21,7,22)            107.1397         estimate D2E/DX2                !
 ! A26   A(7,8,9)              121.6174         estimate D2E/DX2                !
 ! A27   A(7,8,13)             119.1735         estimate D2E/DX2                !
 ! A28   A(9,8,13)             119.1922         estimate D2E/DX2                !
 ! A29   A(8,9,10)             120.2099         estimate D2E/DX2                !
 ! A30   A(8,9,23)             119.25           estimate D2E/DX2                !
 ! A31   A(10,9,23)            120.5386         estimate D2E/DX2                !
 ! A32   A(9,10,11)            120.3959         estimate D2E/DX2                !
 ! A33   A(9,10,24)            119.5834         estimate D2E/DX2                !
 ! A34   A(11,10,24)           120.0207         estimate D2E/DX2                !
 ! A35   A(10,11,12)           119.5915         estimate D2E/DX2                !
 ! A36   A(10,11,25)           120.2414         estimate D2E/DX2                !
 ! A37   A(12,11,25)           120.1667         estimate D2E/DX2                !
 ! A38   A(11,12,13)           120.0364         estimate D2E/DX2                !
 ! A39   A(11,12,26)           120.1506         estimate D2E/DX2                !
 ! A40   A(13,12,26)           119.812          estimate D2E/DX2                !
 ! A41   A(8,13,12)            120.5731         estimate D2E/DX2                !
 ! A42   A(8,13,27)            119.7763         estimate D2E/DX2                !
 ! A43   A(12,13,27)           119.6504         estimate D2E/DX2                !
 ! A44   A(5,14,15)            123.4998         estimate D2E/DX2                !
 ! A45   A(5,14,28)            118.4288         estimate D2E/DX2                !
 ! A46   A(15,14,28)           118.0714         estimate D2E/DX2                !
 ! A47   A(2,15,14)            119.4577         estimate D2E/DX2                !
 ! D1    D(16,1,2,3)            -0.0637         estimate D2E/DX2                !
 ! D2    D(16,1,2,15)          179.9577         estimate D2E/DX2                !
 ! D3    D(17,1,2,3)          -121.0941         estimate D2E/DX2                !
 ! D4    D(17,1,2,15)           58.9272         estimate D2E/DX2                !
 ! D5    D(18,1,2,3)           120.9626         estimate D2E/DX2                !
 ! D6    D(18,1,2,15)          -59.016          estimate D2E/DX2                !
 ! D7    D(1,2,3,4)            179.9976         estimate D2E/DX2                !
 ! D8    D(1,2,3,19)            -0.03           estimate D2E/DX2                !
 ! D9    D(15,2,3,4)            -0.0246         estimate D2E/DX2                !
 ! D10   D(15,2,3,19)          179.9478         estimate D2E/DX2                !
 ! D11   D(1,2,15,14)         -179.9776         estimate D2E/DX2                !
 ! D12   D(3,2,15,14)            0.0435         estimate D2E/DX2                !
 ! D13   D(2,3,4,5)             -0.0377         estimate D2E/DX2                !
 ! D14   D(2,3,4,20)           179.8987         estimate D2E/DX2                !
 ! D15   D(19,3,4,5)           179.9898         estimate D2E/DX2                !
 ! D16   D(19,3,4,20)           -0.0739         estimate D2E/DX2                !
 ! D17   D(3,4,5,6)            179.9763         estimate D2E/DX2                !
 ! D18   D(3,4,5,14)             0.0777         estimate D2E/DX2                !
 ! D19   D(20,4,5,6)             0.0413         estimate D2E/DX2                !
 ! D20   D(20,4,5,14)         -179.8573         estimate D2E/DX2                !
 ! D21   D(4,5,6,7)              1.2127         estimate D2E/DX2                !
 ! D22   D(14,5,6,7)          -178.8877         estimate D2E/DX2                !
 ! D23   D(4,5,14,15)           -0.0624         estimate D2E/DX2                !
 ! D24   D(4,5,14,28)          179.8752         estimate D2E/DX2                !
 ! D25   D(6,5,14,15)         -179.9703         estimate D2E/DX2                !
 ! D26   D(6,5,14,28)           -0.0327         estimate D2E/DX2                !
 ! D27   D(5,6,7,8)            178.2846         estimate D2E/DX2                !
 ! D28   D(5,6,7,21)            57.597          estimate D2E/DX2                !
 ! D29   D(5,6,7,22)           -60.445          estimate D2E/DX2                !
 ! D30   D(6,7,8,9)            -16.0954         estimate D2E/DX2                !
 ! D31   D(6,7,8,13)           165.4102         estimate D2E/DX2                !
 ! D32   D(21,7,8,9)           104.9129         estimate D2E/DX2                !
 ! D33   D(21,7,8,13)          -73.5814         estimate D2E/DX2                !
 ! D34   D(22,7,8,9)          -137.8063         estimate D2E/DX2                !
 ! D35   D(22,7,8,13)           43.6994         estimate D2E/DX2                !
 ! D36   D(7,8,9,10)          -178.4144         estimate D2E/DX2                !
 ! D37   D(7,8,9,23)             2.0275         estimate D2E/DX2                !
 ! D38   D(13,8,9,10)            0.0797         estimate D2E/DX2                !
 ! D39   D(13,8,9,23)         -179.4784         estimate D2E/DX2                !
 ! D40   D(7,8,13,12)          178.2082         estimate D2E/DX2                !
 ! D41   D(7,8,13,27)           -1.9646         estimate D2E/DX2                !
 ! D42   D(9,8,13,12)           -0.3231         estimate D2E/DX2                !
 ! D43   D(9,8,13,27)          179.5041         estimate D2E/DX2                !
 ! D44   D(8,9,10,11)            0.1844         estimate D2E/DX2                !
 ! D45   D(8,9,10,24)         -179.7856         estimate D2E/DX2                !
 ! D46   D(23,9,10,11)         179.7368         estimate D2E/DX2                !
 ! D47   D(23,9,10,24)          -0.2333         estimate D2E/DX2                !
 ! D48   D(9,10,11,12)          -0.2062         estimate D2E/DX2                !
 ! D49   D(9,10,11,25)        -179.9872         estimate D2E/DX2                !
 ! D50   D(24,10,11,12)        179.7637         estimate D2E/DX2                !
 ! D51   D(24,10,11,25)         -0.0173         estimate D2E/DX2                !
 ! D52   D(10,11,12,13)         -0.0364         estimate D2E/DX2                !
 ! D53   D(10,11,12,26)       -179.6742         estimate D2E/DX2                !
 ! D54   D(25,11,12,13)        179.7448         estimate D2E/DX2                !
 ! D55   D(25,11,12,26)          0.107          estimate D2E/DX2                !
 ! D56   D(11,12,13,8)           0.3028         estimate D2E/DX2                !
 ! D57   D(11,12,13,27)       -179.5246         estimate D2E/DX2                !
 ! D58   D(26,12,13,8)         179.9418         estimate D2E/DX2                !
 ! D59   D(26,12,13,27)          0.1144         estimate D2E/DX2                !
 ! D60   D(5,14,15,2)            0.0006         estimate D2E/DX2                !
 ! D61   D(28,14,15,2)        -179.9371         estimate D2E/DX2                !
 --------------------------------------------------------------------------------
 Trust Radius=3.00D-01 FncErr=1.00D-07 GrdErr=1.00D-06 EigMax=2.50D+02 EigMin=1.00D-04
 Number of steps in this run=    147 maximum allowed number of steps=    168.
 GradGradGradGradGradGradGradGradGradGradGradGradGradGradGradGradGradGrad

                          Input orientation:                          
 ---------------------------------------------------------------------
 Center     Atomic      Atomic             Coordinates (Angstroms)
 Number     Number       Type             X           Y           Z
 ---------------------------------------------------------------------
      1          6           0       -5.574510    0.045770   -0.021860
      2          6           0       -4.070480    0.024080   -0.003600
      3          6           0       -3.340950   -1.155740   -0.144890
      4          6           0       -1.945270   -1.123800   -0.121310
      5          6           0       -1.316920    0.108610    0.044870
      6          8           0        0.015600    0.312460    0.089980
      7          6           0        0.877020   -0.783720   -0.063630
      8          6           0        2.313060   -0.323970   -0.022160
      9          6           0        2.656340    1.019280   -0.184140
     10          6           0        3.996110    1.407540   -0.173550
     11          6           0        5.003380    0.459820   -0.005350
     12          6           0        4.664930   -0.883760    0.157380
     13          6           0        3.327520   -1.271210    0.151930
     14          6           0       -2.132040    1.245160    0.180340
     15          7           0       -3.451440    1.202650    0.156850
     16          1           0       -5.997000   -0.959040   -0.157940
     17          1           0       -5.935620    0.692650   -0.835300
     18          1           0       -5.960230    0.465300    0.919300
     19          1           0       -3.858410   -2.108620   -0.273990
     20          1           0       -1.378810   -2.049230   -0.230530
     21          1           0        0.679000   -1.288440   -1.029610
     22          1           0        0.700770   -1.528320    0.735440
     23          1           0        1.865920    1.759610   -0.311340
     24          1           0        4.253000    2.461930   -0.297690
     25          1           0        6.051470    0.766620    0.002750
     26          1           0        5.446940   -1.633660    0.295250
     27          1           0        3.068920   -2.325490    0.287880
     28          1           0       -1.649810    2.220100    0.313730
 ---------------------------------------------------------------------
                    Distance matrix (angstroms):
                    1          2          3          4          5
     1  C    0.000000
     2  C    1.504297   0.000000
     3  C    2.539203   1.394329   0.000000
     4  C    3.814337   2.418264   1.396245   0.000000
     5  C    4.258577   2.755284   2.394011   1.393296   0.000000
     6  O    5.597585   4.097313   3.671131   2.439774   1.348777
     7  C    6.504770   5.013372   4.235124   2.843291   2.370949
     8  C    7.896231   6.393048   5.716182   4.333928   3.656279
     9  C    8.289810   6.802435   6.379635   5.076569   4.082715
    10  C    9.668205   8.186130   7.771980   6.458360   5.473866
    11  C   10.586003   9.084317   8.500432   7.127765   6.330250
    12  C   10.283107   8.783933   8.016200   6.620425   6.064651
    13  C    9.000599   7.512148   6.676071   5.281922   4.846255
    14  C    3.651030   2.298352   2.707685   2.395380   1.405176
    15  N    2.424404   1.340888   2.380180   2.785371   2.401174
    16  H    1.098480   2.168369   2.663356   4.055244   4.804598
    17  H    1.100245   2.148827   3.259682   4.442090   4.737952
    18  H    1.100258   2.148854   3.258972   4.441623   4.738373
    19  H    2.765857   2.160207   1.091976   2.157148   3.387765
    20  H    4.694302   3.405172   2.157696   1.090517   2.176224
    21  H    6.473180   5.033186   4.118293   2.781889   2.662696
    22  H    6.513862   5.071583   4.153227   2.810549   2.688401
    23  H    7.640749   6.192545   5.969796   4.782817   3.603215
    24  H   10.123925   8.678129   8.413023   7.162899   6.056358
    25  H   11.648332  10.149152   9.588265   8.218086   7.397832
    26  H   11.153179   9.665335   8.811875   7.421472   6.989134
    27  H    8.968149   7.521733   6.530087   5.172388   5.021901
    28  H    4.499289   3.283724   3.803496   3.385000   2.154412
                    6          7          8          9         10
     6  O    0.000000
     7  C    1.402587   0.000000
     8  C    2.386617   1.508410   0.000000
     9  C    2.747407   2.536003   1.395851   0.000000
    10  C    4.136799   3.813453   2.419443   1.394934   0.000000
    11  C    4.990867   4.310062   2.802219   2.419413   1.393218
    12  C    4.801224   3.795671   2.424230   2.787944   2.409749
    13  C    3.671602   2.507800   1.398821   2.410346   2.780045
    14  C    2.343171   3.637350   4.718272   4.807541   6.140507
    15  N    3.580122   4.767583   5.965909   6.120039   7.457690
    16  H    6.150572   6.876902   8.335397   8.876640  10.269527
    17  H    6.034709   7.013359   8.350774   8.622788   9.979391
    18  H    6.035037   7.019558   8.364008   8.704582  10.060360
    19  H    4.582800   4.921779   6.429264   7.227295   8.606216
    20  H    2.761283   2.591938   4.080422   5.069550   6.390796
    21  H    2.063120   1.107733   2.148327   3.154404   4.359400
    22  H    2.067498   1.106348   2.150325   3.340681   4.506085
    23  H    2.383062   2.740038   2.150550   1.090427   2.163481
    24  H    4.767187   4.688952   3.405954   2.154868   1.092310
    25  H    6.053561   5.402119   3.894318   3.409644   2.160177
    26  H    5.773125   4.662120   3.411340   3.880123   3.401996
    27  H    4.039890   2.702784   2.161835   3.403015   3.874030
    28  H    2.542193   3.943375   4.721171   4.498085   5.724868
                   11         12         13         14         15
    11  C    0.000000
    12  C    1.395076   0.000000
    13  C    2.414479   1.392413   0.000000
    14  C    7.180909   7.122614   6.011632   0.000000
    15  N    8.488939   8.380249   7.216253   1.320294   0.000000
    16  H   11.092556  10.666857   9.334888   4.462157   3.354381
    17  H   10.972910  10.762999   9.520354   3.975426   2.723162
    18  H   11.002534  10.737528   9.479801   3.976089   2.723792
    19  H    9.230405   8.621699   7.247086   3.799291   3.363890
    20  H    6.861369   6.167300   4.785513   3.404288   3.875640
    21  H    4.775540   4.178558   2.900171   3.973041   4.967268
    22  H    4.797283   4.057607   2.703036   4.003141   5.003380
    23  H    3.409800   3.878345   3.396581   4.060799   5.366910
    24  H    2.158003   3.401532   3.872339   6.517498   7.819897
    25  H    1.092101   2.161055   3.405130   8.199413   9.514156
    26  H    2.160964   1.092199   2.154960   8.108128   9.340502
    27  H    3.403832   2.154731   1.094012   6.309603   7.414852
    28  H    6.889509   7.038063   6.081878   1.095831   2.075015
                   16         17         18         19         20
    16  H    0.000000
    17  H    1.786243   0.000000
    18  H    1.786209   1.769439   0.000000
    19  H    2.430755   3.532277   3.530815   0.000000
    20  H    4.745678   5.352399   5.351110   2.480692   0.000000
    21  H    6.740719   6.907653   7.138153   4.672445   2.334933
    22  H    6.781027   7.172280   6.955375   4.705509   2.351403
    23  H    8.321064   7.891576   8.027349   6.908875   5.004205
    24  H   10.806714  10.355064  10.477484   9.310503   7.216118
    25  H   12.172483  12.016577  12.050386  10.322273   7.949371
    26  H   11.472761  11.672726  11.615447   9.334836   6.858572
    27  H    9.179153   9.563077   9.471681   6.953462   4.486354
    28  H    5.406243   4.692711   4.693161   4.895012   4.312405
                   21         22         23         24         25
    21  H    0.000000
    22  H    1.781409   0.000000
    23  H    3.348925   3.641951   0.000000
    24  H    5.232061   5.441304   2.488291   0.000000
    25  H    5.844012   5.868013   4.313179   2.489746   0.000000
    26  H    4.960613   4.767703   4.970507   4.307079   2.492460
    27  H    2.919413   2.538489   4.300502   4.966319   4.305583
    28  H    4.420155   4.444516   3.600433   5.939317   7.843407
                   26         27         28
    26  H    0.000000
    27  H    2.476623   0.000000
    28  H    8.075622   6.552058   0.000000
 Stoichiometry    C13H13NO
 Framework group  C1[X(C13H13NO)]
 Deg. of freedom    78
 Full point group                 C1      NOp   1
 Largest Abelian subgroup         C1      NOp   1
 Largest concise Abelian subgroup C1      NOp   1
                         Standard orientation:                         
 ---------------------------------------------------------------------
 Center     Atomic      Atomic             Coordinates (Angstroms)
 Number     Number       Type             X           Y           Z
 ---------------------------------------------------------------------
      1          6           0        5.574510    0.045771    0.021859
      2          6           0        4.070480    0.024081    0.003599
      3          6           0        3.340950   -1.155739    0.144889
      4          6           0        1.945270   -1.123800    0.121309
      5          6           0        1.316920    0.108610   -0.044871
      6          8           0       -0.015600    0.312460   -0.089981
      7          6           0       -0.877020   -0.783720    0.063629
      8          6           0       -2.313060   -0.323970    0.022159
      9          6           0       -2.656340    1.019280    0.184139
     10          6           0       -3.996110    1.407539    0.173549
     11          6           0       -5.003380    0.459819    0.005349
     12          6           0       -4.664930   -0.883761   -0.157381
     13          6           0       -3.327520   -1.271211   -0.151931
     14          6           0        2.132040    1.245160   -0.180341
     15          7           0        3.451440    1.202651   -0.156851
     16          1           0        5.997000   -0.959039    0.157939
     17          1           0        5.935620    0.692651    0.835299
     18          1           0        5.960230    0.465301   -0.919301
     19          1           0        3.858410   -2.108619    0.273989
     20          1           0        1.378810   -2.049230    0.230529
     21          1           0       -0.679000   -1.288440    1.029609
     22          1           0       -0.700770   -1.528320   -0.735441
     23          1           0       -1.865920    1.759610    0.311339
     24          1           0       -4.253000    2.461929    0.297689
     25          1           0       -6.051470    0.766619   -0.002751
     26          1           0       -5.446940   -1.633661   -0.295251
     27          1           0       -3.068920   -2.325491   -0.287881
     28          1           0        1.649810    2.220100   -0.313731
 ---------------------------------------------------------------------
 Rotational constants (GHZ):           2.6368076           0.2226243           0.2063809
 Standard basis: def2SVP (5D, 7F)
 There are   290 symmetry adapted cartesian basis functions of A   symmetry.
 There are   275 symmetry adapted basis functions of A   symmetry.
   275 basis functions,   466 primitive gaussians,   290 cartesian basis functions
    53 alpha electrons       53 beta electrons
       nuclear repulsion energy       876.3093049384 Hartrees.
 NAtoms=   28 NActive=   28 NUniq=   28 SFac= 1.00D+00 NAtFMM=   60 NAOKFM=F Big=F
 Integral buffers will be    131072 words long.
 Raffenetti 2 integral format.
 Two-electron integral symmetry is turned on.
 Nuclear repulsion after empirical dispersion term =      876.2940349504 Hartrees.
 One-electron integrals computed using PRISM.
   1 Symmetry operations used in ECPInt.
 ECPInt:  NShTT=    8385 NPrTT=   30369 LenC2=    7492 LenP2D=   19586.
 LDataN:  DoStor=T MaxTD1= 4 Len=   56
 NBasis=   275 RedAO= T EigKep=  2.92D-04  NBF=   275
 NBsUse=   275 1.00D-06 EigRej= -1.00D+00 NBFU=   275
 ExpMin= 1.22D-01 ExpMax= 2.27D+03 ExpMxC= 3.41D+02 IAcc=3 IRadAn=         5 AccDes= 0.00D+00
 Harris functional with IExCor= 4639 and IRadAn=       5 diagonalized for initial guess.
 HarFok:  IExCor= 4639 AccDes= 0.00D+00 IRadAn=         5 IDoV= 1 UseB2=F ITyADJ=14
 ICtDFT=  3500011 ScaDFX=  1.000000  1.000000  1.000000  1.000000
 FoFCou: FMM=F IPFlag=           0 FMFlag=      100000 FMFlg1=           0
         NFxFlg=           0 DoJE=T BraDBF=F KetDBF=T FulRan=T
         wScrn=  0.000000 ICntrl=       500 IOpCl=  0 I1Cent=   200000004 NGrid=           0
         NMat0=    1 NMatS0=      1 NMatT0=    0 NMatD0=    1 NMtDS0=    0 NMtDT0=    0
 Petite list used in FoFCou.
 Requested convergence on RMS density matrix=1.00D-08 within 128 cycles.
 Requested convergence on MAX density matrix=1.00D-06.
 Requested convergence on             energy=1.00D-06.
 No special actions if energy rises.
 Integral accuracy reduced to 1.0D-05 until final iterations.
 Initial convergence to 1.0D-05 achieved.  Increase integral accuracy.
 SCF Done:  E(RwB97XD) =  -632.513013838     A.U. after   15 cycles
            NFock= 15  Conv=0.73D-08     -V/T= 2.0108

 **********************************************************************

            Population analysis using the SCF Density.

 **********************************************************************

 Orbital symmetries:
       Occupied  (A) (A) (A) (A) (A) (A) (A) (A) (A) (A) (A) (A)
                 (A) (A) (A) (A) (A) (A) (A) (A) (A) (A) (A) (A)
                 (A) (A) (A) (A) (A) (A) (A) (A) (A) (A) (A) (A)
                 (A) (A) (A) (A) (A) (A) (A) (A) (A) (A) (A) (A)
                 (A) (A) (A) (A) (A)
       Virtual   (A) (A) (A) (A) (A) (A) (A) (A) (A) (A) (A) (A)
                 (A) (A) (A) (A) (A) (A) (A) (A) (A) (A) (A) (A)
                 (A) (A) (A) (A) (A) (A) (A) (A) (A) (A) (A) (A)
                 (A) (A) (A) (A) (A) (A) (A) (A) (A) (A) (A) (A)
                 (A) (A) (A) (A) (A) (A) (A) (A) (A) (A) (A) (A)
                 (A) (A) (A) (A) (A) (A) (A) (A) (A) (A) (A) (A)
                 (A) (A) (A) (A) (A) (A) (A) (A) (A) (A) (A) (A)
                 (A) (A) (A) (A) (A) (A) (A) (A) (A) (A) (A) (A)
                 (A) (A) (A) (A) (A) (A) (A) (A) (A) (A) (A) (A)
                 (A) (A) (A) (A) (A) (A) (A) (A) (A) (A) (A) (A)
                 (A) (A) (A) (A) (A) (A) (A) (A) (A) (A) (A) (A)
                 (A) (A) (A) (A) (A) (A) (A) (A) (A) (A) (A) (A)
                 (A) (A) (A) (A) (A) (A) (A) (A) (A) (A) (A) (A)
                 (A) (A) (A) (A) (A) (A) (A) (A) (A) (A) (A) (A)
                 (A) (A) (A) (A) (A) (A) (A) (A) (A) (A) (A) (A)
                 (A) (A) (A) (A) (A) (A) (A) (A) (A) (A) (A) (A)
                 (A) (A) (A) (A) (A) (A) (A) (A) (A) (A) (A) (A)
                 (A) (A) (A) (A) (A) (A) (A) (A) (A) (A) (A) (A)
                 (A) (A) (A) (A) (A) (A)
 The electronic state is 1-A.
 Alpha  occ. eigenvalues --  -19.29979 -14.43551 -10.37057 -10.36859 -10.33286
 Alpha  occ. eigenvalues --  -10.32964 -10.31885 -10.31633 -10.31004 -10.30886
 Alpha  occ. eigenvalues --  -10.30788 -10.30597 -10.30515 -10.30334 -10.29188
 Alpha  occ. eigenvalues --   -1.18039  -1.03784  -0.96022  -0.90195  -0.88448
 Alpha  occ. eigenvalues --   -0.86071  -0.84220  -0.80799  -0.76474  -0.72979
 Alpha  occ. eigenvalues --   -0.70795  -0.69286  -0.67089  -0.63604  -0.61853
 Alpha  occ. eigenvalues --   -0.59191  -0.58366  -0.56986  -0.54424  -0.53624
 Alpha  occ. eigenvalues --   -0.52330  -0.51809  -0.51758  -0.50869  -0.50254
 Alpha  occ. eigenvalues --   -0.48166  -0.46441  -0.46143  -0.45665  -0.44186
 Alpha  occ. eigenvalues --   -0.43209  -0.42278  -0.42031  -0.36574  -0.33630
 Alpha  occ. eigenvalues --   -0.33364  -0.32871  -0.30342
 Alpha virt. eigenvalues --    0.04177   0.05301   0.05904   0.06821   0.13570
 Alpha virt. eigenvalues --    0.14302   0.15484   0.17294   0.17696   0.18694
 Alpha virt. eigenvalues --    0.19412   0.19682   0.20299   0.21228   0.22297
 Alpha virt. eigenvalues --    0.23723   0.24609   0.25122   0.25572   0.26753
 Alpha virt. eigenvalues --    0.28948   0.30539   0.31946   0.32618   0.35731
 Alpha virt. eigenvalues --    0.36729   0.37067   0.38132   0.39382   0.40438
 Alpha virt. eigenvalues --    0.42289   0.43371   0.44007   0.47122   0.49097
 Alpha virt. eigenvalues --    0.49272   0.49563   0.51126   0.52021   0.52646
 Alpha virt. eigenvalues --    0.53028   0.54033   0.54798   0.55050   0.55562
 Alpha virt. eigenvalues --    0.56395   0.57799   0.58337   0.59496   0.61704
 Alpha virt. eigenvalues --    0.62096   0.62863   0.63993   0.65058   0.65466
 Alpha virt. eigenvalues --    0.67599   0.68319   0.69017   0.69299   0.70161
 Alpha virt. eigenvalues --    0.70834   0.71639   0.72256   0.72875   0.73557
 Alpha virt. eigenvalues --    0.74260   0.74742   0.75058   0.75563   0.76879
 Alpha virt. eigenvalues --    0.77238   0.77987   0.78190   0.80015   0.80655
 Alpha virt. eigenvalues --    0.81370   0.82214   0.82244   0.82645   0.83270
 Alpha virt. eigenvalues --    0.84825   0.85175   0.86390   0.89857   0.90944
 Alpha virt. eigenvalues --    0.92291   0.92939   0.96272   0.99531   1.01305
 Alpha virt. eigenvalues --    1.02643   1.03047   1.09044   1.13516   1.13657
 Alpha virt. eigenvalues --    1.15013   1.17936   1.22528   1.23941   1.26158
 Alpha virt. eigenvalues --    1.27093   1.28004   1.29525   1.31970   1.32503
 Alpha virt. eigenvalues --    1.32629   1.34168   1.34670   1.36454   1.37092
 Alpha virt. eigenvalues --    1.38801   1.39297   1.40988   1.42556   1.44105
 Alpha virt. eigenvalues --    1.52477   1.54966   1.59368   1.61073   1.61620
 Alpha virt. eigenvalues --    1.62114   1.62847   1.66529   1.71287   1.74391
 Alpha virt. eigenvalues --    1.75034   1.75941   1.76782   1.78062   1.79073
 Alpha virt. eigenvalues --    1.81165   1.81333   1.82124   1.82820   1.83071
 Alpha virt. eigenvalues --    1.83422   1.84372   1.85830   1.86814   1.87339
 Alpha virt. eigenvalues --    1.88007   1.88396   1.88684   1.89314   1.89917
 Alpha virt. eigenvalues --    1.92571   1.93102   1.94914   1.96447   1.97782
 Alpha virt. eigenvalues --    2.01897   2.02684   2.03058   2.05165   2.06318
 Alpha virt. eigenvalues --    2.06475   2.07098   2.09170   2.11599   2.12045
 Alpha virt. eigenvalues --    2.15671   2.18052   2.18932   2.19994   2.21707
 Alpha virt. eigenvalues --    2.22768   2.24063   2.27538   2.28005   2.30867
 Alpha virt. eigenvalues --    2.32248   2.34420   2.35028   2.36619   2.38593
 Alpha virt. eigenvalues --    2.38957   2.41402   2.43040   2.44647   2.45644
 Alpha virt. eigenvalues --    2.45738   2.47866   2.48306   2.51685   2.56751
 Alpha virt. eigenvalues --    2.59125   2.59586   2.63801   2.63883   2.69672
 Alpha virt. eigenvalues --    2.70745   2.71430   2.71844   2.73095   2.77812
 Alpha virt. eigenvalues --    2.80889   2.81259   2.81756   2.82543   2.85714
 Alpha virt. eigenvalues --    2.89790   2.91933   2.94341   2.95753   2.96849
 Alpha virt. eigenvalues --    2.97339   2.99939   3.00692   3.03179   3.05897
 Alpha virt. eigenvalues --    3.11305   3.14369   3.16427   3.17343   3.21416
 Alpha virt. eigenvalues --    3.23442   3.32530   3.40790   3.53952   3.59859
 Alpha virt. eigenvalues --    3.72745   3.80970
          Condensed to atoms (all electrons):
               1          2          3          4          5          6
     1  C    4.577478   0.393742  -0.091320   0.006287   0.002065   0.000005
     2  C    0.393742   4.963005   0.474176  -0.012816  -0.066322   0.000267
     3  C   -0.091320   0.474176   4.953554   0.375741   0.038620   0.004094
     4  C    0.006287  -0.012816   0.375741   5.109067   0.332998  -0.075636
     5  C    0.002065  -0.066322   0.038620   0.332998   4.935720   0.358957
     6  O    0.000005   0.000267   0.004094  -0.075636   0.358957   7.885921
     7  C   -0.000000   0.000065   0.000919  -0.001218  -0.053127   0.319197
     8  C   -0.000000   0.000002  -0.000014   0.000592   0.008289  -0.066580
     9  C    0.000000   0.000000  -0.000001  -0.000012   0.000212   0.007628
    10  C    0.000000   0.000000   0.000000   0.000004  -0.000017   0.000715
    11  C    0.000000  -0.000000  -0.000000  -0.000000   0.000001  -0.000003
    12  C    0.000000  -0.000000   0.000000   0.000000  -0.000002  -0.000083
    13  C   -0.000000  -0.000000  -0.000002  -0.000018   0.000028   0.001640
    14  C    0.003659  -0.063896  -0.061395  -0.042671   0.442630  -0.057318
    15  N   -0.074076   0.500381  -0.047378  -0.046300  -0.027443   0.001759
    16  H    0.383105  -0.013337  -0.009755   0.001692  -0.000224  -0.000000
    17  H    0.377394  -0.011485   0.004500  -0.000433   0.000119  -0.000000
    18  H    0.377330  -0.011390   0.004441  -0.000455   0.000127  -0.000000
    19  H   -0.009258  -0.042617   0.418841  -0.052536   0.011803  -0.000051
    20  H   -0.000275   0.011659  -0.048396   0.446486  -0.075363  -0.006857
    21  H    0.000000  -0.000048   0.000136   0.007036  -0.005456  -0.030097
    22  H    0.000000  -0.000039   0.000350   0.006912  -0.007868  -0.029324
    23  H    0.000000   0.000000  -0.000005   0.000099  -0.000239   0.015633
    24  H   -0.000000   0.000000  -0.000000   0.000000   0.000001  -0.000016
    25  H   -0.000000   0.000000  -0.000000   0.000000  -0.000000   0.000000
    26  H   -0.000000   0.000000  -0.000000  -0.000000  -0.000000   0.000001
    27  H    0.000000   0.000000  -0.000000   0.000007   0.000002   0.000060
    28  H   -0.000175   0.005501   0.000344   0.008920  -0.069814   0.004424
               7          8          9         10         11         12
     1  C   -0.000000  -0.000000   0.000000   0.000000   0.000000   0.000000
     2  C    0.000065   0.000002   0.000000   0.000000  -0.000000  -0.000000
     3  C    0.000919  -0.000014  -0.000001   0.000000  -0.000000   0.000000
     4  C   -0.001218   0.000592  -0.000012   0.000004  -0.000000   0.000000
     5  C   -0.053127   0.008289   0.000212  -0.000017   0.000001  -0.000002
     6  O    0.319197  -0.066580   0.007628   0.000715  -0.000003  -0.000083
     7  C    4.551521   0.311006  -0.081576   0.011984  -0.000214   0.009022
     8  C    0.311006   5.341987   0.336248   0.063432  -0.132474   0.063156
     9  C   -0.081576   0.336248   5.008439   0.333178   0.060807  -0.115413
    10  C    0.011984   0.063432   0.333178   5.007570   0.325036   0.060542
    11  C   -0.000214  -0.132474   0.060807   0.325036   5.038430   0.330693
    12  C    0.009022   0.063156  -0.115413   0.060542   0.330693   4.965597
    13  C   -0.066867   0.338065   0.049777  -0.121391   0.057814   0.364205
    14  C    0.003819   0.000459  -0.000111  -0.000007   0.000000  -0.000000
    15  N   -0.000078  -0.000002   0.000001   0.000000   0.000000   0.000000
    16  H    0.000000   0.000000  -0.000000  -0.000000  -0.000000  -0.000000
    17  H   -0.000000   0.000000  -0.000000  -0.000000  -0.000000  -0.000000
    18  H    0.000000  -0.000000   0.000000   0.000000   0.000000   0.000000
    19  H   -0.000049  -0.000001   0.000000   0.000000   0.000000  -0.000000
    20  H    0.005915   0.000638  -0.000022  -0.000000  -0.000000  -0.000000
    21  H    0.384126  -0.016269  -0.005035  -0.000171   0.000043  -0.000273
    22  H    0.398713  -0.042360   0.007192  -0.000083   0.000014   0.000538
    23  H   -0.021665  -0.060641   0.450101  -0.061857   0.012019  -0.001573
    24  H   -0.000271   0.013647  -0.063884   0.446194  -0.065720   0.012418
    25  H    0.000029  -0.001381   0.012177  -0.062206   0.443786  -0.063009
    26  H   -0.000276   0.013692  -0.001507   0.012299  -0.064839   0.444974
    27  H   -0.012935  -0.071094   0.012718  -0.001543   0.012434  -0.056212
    28  H   -0.000403  -0.000208  -0.000019   0.000007  -0.000000  -0.000000
              13         14         15         16         17         18
     1  C   -0.000000   0.003659  -0.074076   0.383105   0.377394   0.377330
     2  C   -0.000000  -0.063896   0.500381  -0.013337  -0.011485  -0.011390
     3  C   -0.000002  -0.061395  -0.047378  -0.009755   0.004500   0.004441
     4  C   -0.000018  -0.042671  -0.046300   0.001692  -0.000433  -0.000455
     5  C    0.000028   0.442630  -0.027443  -0.000224   0.000119   0.000127
     6  O    0.001640  -0.057318   0.001759  -0.000000  -0.000000  -0.000000
     7  C   -0.066867   0.003819  -0.000078   0.000000  -0.000000   0.000000
     8  C    0.338065   0.000459  -0.000002   0.000000   0.000000  -0.000000
     9  C    0.049777  -0.000111   0.000001  -0.000000  -0.000000   0.000000
    10  C   -0.121391  -0.000007   0.000000  -0.000000  -0.000000   0.000000
    11  C    0.057814   0.000000   0.000000  -0.000000  -0.000000   0.000000
    12  C    0.364205  -0.000000   0.000000  -0.000000  -0.000000   0.000000
    13  C    5.015357   0.000011  -0.000000   0.000000   0.000000   0.000000
    14  C    0.000011   4.795010   0.551547  -0.000085   0.000356   0.000322
    15  N   -0.000000   0.551547   6.291509   0.005058   0.001363   0.001415
    16  H    0.000000  -0.000085   0.005058   0.648546  -0.019423  -0.019375
    17  H    0.000000   0.000356   0.001363  -0.019423   0.606932  -0.014157
    18  H    0.000000   0.000322   0.001415  -0.019375  -0.014157   0.606781
    19  H    0.000000  -0.000105   0.005964   0.002587   0.000069   0.000066
    20  H    0.000057   0.007394  -0.000257   0.000012   0.000008   0.000009
    21  H   -0.003150   0.000257   0.000001  -0.000000   0.000000  -0.000000
    22  H   -0.002263   0.000035   0.000007   0.000000  -0.000000   0.000000
    23  H    0.012492  -0.000110   0.000003  -0.000000  -0.000000  -0.000000
    24  H   -0.001462  -0.000000  -0.000000   0.000000   0.000000  -0.000000
    25  H    0.012525  -0.000000   0.000000   0.000000  -0.000000   0.000000
    26  H   -0.063662   0.000000  -0.000000   0.000000   0.000000   0.000000
    27  H    0.443162   0.000000  -0.000000   0.000000  -0.000000  -0.000000
    28  H    0.000000   0.417029  -0.034195   0.000003  -0.000033  -0.000034
              19         20         21         22         23         24
     1  C   -0.009258  -0.000275   0.000000   0.000000   0.000000  -0.000000
     2  C   -0.042617   0.011659  -0.000048  -0.000039   0.000000   0.000000
     3  C    0.418841  -0.048396   0.000136   0.000350  -0.000005  -0.000000
     4  C   -0.052536   0.446486   0.007036   0.006912   0.000099   0.000000
     5  C    0.011803  -0.075363  -0.005456  -0.007868  -0.000239   0.000001
     6  O   -0.000051  -0.006857  -0.030097  -0.029324   0.015633  -0.000016
     7  C   -0.000049   0.005915   0.384126   0.398713  -0.021665  -0.000271
     8  C   -0.000001   0.000638  -0.016269  -0.042360  -0.060641   0.013647
     9  C    0.000000  -0.000022  -0.005035   0.007192   0.450101  -0.063884
    10  C    0.000000  -0.000000  -0.000171  -0.000083  -0.061857   0.446194
    11  C    0.000000  -0.000000   0.000043   0.000014   0.012019  -0.065720
    12  C   -0.000000  -0.000000  -0.000273   0.000538  -0.001573   0.012418
    13  C    0.000000   0.000057  -0.003150  -0.002263   0.012492  -0.001462
    14  C   -0.000105   0.007394   0.000257   0.000035  -0.000110  -0.000000
    15  N    0.005964  -0.000257   0.000001   0.000007   0.000003  -0.000000
    16  H    0.002587   0.000012  -0.000000   0.000000  -0.000000   0.000000
    17  H    0.000069   0.000008   0.000000  -0.000000  -0.000000   0.000000
    18  H    0.000066   0.000009  -0.000000   0.000000  -0.000000  -0.000000
    19  H    0.662063  -0.011499   0.000020   0.000015   0.000000  -0.000000
    20  H   -0.011499   0.646098   0.000812   0.000801   0.000003   0.000000
    21  H    0.000020   0.000812   0.663052  -0.046152   0.000585   0.000006
    22  H    0.000015   0.000801  -0.046152   0.668916   0.000840   0.000005
    23  H    0.000000   0.000003   0.000585   0.000840   0.640097  -0.010587
    24  H   -0.000000   0.000000   0.000006   0.000005  -0.010587   0.657198
    25  H    0.000000  -0.000000  -0.000001  -0.000001  -0.000189  -0.011106
    26  H   -0.000000   0.000000   0.000008  -0.000003   0.000022  -0.000220
    27  H    0.000000   0.000015   0.001169   0.003965  -0.000157   0.000025
    28  H    0.000067  -0.000221   0.000080   0.000039   0.000580  -0.000000
              25         26         27         28
     1  C   -0.000000  -0.000000   0.000000  -0.000175
     2  C    0.000000   0.000000   0.000000   0.005501
     3  C   -0.000000  -0.000000  -0.000000   0.000344
     4  C    0.000000  -0.000000   0.000007   0.008920
     5  C   -0.000000  -0.000000   0.000002  -0.069814
     6  O    0.000000   0.000001   0.000060   0.004424
     7  C    0.000029  -0.000276  -0.012935  -0.000403
     8  C   -0.001381   0.013692  -0.071094  -0.000208
     9  C    0.012177  -0.001507   0.012718  -0.000019
    10  C   -0.062206   0.012299  -0.001543   0.000007
    11  C    0.443786  -0.064839   0.012434  -0.000000
    12  C   -0.063009   0.444974  -0.056212  -0.000000
    13  C    0.012525  -0.063662   0.443162   0.000000
    14  C   -0.000000   0.000000   0.000000   0.417029
    15  N    0.000000  -0.000000  -0.000000  -0.034195
    16  H    0.000000   0.000000   0.000000   0.000003
    17  H   -0.000000   0.000000  -0.000000  -0.000033
    18  H    0.000000   0.000000  -0.000000  -0.000034
    19  H    0.000000  -0.000000   0.000000   0.000067
    20  H   -0.000000   0.000000   0.000015  -0.000221
    21  H   -0.000001   0.000008   0.001169   0.000080
    22  H   -0.000001  -0.000003   0.003965   0.000039
    23  H   -0.000189   0.000022  -0.000157   0.000580
    24  H   -0.011106  -0.000220   0.000025  -0.000000
    25  H    0.657563  -0.010994  -0.000223  -0.000000
    26  H   -0.010994   0.659809  -0.011440   0.000000
    27  H   -0.000223  -0.011440   0.672321   0.000000
    28  H   -0.000000   0.000000   0.000000   0.635600
 Mulliken charges:
               1
     1  C    0.054038
     2  C   -0.126848
     3  C   -0.017453
     4  C   -0.063746
     5  C    0.174300
     6  O   -0.334337
     7  C    0.242362
     8  C   -0.100188
     9  C   -0.010899
    10  C   -0.013686
    11  C   -0.017827
    12  C   -0.014579
    13  C   -0.036320
    14  C    0.003168
    15  N   -0.129279
    16  H    0.021195
    17  H    0.054788
    18  H    0.054919
    19  H    0.014617
    20  H    0.022983
    21  H    0.049318
    22  H    0.039751
    23  H    0.024551
    24  H    0.023773
    25  H    0.023030
    26  H    0.022137
    27  H    0.007724
    28  H    0.032508
 Sum of Mulliken charges =  -0.00000
 Mulliken charges with hydrogens summed into heavy atoms:
               1
     1  C    0.184941
     2  C   -0.126848
     3  C   -0.002835
     4  C   -0.040763
     5  C    0.174300
     6  O   -0.334337
     7  C    0.331431
     8  C   -0.100188
     9  C    0.013652
    10  C    0.010087
    11  C    0.005203
    12  C    0.007558
    13  C   -0.028596
    14  C    0.035676
    15  N   -0.129279
 Electronic spatial extent (au):  <R**2>=           5044.6418
 Charge=             -0.0000 electrons
 Dipole moment (field-independent basis, Debye):
    X=             -1.1533    Y=             -2.6005    Z=              0.3849  Tot=              2.8707
 Quadrupole moment (field-independent basis, Debye-Ang):
   XX=            -82.3684   YY=            -82.1084   ZZ=            -92.0617
   XY=             -6.2199   XZ=              1.1200   YZ=              0.6690
 Traceless Quadrupole moment (field-independent basis, Debye-Ang):
   XX=              3.1444   YY=              3.4045   ZZ=             -6.5489
   XY=             -6.2199   XZ=              1.1200   YZ=              0.6690
 Octapole moment (field-independent basis, Debye-Ang**2):
  XXX=            -19.2410  YYY=             -4.6118  ZZZ=             -0.8236  XYY=            -16.0614
  XXY=            -24.0186  XXZ=              0.8865  XZZ=             11.4035  YZZ=              1.2329
  YYZ=              1.2639  XYZ=             -3.7035
 Hexadecapole moment (field-independent basis, Debye-Ang**3):
 XXXX=          -5767.1895 YYYY=           -582.2933 ZZZZ=           -120.2851 XXXY=           -102.4928
 XXXZ=             30.5567 YYYX=            -33.6011 YYYZ=              2.5472 ZZZX=             -2.7681
 ZZZY=             -0.8495 XXYY=          -1111.7618 XXZZ=          -1128.2576 YYZZ=           -129.6507
 XXYZ=             16.7716 YYXZ=              6.0412 ZZXY=              9.2721
 N-N= 8.762940349504D+02 E-N=-3.219366604683D+03  KE= 6.257606039141D+02
   1 Symmetry operations used in ECPInt.
 ECPInt:  NShTT=    8385 NPrTT=   30369 LenC2=    7492 LenP2D=   19586.
 LDataN:  DoStor=T MaxTD1= 5 Len=  102
 Calling FoFJK, ICntrl=      2127 FMM=F ISym2X=0 I1Cent= 0 IOpClX= 0 NMat=1 NMatS=1 NMatT=0.
 ***** Axes restored to original set *****
 -------------------------------------------------------------------
 Center     Atomic                   Forces (Hartrees/Bohr)
 Number     Number              X              Y              Z
 -------------------------------------------------------------------
      1        6           0.000001311    0.000006844    0.000004155
      2        6          -0.000004321   -0.000003467   -0.000003198
      3        6           0.000005377    0.000006621    0.000001959
      4        6          -0.000005706    0.000003693   -0.000001565
      5        6          -0.000002604   -0.000001715    0.000001917
      6        8           0.000004187    0.000001716    0.000000221
      7        6          -0.000004312   -0.000002764   -0.000003200
      8        6           0.000006530   -0.000006809    0.000000720
      9        6          -0.000001942    0.000001533    0.000001230
     10        6           0.000005209   -0.000007936    0.000000563
     11        6          -0.000003156   -0.000001585    0.000000589
     12        6           0.000003895    0.000003812   -0.000001979
     13        6          -0.000007716   -0.000006410    0.000001312
     14        6           0.000003517    0.000003828   -0.000000213
     15        7           0.000002039    0.000004314    0.000001938
     16        1          -0.000001140    0.000000939   -0.000000768
     17        1           0.000000571    0.000002168    0.000001090
     18        1           0.000001242    0.000001050   -0.000003797
     19        1          -0.000002904   -0.000001298   -0.000001234
     20        1           0.000000884   -0.000001399   -0.000000571
     21        1           0.000000625    0.000000950    0.000001020
     22        1          -0.000000829    0.000000628   -0.000000080
     23        1          -0.000001615    0.000000346    0.000000352
     24        1           0.000001577   -0.000000640    0.000000489
     25        1           0.000000551   -0.000002982    0.000000438
     26        1          -0.000001083   -0.000002701   -0.000000405
     27        1          -0.000000213    0.000002940   -0.000001085
     28        1           0.000000028   -0.000001677    0.000000104
 -------------------------------------------------------------------
 Cartesian Forces:  Max     0.000007936 RMS     0.000003034

 GradGradGradGradGradGradGradGradGradGradGradGradGradGradGradGradGradGrad
 Berny optimization.
 FormGI is forming the generalized inverse of G from B-inverse, IUseBI=4.
 Internal  Forces:  Max     0.000005409 RMS     0.000001468
 Search for a local minimum.
 Step number   1 out of a maximum of  147
 All quantities printed in internal units (Hartrees-Bohrs-Radians)
 Mixed Optimization -- En-DIIS/RFO-DIIS
 Second derivative matrix not updated -- first step.
 ITU=  0
     Eigenvalues ---    0.00655   0.00709   0.01533   0.01552   0.01658
     Eigenvalues ---    0.02106   0.02126   0.02147   0.02150   0.02150
     Eigenvalues ---    0.02157   0.02160   0.02162   0.02163   0.02168
     Eigenvalues ---    0.02170   0.02176   0.02197   0.02267   0.02369
     Eigenvalues ---    0.02499   0.06316   0.07099   0.07389   0.07463
     Eigenvalues ---    0.11540   0.14011   0.16000   0.16000   0.16000
     Eigenvalues ---    0.16000   0.16000   0.16000   0.16000   0.16000
     Eigenvalues ---    0.16000   0.16000   0.16000   0.22000   0.22000
     Eigenvalues ---    0.22033   0.22340   0.23394   0.23476   0.24581
     Eigenvalues ---    0.24991   0.25000   0.25000   0.25000   0.31511
     Eigenvalues ---    0.31931   0.32841   0.32990   0.33654   0.33655
     Eigenvalues ---    0.33851   0.34147   0.34353   0.34547   0.34560
     Eigenvalues ---    0.34571   0.34585   0.34753   0.34763   0.41920
     Eigenvalues ---    0.42120   0.42249   0.44303   0.45194   0.45648
     Eigenvalues ---    0.46103   0.46381   0.46544   0.46584   0.46784
     Eigenvalues ---    0.55282   0.55430   0.60142
 RFO step:  Lambda= 0.00000000D+00 EMin= 6.54699450D-03
 Linear search not attempted -- first point.
 Iteration  1 RMS(Cart)=  0.00005359 RMS(Int)=  0.00000000
 Iteration  2 RMS(Cart)=  0.00000000 RMS(Int)=  0.00000000
 Variable       Old X    -DE/DX   Delta X   Delta X   Delta X     New X
                                 (Linear)    (Quad)   (Total)
    R1        2.84271  -0.00000   0.00000  -0.00001  -0.00001   2.84270
    R2        2.07583   0.00000   0.00000   0.00001   0.00001   2.07583
    R3        2.07916  -0.00000   0.00000  -0.00000  -0.00000   2.07916
    R4        2.07919  -0.00000   0.00000  -0.00001  -0.00001   2.07917
    R5        2.63490  -0.00000   0.00000  -0.00000  -0.00000   2.63490
    R6        2.53391   0.00000   0.00000   0.00001   0.00001   2.53392
    R7        2.63852  -0.00000   0.00000  -0.00001  -0.00001   2.63851
    R8        2.06354   0.00000   0.00000   0.00001   0.00001   2.06355
    R9        2.63295  -0.00000   0.00000  -0.00000  -0.00000   2.63295
   R10        2.06078   0.00000   0.00000   0.00001   0.00001   2.06079
   R11        2.54882   0.00000   0.00000   0.00000   0.00000   2.54882
   R12        2.65540  -0.00000   0.00000  -0.00000  -0.00000   2.65540
   R13        2.65051  -0.00000   0.00000  -0.00000  -0.00000   2.65050
   R14        2.85048   0.00000   0.00000   0.00000   0.00000   2.85048
   R15        2.09331  -0.00000   0.00000  -0.00001  -0.00001   2.09331
   R16        2.09069  -0.00000   0.00000  -0.00000  -0.00000   2.09069
   R17        2.63778   0.00000   0.00000   0.00000   0.00000   2.63778
   R18        2.64339  -0.00000   0.00000  -0.00001  -0.00001   2.64338
   R19        2.63604   0.00000   0.00000   0.00000   0.00000   2.63605
   R20        2.06061   0.00000   0.00000   0.00001   0.00001   2.06062
   R21        2.63280  -0.00000   0.00000  -0.00001  -0.00001   2.63279
   R22        2.06417   0.00000   0.00000   0.00000   0.00000   2.06417
   R23        2.63631  -0.00000   0.00000  -0.00001  -0.00001   2.63630
   R24        2.06377   0.00000   0.00000   0.00000   0.00000   2.06377
   R25        2.63128   0.00000   0.00000   0.00001   0.00001   2.63129
   R26        2.06396  -0.00000   0.00000  -0.00000  -0.00000   2.06396
   R27        2.06738  -0.00000   0.00000  -0.00001  -0.00001   2.06737
   R28        2.49499   0.00000   0.00000   0.00000   0.00000   2.49499
   R29        2.07082  -0.00000   0.00000  -0.00001  -0.00001   2.07081
    A1        1.95289  -0.00000   0.00000  -0.00000  -0.00000   1.95288
    A2        1.92368   0.00000   0.00000  -0.00000  -0.00000   1.92368
    A3        1.92370   0.00000   0.00000   0.00001   0.00001   1.92371
    A4        1.89651  -0.00000   0.00000  -0.00000  -0.00000   1.89651
    A5        1.89644  -0.00000   0.00000   0.00000   0.00000   1.89644
    A6        1.86834  -0.00000   0.00000  -0.00000  -0.00000   1.86834
    A7        2.13423   0.00000   0.00000   0.00000   0.00000   2.13423
    A8        2.03797   0.00000   0.00000   0.00000   0.00000   2.03797
    A9        2.11099  -0.00000   0.00000  -0.00000  -0.00000   2.11099
   A10        2.09663   0.00000   0.00000   0.00000   0.00000   2.09663
   A11        2.09719  -0.00000   0.00000  -0.00000  -0.00000   2.09718
   A12        2.08937  -0.00000   0.00000  -0.00000  -0.00000   2.08937
   A13        2.06354   0.00000   0.00000   0.00000   0.00000   2.06354
   A14        2.09223   0.00000   0.00000   0.00000   0.00000   2.09224
   A15        2.12741  -0.00000   0.00000  -0.00000  -0.00000   2.12740
   A16        2.19348   0.00000   0.00000   0.00000   0.00000   2.19349
   A17        2.05480   0.00000   0.00000   0.00000   0.00000   2.05480
   A18        2.03490  -0.00000   0.00000  -0.00001  -0.00001   2.03490
   A19        2.07714   0.00000   0.00000   0.00000   0.00000   2.07714
   A20        1.92142  -0.00000   0.00000  -0.00002  -0.00002   1.92139
   A21        1.91964   0.00000   0.00000   0.00001   0.00001   1.91965
   A22        1.92736   0.00000   0.00000  -0.00000  -0.00000   1.92736
   A23        1.91031   0.00000   0.00000  -0.00000  -0.00000   1.91031
   A24        1.91446   0.00000   0.00000   0.00001   0.00001   1.91447
   A25        1.86994   0.00000   0.00000   0.00001   0.00001   1.86995
   A26        2.12262  -0.00001   0.00000  -0.00002  -0.00002   2.12260
   A27        2.07997   0.00000   0.00000   0.00001   0.00001   2.07999
   A28        2.08030   0.00000   0.00000   0.00001   0.00001   2.08030
   A29        2.09806  -0.00000   0.00000  -0.00001  -0.00001   2.09805
   A30        2.08130  -0.00000   0.00000  -0.00000  -0.00000   2.08130
   A31        2.10380   0.00000   0.00000   0.00001   0.00001   2.10381
   A32        2.10130   0.00000   0.00000   0.00000   0.00000   2.10131
   A33        2.08712  -0.00000   0.00000  -0.00000  -0.00000   2.08712
   A34        2.09476  -0.00000   0.00000  -0.00000  -0.00000   2.09475
   A35        2.08727   0.00000   0.00000  -0.00000  -0.00000   2.08727
   A36        2.09861   0.00000   0.00000   0.00000   0.00000   2.09861
   A37        2.09731  -0.00000   0.00000  -0.00000  -0.00000   2.09730
   A38        2.09503   0.00000   0.00000   0.00000   0.00000   2.09504
   A39        2.09702  -0.00000   0.00000  -0.00000  -0.00000   2.09702
   A40        2.09111  -0.00000   0.00000  -0.00000  -0.00000   2.09111
   A41        2.10440  -0.00000   0.00000  -0.00001  -0.00001   2.10439
   A42        2.09049   0.00000   0.00000   0.00000   0.00000   2.09049
   A43        2.08829   0.00000   0.00000   0.00001   0.00001   2.08830
   A44        2.15548  -0.00000   0.00000  -0.00000  -0.00000   2.15548
   A45        2.06697   0.00000   0.00000   0.00000   0.00000   2.06697
   A46        2.06073   0.00000   0.00000   0.00000   0.00000   2.06074
   A47        2.08493  -0.00000   0.00000   0.00000   0.00000   2.08493
    D1       -0.00111  -0.00000   0.00000  -0.00001  -0.00001  -0.00112
    D2        3.14085   0.00000   0.00000   0.00001   0.00001   3.14087
    D3       -2.11349  -0.00000   0.00000  -0.00001  -0.00001  -2.11350
    D4        1.02847   0.00000   0.00000   0.00002   0.00002   1.02849
    D5        2.11120  -0.00000   0.00000  -0.00001  -0.00001   2.11119
    D6       -1.03002   0.00000   0.00000   0.00002   0.00002  -1.03001
    D7        3.14155   0.00000   0.00000   0.00001   0.00001   3.14156
    D8       -0.00052   0.00000   0.00000   0.00002   0.00002  -0.00050
    D9       -0.00043  -0.00000   0.00000  -0.00002  -0.00002  -0.00045
   D10        3.14068  -0.00000   0.00000  -0.00000  -0.00000   3.14068
   D11       -3.14120  -0.00000   0.00000  -0.00001  -0.00001  -3.14121
   D12        0.00076   0.00000   0.00000   0.00002   0.00002   0.00078
   D13       -0.00066   0.00000   0.00000   0.00002   0.00002  -0.00064
   D14        3.13982   0.00000   0.00000   0.00001   0.00001   3.13983
   D15        3.14141   0.00000   0.00000   0.00000   0.00000   3.14142
   D16       -0.00129  -0.00000   0.00000  -0.00001  -0.00001  -0.00130
   D17        3.14118   0.00000   0.00000   0.00001   0.00001   3.14119
   D18        0.00136  -0.00000   0.00000  -0.00002  -0.00002   0.00134
   D19        0.00072   0.00000   0.00000   0.00002   0.00002   0.00074
   D20       -3.13910  -0.00000   0.00000  -0.00000  -0.00000  -3.13911
   D21        0.02117  -0.00000   0.00000  -0.00001  -0.00001   0.02116
   D22       -3.12218   0.00000   0.00000   0.00002   0.00002  -3.12216
   D23       -0.00109   0.00000   0.00000   0.00002   0.00002  -0.00107
   D24        3.13941   0.00000   0.00000   0.00001   0.00001   3.13943
   D25       -3.14107  -0.00000   0.00000  -0.00001  -0.00001  -3.14108
   D26       -0.00057  -0.00000   0.00000  -0.00001  -0.00001  -0.00058
   D27        3.11165  -0.00000   0.00000  -0.00000  -0.00000   3.11165
   D28        1.00526   0.00000   0.00000   0.00001   0.00001   1.00526
   D29       -1.05496  -0.00000   0.00000  -0.00001  -0.00001  -1.05498
   D30       -0.28092   0.00000   0.00000   0.00003   0.00003  -0.28089
   D31        2.88695   0.00000   0.00000   0.00003   0.00003   2.88699
   D32        1.83108  -0.00000   0.00000   0.00002   0.00002   1.83110
   D33       -1.28424  -0.00000   0.00000   0.00003   0.00003  -1.28421
   D34       -2.40517   0.00000   0.00000   0.00004   0.00004  -2.40513
   D35        0.76270   0.00000   0.00000   0.00004   0.00004   0.76274
   D36       -3.11392   0.00000   0.00000   0.00002   0.00002  -3.11390
   D37        0.03539   0.00000   0.00000   0.00001   0.00001   0.03540
   D38        0.00139   0.00000   0.00000   0.00002   0.00002   0.00141
   D39       -3.13249   0.00000   0.00000   0.00001   0.00001  -3.13248
   D40        3.11032  -0.00000   0.00000  -0.00003  -0.00003   3.11029
   D41       -0.03429  -0.00000   0.00000  -0.00001  -0.00001  -0.03430
   D42       -0.00564  -0.00000   0.00000  -0.00002  -0.00002  -0.00566
   D43        3.13294  -0.00000   0.00000  -0.00000  -0.00000   3.13293
   D44        0.00322  -0.00000   0.00000  -0.00001  -0.00001   0.00321
   D45       -3.13785  -0.00000   0.00000  -0.00001  -0.00001  -3.13786
   D46        3.13700   0.00000   0.00000   0.00000   0.00000   3.13700
   D47       -0.00407   0.00000   0.00000   0.00001   0.00001  -0.00407
   D48       -0.00360   0.00000   0.00000   0.00001   0.00001  -0.00359
   D49       -3.14137   0.00000   0.00000   0.00000   0.00000  -3.14137
   D50        3.13747   0.00000   0.00000   0.00000   0.00000   3.13747
   D51       -0.00030  -0.00000   0.00000   0.00000   0.00000  -0.00030
   D52       -0.00064  -0.00000   0.00000  -0.00001  -0.00001  -0.00065
   D53       -3.13591  -0.00000   0.00000  -0.00000  -0.00000  -3.13591
   D54        3.13714  -0.00000   0.00000  -0.00001  -0.00001   3.13713
   D55        0.00187   0.00000   0.00000   0.00000   0.00000   0.00187
   D56        0.00529   0.00000   0.00000   0.00002   0.00002   0.00530
   D57       -3.13329  -0.00000   0.00000  -0.00000  -0.00000  -3.13330
   D58        3.14058   0.00000   0.00000   0.00001   0.00001   3.14059
   D59        0.00200  -0.00000   0.00000  -0.00001  -0.00001   0.00199
   D60        0.00001  -0.00000   0.00000  -0.00001  -0.00001  -0.00000
   D61       -3.14050  -0.00000   0.00000  -0.00001  -0.00001  -3.14051
         Item               Value     Threshold  Converged?
 Maximum Force            0.000005     0.000450     YES
 RMS     Force            0.000001     0.000300     YES
 Maximum Displacement     0.000165     0.001800     YES
 RMS     Displacement     0.000054     0.001200     YES
 Predicted change in Energy=-5.767966D-10
 Optimization completed.
    -- Stationary point found.
                           ----------------------------
                           !   Optimized Parameters   !
                           ! (Angstroms and Degrees)  !
 --------------------------                            --------------------------
 ! Name  Definition              Value          Derivative Info.                !
 --------------------------------------------------------------------------------
 ! R1    R(1,2)                  1.5043         -DE/DX =    0.0                 !
 ! R2    R(1,16)                 1.0985         -DE/DX =    0.0                 !
 ! R3    R(1,17)                 1.1002         -DE/DX =    0.0                 !
 ! R4    R(1,18)                 1.1003         -DE/DX =    0.0                 !
 ! R5    R(2,3)                  1.3943         -DE/DX =    0.0                 !
 ! R6    R(2,15)                 1.3409         -DE/DX =    0.0                 !
 ! R7    R(3,4)                  1.3962         -DE/DX =    0.0                 !
 ! R8    R(3,19)                 1.092          -DE/DX =    0.0                 !
 ! R9    R(4,5)                  1.3933         -DE/DX =    0.0                 !
 ! R10   R(4,20)                 1.0905         -DE/DX =    0.0                 !
 ! R11   R(5,6)                  1.3488         -DE/DX =    0.0                 !
 ! R12   R(5,14)                 1.4052         -DE/DX =    0.0                 !
 ! R13   R(6,7)                  1.4026         -DE/DX =    0.0                 !
 ! R14   R(7,8)                  1.5084         -DE/DX =    0.0                 !
 ! R15   R(7,21)                 1.1077         -DE/DX =    0.0                 !
 ! R16   R(7,22)                 1.1063         -DE/DX =    0.0                 !
 ! R17   R(8,9)                  1.3959         -DE/DX =    0.0                 !
 ! R18   R(8,13)                 1.3988         -DE/DX =    0.0                 !
 ! R19   R(9,10)                 1.3949         -DE/DX =    0.0                 !
 ! R20   R(9,23)                 1.0904         -DE/DX =    0.0                 !
 ! R21   R(10,11)                1.3932         -DE/DX =    0.0                 !
 ! R22   R(10,24)                1.0923         -DE/DX =    0.0                 !
 ! R23   R(11,12)                1.3951         -DE/DX =    0.0                 !
 ! R24   R(11,25)                1.0921         -DE/DX =    0.0                 !
 ! R25   R(12,13)                1.3924         -DE/DX =    0.0                 !
 ! R26   R(12,26)                1.0922         -DE/DX =    0.0                 !
 ! R27   R(13,27)                1.094          -DE/DX =    0.0                 !
 ! R28   R(14,15)                1.3203         -DE/DX =    0.0                 !
 ! R29   R(14,28)                1.0958         -DE/DX =    0.0                 !
 ! A1    A(2,1,16)             111.8921         -DE/DX =    0.0                 !
 ! A2    A(2,1,17)             110.2186         -DE/DX =    0.0                 !
 ! A3    A(2,1,18)             110.2199         -DE/DX =    0.0                 !
 ! A4    A(16,1,17)            108.662          -DE/DX =    0.0                 !
 ! A5    A(16,1,18)            108.658          -DE/DX =    0.0                 !
 ! A6    A(17,1,18)            107.0482         -DE/DX =    0.0                 !
 ! A7    A(1,2,3)              122.2822         -DE/DX =    0.0                 !
 ! A8    A(1,2,15)             116.7669         -DE/DX =    0.0                 !
 ! A9    A(3,2,15)             120.9509         -DE/DX =    0.0                 !
 ! A10   A(2,3,4)              120.128          -DE/DX =    0.0                 !
 ! A11   A(2,3,19)             120.1599         -DE/DX =    0.0                 !
 ! A12   A(4,3,19)             119.7121         -DE/DX =    0.0                 !
 ! A13   A(3,4,5)              118.2323         -DE/DX =    0.0                 !
 ! A14   A(3,4,20)             119.8762         -DE/DX =    0.0                 !
 ! A15   A(5,4,20)             121.8915         -DE/DX =    0.0                 !
 ! A16   A(4,5,6)              125.6773         -DE/DX =    0.0                 !
 ! A17   A(4,5,14)             117.7313         -DE/DX =    0.0                 !
 ! A18   A(6,5,14)             116.5913         -DE/DX =    0.0                 !
 ! A19   A(5,6,7)              119.0111         -DE/DX =    0.0                 !
 ! A20   A(6,7,8)              110.0891         -DE/DX =    0.0                 !
 ! A21   A(6,7,21)             109.9873         -DE/DX =    0.0                 !
 ! A22   A(6,7,22)             110.4295         -DE/DX =    0.0                 !
 ! A23   A(8,7,21)             109.4529         -DE/DX =    0.0                 !
 ! A24   A(8,7,22)             109.6906         -DE/DX =    0.0                 !
 ! A25   A(21,7,22)            107.1397         -DE/DX =    0.0                 !
 ! A26   A(7,8,9)              121.6174         -DE/DX =    0.0                 !
 ! A27   A(7,8,13)             119.1735         -DE/DX =    0.0                 !
 ! A28   A(9,8,13)             119.1922         -DE/DX =    0.0                 !
 ! A29   A(8,9,10)             120.2099         -DE/DX =    0.0                 !
 ! A30   A(8,9,23)             119.25           -DE/DX =    0.0                 !
 ! A31   A(10,9,23)            120.5386         -DE/DX =    0.0                 !
 ! A32   A(9,10,11)            120.3959         -DE/DX =    0.0                 !
 ! A33   A(9,10,24)            119.5834         -DE/DX =    0.0                 !
 ! A34   A(11,10,24)           120.0207         -DE/DX =    0.0                 !
 ! A35   A(10,11,12)           119.5915         -DE/DX =    0.0                 !
 ! A36   A(10,11,25)           120.2414         -DE/DX =    0.0                 !
 ! A37   A(12,11,25)           120.1667         -DE/DX =    0.0                 !
 ! A38   A(11,12,13)           120.0364         -DE/DX =    0.0                 !
 ! A39   A(11,12,26)           120.1506         -DE/DX =    0.0                 !
 ! A40   A(13,12,26)           119.812          -DE/DX =    0.0                 !
 ! A41   A(8,13,12)            120.5731         -DE/DX =    0.0                 !
 ! A42   A(8,13,27)            119.7763         -DE/DX =    0.0                 !
 ! A43   A(12,13,27)           119.6504         -DE/DX =    0.0                 !
 ! A44   A(5,14,15)            123.4998         -DE/DX =    0.0                 !
 ! A45   A(5,14,28)            118.4288         -DE/DX =    0.0                 !
 ! A46   A(15,14,28)           118.0714         -DE/DX =    0.0                 !
 ! A47   A(2,15,14)            119.4577         -DE/DX =    0.0                 !
 ! D1    D(16,1,2,3)            -0.0637         -DE/DX =    0.0                 !
 ! D2    D(16,1,2,15)          179.9577         -DE/DX =    0.0                 !
 ! D3    D(17,1,2,3)          -121.0941         -DE/DX =    0.0                 !
 ! D4    D(17,1,2,15)           58.9272         -DE/DX =    0.0                 !
 ! D5    D(18,1,2,3)           120.9626         -DE/DX =    0.0                 !
 ! D6    D(18,1,2,15)          -59.016          -DE/DX =    0.0                 !
 ! D7    D(1,2,3,4)            179.9976         -DE/DX =    0.0                 !
 ! D8    D(1,2,3,19)            -0.03           -DE/DX =    0.0                 !
 ! D9    D(15,2,3,4)            -0.0246         -DE/DX =    0.0                 !
 ! D10   D(15,2,3,19)          179.9478         -DE/DX =    0.0                 !
 ! D11   D(1,2,15,14)         -179.9776         -DE/DX =    0.0                 !
 ! D12   D(3,2,15,14)            0.0435         -DE/DX =    0.0                 !
 ! D13   D(2,3,4,5)             -0.0377         -DE/DX =    0.0                 !
 ! D14   D(2,3,4,20)           179.8987         -DE/DX =    0.0                 !
 ! D15   D(19,3,4,5)           179.9898         -DE/DX =    0.0                 !
 ! D16   D(19,3,4,20)           -0.0739         -DE/DX =    0.0                 !
 ! D17   D(3,4,5,6)            179.9763         -DE/DX =    0.0                 !
 ! D18   D(3,4,5,14)             0.0777         -DE/DX =    0.0                 !
 ! D19   D(20,4,5,6)             0.0413         -DE/DX =    0.0                 !
 ! D20   D(20,4,5,14)         -179.8573         -DE/DX =    0.0                 !
 ! D21   D(4,5,6,7)              1.2127         -DE/DX =    0.0                 !
 ! D22   D(14,5,6,7)          -178.8877         -DE/DX =    0.0                 !
 ! D23   D(4,5,14,15)           -0.0624         -DE/DX =    0.0                 !
 ! D24   D(4,5,14,28)          179.8752         -DE/DX =    0.0                 !
 ! D25   D(6,5,14,15)         -179.9703         -DE/DX =    0.0                 !
 ! D26   D(6,5,14,28)           -0.0327         -DE/DX =    0.0                 !
 ! D27   D(5,6,7,8)            178.2846         -DE/DX =    0.0                 !
 ! D28   D(5,6,7,21)            57.597          -DE/DX =    0.0                 !
 ! D29   D(5,6,7,22)           -60.445          -DE/DX =    0.0                 !
 ! D30   D(6,7,8,9)            -16.0954         -DE/DX =    0.0                 !
 ! D31   D(6,7,8,13)           165.4102         -DE/DX =    0.0                 !
 ! D32   D(21,7,8,9)           104.9129         -DE/DX =    0.0                 !
 ! D33   D(21,7,8,13)          -73.5814         -DE/DX =    0.0                 !
 ! D34   D(22,7,8,9)          -137.8063         -DE/DX =    0.0                 !
 ! D35   D(22,7,8,13)           43.6994         -DE/DX =    0.0                 !
 ! D36   D(7,8,9,10)          -178.4144         -DE/DX =    0.0                 !
 ! D37   D(7,8,9,23)             2.0275         -DE/DX =    0.0                 !
 ! D38   D(13,8,9,10)            0.0797         -DE/DX =    0.0                 !
 ! D39   D(13,8,9,23)         -179.4784         -DE/DX =    0.0                 !
 ! D40   D(7,8,13,12)          178.2082         -DE/DX =    0.0                 !
 ! D41   D(7,8,13,27)           -1.9646         -DE/DX =    0.0                 !
 ! D42   D(9,8,13,12)           -0.3231         -DE/DX =    0.0                 !
 ! D43   D(9,8,13,27)          179.5041         -DE/DX =    0.0                 !
 ! D44   D(8,9,10,11)            0.1844         -DE/DX =    0.0                 !
 ! D45   D(8,9,10,24)         -179.7856         -DE/DX =    0.0                 !
 ! D46   D(23,9,10,11)         179.7368         -DE/DX =    0.0                 !
 ! D47   D(23,9,10,24)          -0.2333         -DE/DX =    0.0                 !
 ! D48   D(9,10,11,12)          -0.2062         -DE/DX =    0.0                 !
 ! D49   D(9,10,11,25)        -179.9872         -DE/DX =    0.0                 !
 ! D50   D(24,10,11,12)        179.7637         -DE/DX =    0.0                 !
 ! D51   D(24,10,11,25)         -0.0173         -DE/DX =    0.0                 !
 ! D52   D(10,11,12,13)         -0.0364         -DE/DX =    0.0                 !
 ! D53   D(10,11,12,26)       -179.6742         -DE/DX =    0.0                 !
 ! D54   D(25,11,12,13)        179.7448         -DE/DX =    0.0                 !
 ! D55   D(25,11,12,26)          0.107          -DE/DX =    0.0                 !
 ! D56   D(11,12,13,8)           0.3028         -DE/DX =    0.0                 !
 ! D57   D(11,12,13,27)       -179.5246         -DE/DX =    0.0                 !
 ! D58   D(26,12,13,8)         179.9418         -DE/DX =    0.0                 !
 ! D59   D(26,12,13,27)          0.1144         -DE/DX =    0.0                 !
 ! D60   D(5,14,15,2)            0.0006         -DE/DX =    0.0                 !
 ! D61   D(28,14,15,2)        -179.9371         -DE/DX =    0.0                 !
 --------------------------------------------------------------------------------
 GradGradGradGradGradGradGradGradGradGradGradGradGradGradGradGradGradGrad

                          Input orientation:                          
 ---------------------------------------------------------------------
 Center     Atomic      Atomic             Coordinates (Angstroms)
 Number     Number       Type             X           Y           Z
 ---------------------------------------------------------------------
      1          6           0       -5.574510    0.045770   -0.021860
      2          6           0       -4.070480    0.024080   -0.003600
      3          6           0       -3.340950   -1.155740   -0.144890
      4          6           0       -1.945270   -1.123800   -0.121310
      5          6           0       -1.316920    0.108610    0.044870
      6          8           0        0.015600    0.312460    0.089980
      7          6           0        0.877020   -0.783720   -0.063630
      8          6           0        2.313060   -0.323970   -0.022160
      9          6           0        2.656340    1.019280   -0.184140
     10          6           0        3.996110    1.407540   -0.173550
     11          6           0        5.003380    0.459820   -0.005350
     12          6           0        4.664930   -0.883760    0.157380
     13          6           0        3.327520   -1.271210    0.151930
     14          6           0       -2.132040    1.245160    0.180340
     15          7           0       -3.451440    1.202650    0.156850
     16          1           0       -5.997000   -0.959040   -0.157940
     17          1           0       -5.935620    0.692650   -0.835300
     18          1           0       -5.960230    0.465300    0.919300
     19          1           0       -3.858410   -2.108620   -0.273990
     20          1           0       -1.378810   -2.049230   -0.230530
     21          1           0        0.679000   -1.288440   -1.029610
     22          1           0        0.700770   -1.528320    0.735440
     23          1           0        1.865920    1.759610   -0.311340
     24          1           0        4.253000    2.461930   -0.297690
     25          1           0        6.051470    0.766620    0.002750
     26          1           0        5.446940   -1.633660    0.295250
     27          1           0        3.068920   -2.325490    0.287880
     28          1           0       -1.649810    2.220100    0.313730
 ---------------------------------------------------------------------
                    Distance matrix (angstroms):
                    1          2          3          4          5
     1  C    0.000000
     2  C    1.504297   0.000000
     3  C    2.539203   1.394329   0.000000
     4  C    3.814337   2.418264   1.396245   0.000000
[...]
     3  C   -0.042033   0.576576   4.968781   0.422345  -0.009867   0.011506
     4  C    0.011872  -0.029482   0.422345   5.113324   0.422762  -0.096512
     5  C    0.001851  -0.030342  -0.009867   0.422762   4.719621   0.355203
     6  O   -0.000001  -0.002104   0.011506  -0.096512   0.355203   7.947133
     7  C    0.000008   0.000908  -0.005067   0.003760  -0.065521   0.243993
     8  C    0.000000   0.000128  -0.001169   0.003672   0.005583  -0.082354
     9  C   -0.000000  -0.000015   0.000005   0.000177  -0.003309   0.026453
    10  C    0.000000  -0.000000   0.000000   0.000019  -0.000142   0.000145
    11  C   -0.000000   0.000000   0.000000  -0.000005   0.000008   0.000257
    12  C    0.000000  -0.000000  -0.000001   0.000003  -0.000012  -0.000396
    13  C    0.000000   0.000003  -0.000009   0.000166  -0.000383   0.002850
    14  C    0.001294  -0.107022  -0.027711   0.000764   0.470107  -0.050737
    15  N   -0.036163   0.448839  -0.045987  -0.055448  -0.058664   0.005130
    16  H    0.437651  -0.080097   0.006579   0.004873  -0.000251  -0.000001
    17  H    0.402868  -0.030138  -0.002141  -0.000510  -0.000047  -0.000002
    18  H    0.402351  -0.029709  -0.002134  -0.000716   0.000221  -0.000002
    19  H   -0.006011  -0.028891   0.395471  -0.039643   0.008166  -0.000034
    20  H   -0.000269   0.006280  -0.030844   0.434682  -0.053601  -0.004643
    21  H    0.000001  -0.000001  -0.001494   0.007595  -0.004682  -0.046262
    22  H    0.000001  -0.000007   0.000308   0.009349  -0.013136  -0.035257
    23  H   -0.000000   0.000001  -0.000013   0.000203  -0.001923   0.015896
    24  H    0.000000   0.000000  -0.000000   0.000000   0.000004  -0.000047
    25  H   -0.000000   0.000000  -0.000000   0.000000  -0.000000   0.000000
    26  H    0.000000   0.000000  -0.000000   0.000000  -0.000001   0.000005
    27  H    0.000000   0.000000  -0.000001   0.000059  -0.000031   0.000058
    28  H   -0.000525   0.002326   0.000698   0.002663  -0.085892   0.006108
               7          8          9         10         11         12
     1  C    0.000008   0.000000  -0.000000   0.000000  -0.000000   0.000000
     2  C    0.000908   0.000128  -0.000015  -0.000000   0.000000  -0.000000
     3  C   -0.005067  -0.001169   0.000005   0.000000   0.000000  -0.000001
     4  C    0.003760   0.003672   0.000177   0.000019  -0.000005   0.000003
     5  C   -0.065521   0.005583  -0.003309  -0.000142   0.000008  -0.000012
     6  O    0.243993  -0.082354   0.026453   0.000145   0.000257  -0.000396
     7  C    4.922153   0.341168  -0.109978   0.012036  -0.003491   0.004275
     8  C    0.341168   4.972477   0.404398  -0.008209  -0.077191   0.003868
     9  C   -0.109978   0.404398   5.064897   0.443060   0.019090  -0.062714
    10  C    0.012036  -0.008209   0.443060   4.915201   0.453834   0.000612
    11  C   -0.003491  -0.077191   0.019090   0.453834   4.912464   0.458443
    12  C    0.004275   0.003868  -0.062714   0.000612   0.458443   4.893508
    13  C   -0.086219   0.413971   0.033400  -0.060196   0.014509   0.461082
    14  C   -0.001222  -0.000490   0.000344  -0.000023   0.000007  -0.000007
    15  N   -0.000660  -0.000128   0.000036   0.000001   0.000000  -0.000000
    16  H    0.000003   0.000000  -0.000000  -0.000000   0.000000  -0.000000
    17  H   -0.000001   0.000000  -0.000000  -0.000000  -0.000000  -0.000000
    18  H   -0.000000  -0.000000   0.000000   0.000000   0.000000  -0.000000
    19  H   -0.000035  -0.000005   0.000002   0.000000   0.000000  -0.000000
    20  H    0.007832   0.002347  -0.000024  -0.000000  -0.000000   0.000001
    21  H    0.364886   0.013292  -0.010875  -0.000455   0.000097   0.000194
    22  H    0.413893  -0.059927   0.014904   0.000087   0.000211   0.000060
    23  H   -0.015017  -0.044244   0.433896  -0.048868   0.008123  -0.002477
    24  H   -0.000387   0.010992  -0.054752   0.441475  -0.053138   0.009727
    25  H    0.000114  -0.002094   0.009069  -0.052138   0.439141  -0.052878
    26  H   -0.000299   0.012157  -0.003271   0.010133  -0.053302   0.442823
    27  H    0.000094  -0.074787   0.013699  -0.003310   0.009587  -0.046969
    28  H   -0.000703  -0.000314   0.000079   0.000013   0.000002  -0.000002
              13         14         15         16         17         18
     1  C    0.000000   0.001294  -0.036163   0.437651   0.402868   0.402351
     2  C    0.000003  -0.107022   0.448839  -0.080097  -0.030138  -0.029709
     3  C   -0.000009  -0.027711  -0.045987   0.006579  -0.002141  -0.002134
     4  C    0.000166   0.000764  -0.055448   0.004873  -0.000510  -0.000716
     5  C   -0.000383   0.470107  -0.058664  -0.000251  -0.000047   0.000221
     6  O    0.002850  -0.050737   0.005130  -0.000001  -0.000002  -0.000002
     7  C   -0.086219  -0.001222  -0.000660   0.000003  -0.000001  -0.000000
     8  C    0.413971  -0.000490  -0.000128   0.000000   0.000000  -0.000000
     9  C    0.033400   0.000344   0.000036  -0.000000  -0.000000   0.000000
    10  C   -0.060196  -0.000023   0.000001  -0.000000  -0.000000   0.000000
    11  C    0.014509   0.000007   0.000000   0.000000  -0.000000   0.000000
    12  C    0.461082  -0.000007  -0.000000  -0.000000  -0.000000  -0.000000
    13  C    5.064451   0.000013  -0.000001   0.000000   0.000000  -0.000000
    14  C    0.000013   4.836001   0.568688   0.000051   0.000954   0.000545
    15  N   -0.000001   0.568688   6.458023   0.003987   0.001052   0.001276
    16  H    0.000000   0.000051   0.003987   0.562207  -0.022390  -0.022331
    17  H    0.000000   0.000954   0.001052  -0.022390   0.546589  -0.024283
    18  H   -0.000000   0.000545   0.001276  -0.022331  -0.024283   0.546741
    19  H   -0.000000  -0.000862   0.008141  -0.001148  -0.000175  -0.000212
    20  H    0.000113   0.001180  -0.001190  -0.000035   0.000017   0.000016
    21  H    0.000269   0.001769  -0.000034  -0.000000   0.000001  -0.000000
    22  H   -0.000187  -0.000355  -0.000010   0.000000  -0.000000   0.000001
    23  H    0.010436   0.000700   0.000022   0.000000  -0.000000   0.000000
    24  H   -0.002638  -0.000002  -0.000000   0.000000   0.000000  -0.000000
    25  H    0.009591  -0.000000  -0.000000   0.000000   0.000000  -0.000000
    26  H   -0.057767  -0.000000  -0.000000   0.000000   0.000000  -0.000000
    27  H    0.444536   0.000003  -0.000000   0.000000  -0.000000   0.000000
    28  H    0.000015   0.441561  -0.021961  -0.000002  -0.000025  -0.000044
              19         20         21         22         23         24
     1  C   -0.006011  -0.000269   0.000001   0.000001  -0.000000   0.000000
     2  C   -0.028891   0.006280  -0.000001  -0.000007   0.000001   0.000000
     3  C    0.395471  -0.030844  -0.001494   0.000308  -0.000013  -0.000000
     4  C   -0.039643   0.434682   0.007595   0.009349   0.000203   0.000000
     5  C    0.008166  -0.053601  -0.004682  -0.013136  -0.001923   0.000004
     6  O   -0.000034  -0.004643  -0.046262  -0.035257   0.015896  -0.000047
     7  C   -0.000035   0.007832   0.364886   0.413893  -0.015017  -0.000387
     8  C   -0.000005   0.002347   0.013292  -0.059927  -0.044244   0.010992
     9  C    0.000002  -0.000024  -0.010875   0.014904   0.433896  -0.054752
    10  C    0.000000  -0.000000  -0.000455   0.000087  -0.048868   0.441475
    11  C    0.000000  -0.000000   0.000097   0.000211   0.008123  -0.053138
    12  C   -0.000000   0.000001   0.000194   0.000060  -0.002477   0.009727
    13  C   -0.000000   0.000113   0.000269  -0.000187   0.010436  -0.002638
    14  C   -0.000862   0.001180   0.001769  -0.000355   0.000700  -0.000002
    15  N    0.008141  -0.001190  -0.000034  -0.000010   0.000022  -0.000000
    16  H   -0.001148  -0.000035  -0.000000   0.000000   0.000000   0.000000
    17  H   -0.000175   0.000017   0.000001  -0.000000  -0.000000   0.000000
    18  H   -0.000212   0.000016  -0.000000   0.000001   0.000000  -0.000000
    19  H    0.547036  -0.005528   0.000005  -0.000014   0.000000  -0.000000
    20  H   -0.005528   0.503113   0.000138  -0.001041   0.000003   0.000000
    21  H    0.000005   0.000138   0.626728  -0.066669  -0.000316   0.000019
    22  H   -0.000014  -0.001041  -0.066669   0.620113   0.001094   0.000002
    23  H    0.000000   0.000003  -0.000316   0.001094   0.504675  -0.005773
    24  H   -0.000000   0.000000   0.000019   0.000002  -0.005773   0.539776
    25  H   -0.000000   0.000000  -0.000000  -0.000002  -0.000110  -0.006810
    26  H   -0.000000   0.000000   0.000016  -0.000036   0.000034  -0.000126
    27  H    0.000000   0.000058   0.000344   0.002475  -0.000024   0.000040
    28  H    0.000143  -0.000152   0.000183  -0.000044   0.000697  -0.000002
              25         26         27         28
     1  C   -0.000000   0.000000   0.000000  -0.000525
     2  C    0.000000   0.000000   0.000000   0.002326
     3  C   -0.000000  -0.000000  -0.000001   0.000698
     4  C    0.000000   0.000000   0.000059   0.002663
     5  C   -0.000000  -0.000001  -0.000031  -0.085892
     6  O    0.000000   0.000005   0.000058   0.006108
     7  C    0.000114  -0.000299   0.000094  -0.000703
     8  C   -0.002094   0.012157  -0.074787  -0.000314
     9  C    0.009069  -0.003271   0.013699   0.000079
    10  C   -0.052138   0.010133  -0.003310   0.000013
    11  C    0.439141  -0.053302   0.009587   0.000002
    12  C   -0.052878   0.442823  -0.046969  -0.000002
    13  C    0.009591  -0.057767   0.444536   0.000015
    14  C   -0.000000  -0.000000   0.000003   0.441561
    15  N   -0.000000  -0.000000  -0.000000  -0.021961
    16  H    0.000000   0.000000   0.000000  -0.000002
    17  H    0.000000   0.000000  -0.000000  -0.000025
    18  H   -0.000000  -0.000000   0.000000  -0.000044
    19  H   -0.000000  -0.000000   0.000000   0.000143
    20  H    0.000000   0.000000   0.000058  -0.000152
    21  H   -0.000000   0.000016   0.000344   0.000183
    22  H   -0.000002  -0.000036   0.002475  -0.000044
    23  H   -0.000110   0.000034  -0.000024   0.000697
    24  H   -0.006810  -0.000126   0.000040  -0.000002
    25  H    0.541157  -0.006723  -0.000156  -0.000000
    26  H   -0.006723   0.542609  -0.007079   0.000000
    27  H   -0.000156  -0.007079   0.546409   0.000000
    28  H   -0.000000   0.000000   0.000000   0.525252
 Mulliken charges:
               1
     1  C   -0.351050
     2  C    0.196531
     3  C   -0.213799
     4  C   -0.215975
     5  C    0.344279
     6  O   -0.296381
     7  C   -0.026524
     8  C    0.166856
     9  C   -0.218573
    10  C   -0.103275
    11  C   -0.128647
    12  C   -0.109140
    13  C   -0.248004
    14  C   -0.135553
    15  N   -0.274950
    16  H    0.110906
    17  H    0.128230
    18  H    0.128282
    19  H    0.123593
    20  H    0.141546
    21  H    0.115251
    22  H    0.114189
    23  H    0.142984
    24  H    0.121640
    25  H    0.121840
    26  H    0.120828
    27  H    0.114994
    28  H    0.129925
 Sum of Mulliken charges =  -0.00000
 Mulliken charges with hydrogens summed into heavy atoms:
               1
     1  C    0.016367
     2  C    0.196531
     3  C   -0.090206
     4  C   -0.074429
     5  C    0.344279
     6  O   -0.296381
     7  C    0.202916
     8  C    0.166856
     9  C   -0.075589
    10  C    0.018365
    11  C   -0.006807
    12  C    0.011688
    13  C   -0.133010
    14  C   -0.005629
    15  N   -0.274950
 Electronic spatial extent (au):  <R**2>=           5045.4776
 Charge=              0.0000 electrons
 Dipole moment (field-independent basis, Debye):
    X=             -1.2464    Y=             -2.5744    Z=              0.3735  Tot=              2.8846
 Quadrupole moment (field-independent basis, Debye-Ang):
   XX=            -82.7891   YY=            -82.1870   ZZ=            -92.6866
   XY=             -6.6004   XZ=              1.2088   YZ=              0.7153
 Traceless Quadrupole moment (field-independent basis, Debye-Ang):
   XX=              3.0984   YY=              3.7006   ZZ=             -6.7990
   XY=             -6.6004   XZ=              1.2088   YZ=              0.7153
 Octapole moment (field-independent basis, Debye-Ang**2):
  XXX=            -23.8315  YYY=             -5.0202  ZZZ=             -0.8238  XYY=            -17.2301
  XXY=            -26.1169  XXZ=              0.9018  XZZ=             11.9341  YZZ=              1.0828
  YYZ=              1.2899  XYZ=             -3.9885
 Hexadecapole moment (field-independent basis, Debye-Ang**3):
 XXXX=          -5793.3164 YYYY=           -587.4055 ZZZZ=           -126.8423 XXXY=           -114.6655
 XXXZ=             33.6704 YYYX=            -38.3850 YYYZ=              3.0884 ZZZX=             -2.9578
 ZZZY=             -0.7808 XXYY=          -1118.0262 XXZZ=          -1141.5709 YYZZ=           -133.2834
 XXYZ=             18.1577 YYXZ=              6.8147 ZZXY=              9.8345
 N-N= 8.762940349504D+02 E-N=-3.224737375258D+03  KE= 6.297703794436D+02
 Breneman (CHELPG) radii used.
 Read replacement radii for each type of atom:
 Atom Element Radius
    1     6    1.50
    2     6    1.50
    3     6    1.50
    4     6    1.50
    5     6    1.50
    6     8    1.70
    7     6    1.50
    8     6    1.50
    9     6    1.50
   10     6    1.50
   11     6    1.50
   12     6    1.50
   13     6    1.50
   14     6    1.50
   15     7    1.70
   16     1    1.45
   17     1    1.45
   18     1    1.45
   19     1    1.45
   20     1    1.45
   21     1    1.45
   22     1    1.45
   23     1    1.45
   24     1    1.45
   25     1    1.45
   26     1    1.45
   27     1    1.45
   28     1    1.45
 Generate Potential Derived Charges using the Breneman model, NDens= 1.
 Grid spacing= 0.300 Box extension= 2.800
 NStep X,Y,Z=   59     36     27   Total possible points=       57348
 Number of Points to Fit=   17917

 **********************************************************************

            Electrostatic Properties Using The SCF Density.

 **********************************************************************

       Atomic Center    1 is at   5.574510  0.045771  0.021859
       Atomic Center    2 is at   4.070480  0.024081  0.003599
       Atomic Center    3 is at   3.340950 -1.155739  0.144889
       Atomic Center    4 is at   1.945270 -1.123800  0.121309
       Atomic Center    5 is at   1.316920  0.108610 -0.044871
       Atomic Center    6 is at  -0.015600  0.312460 -0.089981
       Atomic Center    7 is at  -0.877020 -0.783720  0.063629
       Atomic Center    8 is at  -2.313060 -0.323970  0.022159
       Atomic Center    9 is at  -2.656340  1.019280  0.184139
       Atomic Center   10 is at  -3.996110  1.407539  0.173549
       Atomic Center   11 is at  -5.003380  0.459819  0.005349
       Atomic Center   12 is at  -4.664930 -0.883761 -0.157381
       Atomic Center   13 is at  -3.327520 -1.271211 -0.151931
       Atomic Center   14 is at   2.132040  1.245160 -0.180341
       Atomic Center   15 is at   3.451440  1.202651 -0.156851
       Atomic Center   16 is at   5.997000 -0.959039  0.157939
       Atomic Center   17 is at   5.935620  0.692651  0.835299
       Atomic Center   18 is at   5.960230  0.465301 -0.919301
       Atomic Center   19 is at   3.858410 -2.108619  0.273989
       Atomic Center   20 is at   1.378810 -2.049230  0.230529
       Atomic Center   21 is at  -0.679000 -1.288440  1.029609
       Atomic Center   22 is at  -0.700770 -1.528320 -0.735441
       Atomic Center   23 is at  -1.865920  1.759610  0.311339
       Atomic Center   24 is at  -4.253000  2.461929  0.297689
       Atomic Center   25 is at  -6.051470  0.766619 -0.002751
       Atomic Center   26 is at  -5.446940 -1.633661 -0.295251
       Atomic Center   27 is at  -3.068920 -2.325491 -0.287881
       Atomic Center   28 is at   1.649810  2.220100 -0.313731
   17917 points will be used for fitting atomic charges
 Fitting point charges to electrostatic potential
 Charges from ESP fit, RMS=   0.00373 RRMS=   0.30756:
 ESP charges:
               1
     1  C   -0.472406
     2  C    0.609162
     3  C   -0.425924
     4  C   -0.040122
     5  C    0.177472
     6  O   -0.397149
     7  C    0.262028
     8  C    0.113327
     9  C   -0.147811
    10  C   -0.074246
    11  C   -0.123876
    12  C   -0.039186
    13  C   -0.211208
    14  C    0.196867
    15  N   -0.599897
    16  H    0.107080
    17  H    0.125343
    18  H    0.125128
    19  H    0.161153
    20  H    0.110695
    21  H   -0.010996
    22  H   -0.001671
    23  H    0.108056
    24  H    0.092681
    25  H    0.094069
    26  H    0.084697
    27  H    0.102567
    28  H    0.074166
 Sum of ESP charges =  -0.00000
 ESP charges with hydrogens summed into heavy atoms:
               1
     1  C   -0.114854
     2  C    0.609162
     3  C   -0.264771
     4  C    0.070573
     5  C    0.177472
     6  O   -0.397149
     7  C    0.249360
     8  C    0.113327
     9  C   -0.039755
    10  C    0.018435
    11  C   -0.029807
    12  C    0.045511
    13  C   -0.108642
    14  C    0.271034
    15  N   -0.599897
 Charge=  -0.00000 Dipole=    -1.2813    -2.5516     0.3730 Tot=     2.8795
 -----------------------------------------------------------------

              Electrostatic Properties (Atomic Units)

 -----------------------------------------------------------------
    Center     Electric         -------- Electric Field --------
               Potential          X             Y             Z
 -----------------------------------------------------------------
    1 Atom    -14.775963
    2 Atom    -14.735500
    3 Atom    -14.762138
    4 Atom    -14.752611
    5 Atom    -14.700444
    6 Atom    -22.313946
    7 Atom    -14.694851
    8 Atom    -14.751677
    9 Atom    -14.767496
   10 Atom    -14.765157
   11 Atom    -14.766016
   12 Atom    -14.763279
   13 Atom    -14.762228
   14 Atom    -14.741057
   15 Atom    -18.403811
   16 Atom     -1.117903
   17 Atom     -1.118570
   18 Atom     -1.118579
   19 Atom     -1.096548
   20 Atom     -1.083488
   21 Atom     -1.096102
   22 Atom     -1.096593
   23 Atom     -1.107903
   24 Atom     -1.104949
   25 Atom     -1.104003
   26 Atom     -1.102140
   27 Atom     -1.097275
   28 Atom     -1.106025
 -----------------------------------------------------------------
 Unable to Open any file for archive entry.
 1\1\GINC-NOTCH225\SP\RwB97XD\def2TZVP\C13H13N1O1\U6053008\12-Jul-2024\
 0\\#N Guess=Read Geom=Check Integral(Ultrafine) Density Pop=(ChelpG,Re
 adRadii) NMR wB97XD def2TZVP\\12397251_5\\0,1\C,0,-5.57451,0.04577,-0.
 02186\C,0,-4.07048,0.02408,-0.0036\C,0,-3.34095,-1.15574,-0.14489\C,0,
 -1.94527,-1.1238,-0.12131\C,0,-1.31692,0.10861,0.04487\O,0,0.0156,0.31
 246,0.08998\C,0,0.87702,-0.78372,-0.06363\C,0,2.31306,-0.32397,-0.0221
 6\C,0,2.65634,1.01928,-0.18414\C,0,3.99611,1.40754,-0.17355\C,0,5.0033
 8,0.45982,-0.00535\C,0,4.66493,-0.88376,0.15738\C,0,3.32752,-1.27121,0
 .15193\C,0,-2.13204,1.24516,0.18034\N,0,-3.45144,1.20265,0.15685\H,0,-
 5.997,-0.95904,-0.15794\H,0,-5.93562,0.69265,-0.8353\H,0,-5.96023,0.46
 53,0.9193\H,0,-3.85841,-2.10862,-0.27399\H,0,-1.37881,-2.04923,-0.2305
 3\H,0,0.679,-1.28844,-1.02961\H,0,0.70077,-1.52832,0.73544\H,0,1.86592
 ,1.75961,-0.31134\H,0,4.253,2.46193,-0.29769\H,0,6.05147,0.76662,0.002
 75\H,0,5.44694,-1.63366,0.29525\H,0,3.06892,-2.32549,0.28788\H,0,-1.64
 981,2.2201,0.31373\\Version=ES64L-G16RevC.01\State=1-A\HF=-633.1882868
 \RMSD=2.413e-09\Dipole=0.490375,-1.0128569,-0.1469496\Quadrupole=2.303
 6109,2.7512796,-5.0548904,4.9072391,0.8986858,-0.531783\PG=C01 [X(C13H
 13N1O1)]\\@
 The archive entry for this job was punched.


 THERE IS MORE TO LIFE THAN INCREASING ITS SPEED.

                                       -- GANDHI
 Job cpu time:       0 days  1 hours 30 minutes  4.9 seconds.
 Elapsed time:       0 days  0 hours  5 minutes 53.5 seconds.
 File lengths (MBytes):  RWF=    183 Int=      0 D2E=      0 Chk=     27 Scr=      2
 Normal termination of Gaussian 16 at Fri Jul 12 13:31:23 2024.
