 Entering Gaussian System, Link 0=g16
 Input=12397251_4.com
 Output=12397251_4.log
 Initial command:
 /uufs/chpc.utah.edu/sys/installdir/gaussian16/C01/AVX/g16/l1.exe "/scratch/general/vast/u6053008/1287200-notchpeak.peaks/Gau-1461947.inp" -scrdir="/scratch/general/vast/u6053008/1287200-notchpeak.peaks/"
 Entering Link 1 = /uufs/chpc.utah.edu/sys/installdir/gaussian16/C01/AVX/g16/l1.exe PID=   1461948.
  
 Copyright (c) 1988-2019, Gaussian, Inc.  All Rights Reserved.
  
 This is part of the Gaussian(R) 16 program.  It is based on
 the Gaussian(R) 09 system (copyright 2009, Gaussian, Inc.),
 the Gaussian(R) 03 system (copyright 2003, Gaussian, Inc.),
 the Gaussian(R) 98 system (copyright 1998, Gaussian, Inc.),
 the Gaussian(R) 94 system (copyright 1995, Gaussian, Inc.),
 the Gaussian 92(TM) system (copyright 1992, Gaussian, Inc.),
 the Gaussian 90(TM) system (copyright 1990, Gaussian, Inc.),
 the Gaussian 88(TM) system (copyright 1988, Gaussian, Inc.),
 the Gaussian 86(TM) system (copyright 1986, Carnegie Mellon
 University), and the Gaussian 82(TM) system (copyright 1983,
 Carnegie Mellon University). Gaussian is a federally registered
 trademark of Gaussian, Inc.
  
 This software contains proprietary and confidential information,
 including trade secrets, belonging to Gaussian, Inc.
  
 This software is provided under written license and may be
 used, copied, transmitted, or stored only in accord with that
 written license.
  
 The following legend is applicable only to US Government
 contracts under FAR:
  
                    RESTRICTED RIGHTS LEGEND
  
 Use, reproduction and disclosure by the US Government is
 subject to restrictions as set forth in subparagraphs (a)
 and (c) of the Commercial Computer Software - Restricted
 Rights clause in FAR 52.227-19.
  
 Gaussian, Inc.
 340 Quinnipiac St., Bldg. 40, Wallingford CT 06492
  
  
 ---------------------------------------------------------------
 Warning -- This program may not be used in any manner that
 competes with the business of Gaussian, Inc. or will provide
 assistance to any competitor of Gaussian, Inc.  The licensee
 of this program is prohibited from giving any competitor of
 Gaussian, Inc. access to this program.  By using this program,
 the user acknowledges that Gaussian, Inc. is engaged in the
 business of creating and licensing software in the field of
 computational chemistry and represents and warrants to the
 licensee that it is not a competitor of Gaussian, Inc. and that
 it will not use this program in any manner prohibited above.
 ---------------------------------------------------------------
  

 Cite this work as:
 Gaussian 16, Revision C.01,
 M. J. Frisch, G. W. Trucks, H. B. Schlegel, G. E. Scuseria, 
 M. A. Robb, J. R. Cheeseman, G. Scalmani, V. Barone, 
 G. A. Petersson, H. Nakatsuji, X. Li, M. Caricato, A. V. Marenich, 
 J. Bloino, B. G. Janesko, R. Gomperts, B. Mennucci, H. P. Hratchian, 
 J. V. Ortiz, A. F. Izmaylov, J. L. Sonnenberg, D. Williams-Young, 
 F. Ding, F. Lipparini, F. Egidi, J. Goings, B. Peng, A. Petrone, 
 T. Henderson, D. Ranasinghe, V. G. Zakrzewski, J. Gao, N. Rega, 
 G. Zheng, W. Liang, M. Hada, M. Ehara, K. Toyota, R. Fukuda, 
 J. Hasegawa, M. Ishida, T. Nakajima, Y. Honda, O. Kitao, H. Nakai, 
 T. Vreven, K. Throssell, J. A. Montgomery, Jr., J. E. Peralta, 
 F. Ogliaro, M. J. Bearpark, J. J. Heyd, E. N. Brothers, K. N. Kudin, 
 V. N. Staroverov, T. A. Keith, R. Kobayashi, J. Normand, 
 K. Raghavachari, A. P. Rendell, J. C. Burant, S. S. Iyengar, 
 J. Tomasi, M. Cossi, J. M. Millam, M. Klene, C. Adamo, R. Cammi, 
 J. W. Ochterski, R. L. Martin, K. Morokuma, O. Farkas, 
 J. B. Foresman, and D. J. Fox, Gaussian, Inc., Wallingford CT, 2019.
 
 ******************************************
 Gaussian 16:  ES64L-G16RevC.01  3-Jul-2019
                12-Jul-2024 
 ******************************************
 %NProcShared=16
 Will use up to   16 processors via shared memory.
 %Mem=32GB
 %chk=12397251_4.chk
 ------------------------------------------------------
 #N OPT FREQ=NORAMAN Integral(Ultrafine) wB97XD def2SVP
 ------------------------------------------------------
 1/18=20,19=15,26=4,38=1/1,3;
 2/9=110,12=2,17=6,18=5,40=1/2;
 3/5=43,7=101,11=2,25=1,30=1,71=1,74=-58,75=-5/1,2,3;
 4//1;
 5/5=2,38=5/2;
 6/7=2,8=2,9=2,10=2,28=1/1;
 7//1,2,3,16;
 1/18=20,19=15,26=4/3(2);
 2/9=110/2;
 99//99;
 2/9=110/2;
 3/5=43,7=101,11=2,25=1,30=1,71=1,74=-58,75=-5/1,2,3;
 4/5=5,16=3,69=1/1;
 5/5=2,38=5/2;
 7//1,2,3,16;
 1/18=20,19=15,26=4/3(-5);
 2/9=110/2;
 6/7=2,8=2,9=2,10=2,19=2,28=1/1;
 99/9=1/99;
 ----------
 12397251_4
 ----------
 Symbolic Z-matrix:
 Charge =  0 Multiplicity = 1
 C                    -5.55032  -0.25128   0.05704 
 C                    -4.0595   -0.0495    0.01287 
 C                    -3.48611   1.2205   -0.15222 
 C                    -2.10681   1.35003  -0.18571 
 C                    -1.31681   0.20438  -0.05329 
 O                     0.02172   0.3699   -0.09155 
 C                     0.85476  -0.7503    0.05788 
 C                     2.30166  -0.3254    0.02097 
 C                     3.29336  -1.29733  -0.14871 
 C                     4.63982  -0.94256  -0.15066 
 C                     5.01067   0.39257   0.01131 
 C                     4.02637   1.36478   0.17535 
 C                     2.67752   1.00914   0.18231 
 C                    -1.97235  -1.02274   0.10594 
 N                    -3.2981   -1.13468   0.13708 
 H                    -5.86616  -0.93104  -0.74829 
 H                    -6.09526   0.69647  -0.04991 
 H                    -5.84268  -0.71958   1.00864 
 H                    -4.12252   2.10204  -0.25368 
 H                    -1.62108   2.31935  -0.31322 
 H                     0.66127  -1.4856   -0.74526 
 H                     0.6427   -1.25493   1.02042 
 H                     3.00933  -2.34513  -0.28359 
 H                     5.40363  -1.71162  -0.28494 
 H                     6.06601   0.67353   0.00614 
 H                     4.30873   2.4127    0.29927 
 H                     1.90473   1.76832   0.30663 
 H                    -1.4093   -1.9547    0.21212 
 

 GradGradGradGradGradGradGradGradGradGradGradGradGradGradGradGradGradGrad
 Berny optimization.
 Initialization pass.
                           ----------------------------
                           !    Initial Parameters    !
                           ! (Angstroms and Degrees)  !
 --------------------------                            --------------------------
 ! Name  Definition              Value          Derivative Info.                !
 --------------------------------------------------------------------------------
 ! R1    R(1,2)                  1.5051         estimate D2E/DX2                !
 ! R2    R(1,16)                 1.1002         estimate D2E/DX2                !
 ! R3    R(1,17)                 1.0985         estimate D2E/DX2                !
 ! R4    R(1,18)                 1.1001         estimate D2E/DX2                !
 ! R5    R(2,3)                  1.4032         estimate D2E/DX2                !
 ! R6    R(2,15)                 1.3315         estimate D2E/DX2                !
 ! R7    R(3,4)                  1.3858         estimate D2E/DX2                !
 ! R8    R(3,19)                 1.092          estimate D2E/DX2                !
 ! R9    R(4,5)                  1.3979         estimate D2E/DX2                !
 ! R10   R(4,20)                 1.0917         estimate D2E/DX2                !
 ! R11   R(5,6)                  1.3493         estimate D2E/DX2                !
 ! R12   R(5,14)                 1.4003         estimate D2E/DX2                !
 ! R13   R(6,7)                  1.404          estimate D2E/DX2                !
 ! R14   R(7,8)                  1.5085         estimate D2E/DX2                !
 ! R15   R(7,21)                 1.106          estimate D2E/DX2                !
 ! R16   R(7,22)                 1.1073         estimate D2E/DX2                !
 ! R17   R(8,9)                  1.3989         estimate D2E/DX2                !
 ! R18   R(8,13)                 1.3958         estimate D2E/DX2                !
 ! R19   R(9,10)                 1.3924         estimate D2E/DX2                !
 ! R20   R(9,23)                 1.094          estimate D2E/DX2                !
 ! R21   R(10,11)                1.3951         estimate D2E/DX2                !
 ! R22   R(10,24)                1.0922         estimate D2E/DX2                !
 ! R23   R(11,12)                1.3932         estimate D2E/DX2                !
 ! R24   R(11,25)                1.0921         estimate D2E/DX2                !
 ! R25   R(12,13)                1.395          estimate D2E/DX2                !
 ! R26   R(12,26)                1.0923         estimate D2E/DX2                !
 ! R27   R(13,27)                1.0904         estimate D2E/DX2                !
 ! R28   R(14,15)                1.3308         estimate D2E/DX2                !
 ! R29   R(14,28)                1.094          estimate D2E/DX2                !
 ! A1    A(2,1,16)             110.2257         estimate D2E/DX2                !
 ! A2    A(2,1,17)             111.8926         estimate D2E/DX2                !
 ! A3    A(2,1,18)             110.2236         estimate D2E/DX2                !
 ! A4    A(16,1,17)            108.6268         estimate D2E/DX2                !
 ! A5    A(16,1,18)            107.0895         estimate D2E/DX2                !
 ! A6    A(17,1,18)            108.6416         estimate D2E/DX2                !
 ! A7    A(1,2,3)              121.9759         estimate D2E/DX2                !
 ! A8    A(1,2,15)             117.0287         estimate D2E/DX2                !
 ! A9    A(3,2,15)             120.9954         estimate D2E/DX2                !
 ! A10   A(2,3,4)              119.6149         estimate D2E/DX2                !
 ! A11   A(2,3,19)             120.2277         estimate D2E/DX2                !
 ! A12   A(4,3,19)             120.1574         estimate D2E/DX2                !
 ! A13   A(3,4,5)              118.9206         estimate D2E/DX2                !
 ! A14   A(3,4,20)             121.916          estimate D2E/DX2                !
 ! A15   A(5,4,20)             119.1634         estimate D2E/DX2                !
 ! A16   A(4,5,6)              117.2201         estimate D2E/DX2                !
 ! A17   A(4,5,14)             117.6708         estimate D2E/DX2                !
 ! A18   A(6,5,14)             125.109          estimate D2E/DX2                !
 ! A19   A(5,6,7)              119.1913         estimate D2E/DX2                !
 ! A20   A(6,7,8)              109.9856         estimate D2E/DX2                !
 ! A21   A(6,7,21)             110.4491         estimate D2E/DX2                !
 ! A22   A(6,7,22)             110.0297         estimate D2E/DX2                !
 ! A23   A(8,7,21)             109.7137         estimate D2E/DX2                !
 ! A24   A(8,7,22)             109.4715         estimate D2E/DX2                !
 ! A25   A(21,7,22)            107.1431         estimate D2E/DX2                !
 ! A26   A(7,8,9)              119.1601         estimate D2E/DX2                !
 ! A27   A(7,8,13)             121.6531         estimate D2E/DX2                !
 ! A28   A(9,8,13)             119.1705         estimate D2E/DX2                !
 ! A29   A(8,9,10)             120.5751         estimate D2E/DX2                !
 ! A30   A(8,9,23)             119.7596         estimate D2E/DX2                !
 ! A31   A(10,9,23)            119.6651         estimate D2E/DX2                !
 ! A32   A(9,10,11)            120.0475         estimate D2E/DX2                !
 ! A33   A(9,10,24)            119.803          estimate D2E/DX2                !
 ! A34   A(11,10,24)           120.1485         estimate D2E/DX2                !
 ! A35   A(10,11,12)           119.5838         estimate D2E/DX2                !
 ! A36   A(10,11,25)           120.1671         estimate D2E/DX2                !
 ! A37   A(12,11,25)           120.2488         estimate D2E/DX2                !
 ! A38   A(11,12,13)           120.3868         estimate D2E/DX2                !
 ! A39   A(11,12,26)           120.0123         estimate D2E/DX2                !
 ! A40   A(13,12,26)           119.6009         estimate D2E/DX2                !
 ! A41   A(8,13,12)            120.2353         estimate D2E/DX2                !
 ! A42   A(8,13,27)            119.2095         estimate D2E/DX2                !
 ! A43   A(12,13,27)           120.554          estimate D2E/DX2                !
 ! A44   A(5,14,15)            122.8687         estimate D2E/DX2                !
 ! A45   A(5,14,28)            121.1053         estimate D2E/DX2                !
 ! A46   A(15,14,28)           116.0259         estimate D2E/DX2                !
 ! A47   A(2,15,14)            119.9295         estimate D2E/DX2                !
 ! D1    D(16,1,2,3)           120.7799         estimate D2E/DX2                !
 ! D2    D(16,1,2,15)          -59.1809         estimate D2E/DX2                !
 ! D3    D(17,1,2,3)            -0.2109         estimate D2E/DX2                !
 ! D4    D(17,1,2,15)          179.8282         estimate D2E/DX2                !
 ! D5    D(18,1,2,3)          -121.2193         estimate D2E/DX2                !
 ! D6    D(18,1,2,15)           58.8198         estimate D2E/DX2                !
 ! D7    D(1,2,3,4)            179.9869         estimate D2E/DX2                !
 ! D8    D(1,2,3,19)            -0.0075         estimate D2E/DX2                !
 ! D9    D(15,2,3,4)            -0.0537         estimate D2E/DX2                !
 ! D10   D(15,2,3,19)          179.9518         estimate D2E/DX2                !
 ! D11   D(1,2,15,14)          179.9902         estimate D2E/DX2                !
 ! D12   D(3,2,15,14)            0.029          estimate D2E/DX2                !
 ! D13   D(2,3,4,5)              0.0011         estimate D2E/DX2                !
 ! D14   D(2,3,4,20)           179.9448         estimate D2E/DX2                !
 ! D15   D(19,3,4,5)           179.9956         estimate D2E/DX2                !
 ! D16   D(19,3,4,20)           -0.0607         estimate D2E/DX2                !
 ! D17   D(3,4,5,6)            179.9616         estimate D2E/DX2                !
 ! D18   D(3,4,5,14)             0.0707         estimate D2E/DX2                !
 ! D19   D(20,4,5,6)             0.0163         estimate D2E/DX2                !
 ! D20   D(20,4,5,14)         -179.8745         estimate D2E/DX2                !
 ! D21   D(4,5,6,7)            179.0375         estimate D2E/DX2                !
 ! D22   D(14,5,6,7)            -1.0806         estimate D2E/DX2                !
 ! D23   D(4,5,14,15)           -0.0993         estimate D2E/DX2                !
 ! D24   D(4,5,14,28)          179.8505         estimate D2E/DX2                !
 ! D25   D(6,5,14,15)         -179.9807         estimate D2E/DX2                !
 ! D26   D(6,5,14,28)           -0.0308         estimate D2E/DX2                !
 ! D27   D(5,6,7,8)           -178.4278         estimate D2E/DX2                !
 ! D28   D(5,6,7,21)            60.3281         estimate D2E/DX2                !
 ! D29   D(5,6,7,22)           -57.7561         estimate D2E/DX2                !
 ! D30   D(6,7,8,9)           -165.7843         estimate D2E/DX2                !
 ! D31   D(6,7,8,13)            15.6986         estimate D2E/DX2                !
 ! D32   D(21,7,8,9)           -44.1009         estimate D2E/DX2                !
 ! D33   D(21,7,8,13)          137.3821         estimate D2E/DX2                !
 ! D34   D(22,7,8,9)            73.2084         estimate D2E/DX2                !
 ! D35   D(22,7,8,13)         -105.3087         estimate D2E/DX2                !
 ! D36   D(7,8,9,10)          -178.2438         estimate D2E/DX2                !
 ! D37   D(7,8,9,23)             1.9088         estimate D2E/DX2                !
 ! D38   D(13,8,9,10)            0.3105         estimate D2E/DX2                !
 ! D39   D(13,8,9,23)         -179.5369         estimate D2E/DX2                !
 ! D40   D(7,8,13,12)          178.4448         estimate D2E/DX2                !
 ! D41   D(7,8,13,27)           -1.9686         estimate D2E/DX2                !
 ! D42   D(9,8,13,12)           -0.0721         estimate D2E/DX2                !
 ! D43   D(9,8,13,27)          179.5145         estimate D2E/DX2                !
 ! D44   D(8,9,10,11)           -0.2964         estimate D2E/DX2                !
 ! D45   D(8,9,10,24)         -179.9522         estimate D2E/DX2                !
 ! D46   D(23,9,10,11)         179.5512         estimate D2E/DX2                !
 ! D47   D(23,9,10,24)          -0.1046         estimate D2E/DX2                !
 ! D48   D(9,10,11,12)           0.0411         estimate D2E/DX2                !
 ! D49   D(9,10,11,25)        -179.7582         estimate D2E/DX2                !
 ! D50   D(24,10,11,12)        179.6958         estimate D2E/DX2                !
 ! D51   D(24,10,11,25)         -0.1035         estimate D2E/DX2                !
 ! D52   D(10,11,12,13)          0.1964         estimate D2E/DX2                !
 ! D53   D(10,11,12,26)       -179.7883         estimate D2E/DX2                !
 ! D54   D(25,11,12,13)        179.9956         estimate D2E/DX2                !
 ! D55   D(25,11,12,26)          0.0108         estimate D2E/DX2                !
 ! D56   D(11,12,13,8)          -0.1808         estimate D2E/DX2                !
 ! D57   D(11,12,13,27)       -179.7618         estimate D2E/DX2                !
 ! D58   D(26,12,13,8)         179.804          estimate D2E/DX2                !
 ! D59   D(26,12,13,27)          0.223          estimate D2E/DX2                !
 ! D60   D(5,14,15,2)            0.0492         estimate D2E/DX2                !
 ! D61   D(28,14,15,2)        -179.9029         estimate D2E/DX2                !
 --------------------------------------------------------------------------------
 Trust Radius=3.00D-01 FncErr=1.00D-07 GrdErr=1.00D-06 EigMax=2.50D+02 EigMin=1.00D-04
 Number of steps in this run=    147 maximum allowed number of steps=    168.
 GradGradGradGradGradGradGradGradGradGradGradGradGradGradGradGradGradGrad

                          Input orientation:                          
 ---------------------------------------------------------------------
 Center     Atomic      Atomic             Coordinates (Angstroms)
 Number     Number       Type             X           Y           Z
 ---------------------------------------------------------------------
      1          6           0       -5.550320   -0.251280    0.057040
      2          6           0       -4.059500   -0.049500    0.012870
      3          6           0       -3.486110    1.220500   -0.152220
      4          6           0       -2.106810    1.350030   -0.185710
      5          6           0       -1.316810    0.204380   -0.053290
      6          8           0        0.021720    0.369900   -0.091550
      7          6           0        0.854760   -0.750300    0.057880
      8          6           0        2.301660   -0.325400    0.020970
      9          6           0        3.293360   -1.297330   -0.148710
     10          6           0        4.639820   -0.942560   -0.150660
     11          6           0        5.010670    0.392570    0.011310
     12          6           0        4.026370    1.364780    0.175350
     13          6           0        2.677520    1.009140    0.182310
     14          6           0       -1.972350   -1.022740    0.105940
     15          7           0       -3.298100   -1.134680    0.137080
     16          1           0       -5.866160   -0.931040   -0.748290
     17          1           0       -6.095260    0.696470   -0.049910
     18          1           0       -5.842680   -0.719580    1.008640
     19          1           0       -4.122520    2.102040   -0.253680
     20          1           0       -1.621080    2.319350   -0.313220
     21          1           0        0.661270   -1.485600   -0.745260
     22          1           0        0.642700   -1.254930    1.020420
     23          1           0        3.009330   -2.345130   -0.283590
     24          1           0        5.403630   -1.711620   -0.284940
     25          1           0        6.066010    0.673530    0.006140
     26          1           0        4.308730    2.412700    0.299270
     27          1           0        1.904730    1.768320    0.306630
     28          1           0       -1.409300   -1.954700    0.212120
 ---------------------------------------------------------------------
                    Distance matrix (angstroms):
                    1          2          3          4          5
     1  C    0.000000
     2  C    1.505062   0.000000
     3  C    2.543794   1.403186   0.000000
     4  C    3.805375   2.410626   1.385773   0.000000
     5  C    4.259390   2.755210   2.397530   1.397909   0.000000
     6  O    5.608527   4.104041   3.609996   2.345242   1.349268
     7  C    6.424490   4.964181   4.771933   3.638904   2.374761
     8  C    7.852413   6.367146   5.993170   4.720634   3.657801
     9  C    8.907706   7.459741   7.231922   6.014293   4.849526
    10  C   10.215672   8.746569   8.408898   7.125603   6.066827
    11  C   10.580697   9.080937   8.538588   7.184293   6.330608
    12  C    9.712808   8.210230   7.521002   6.143816   5.472511
    13  C    8.324764   6.821794   6.176319   4.810557   4.081399
    14  C    3.660521   2.304789   2.718500   2.394405   1.400325
    15  N    2.420598   1.331455   2.380318   2.774374   2.398923
    16  H    1.100175   2.149534   3.263290   4.433113   4.740125
    17  H    1.098466   2.169039   2.663220   4.043923   4.803722
    18  H    1.100146   2.149487   3.265720   4.434691   4.739715
    19  H    2.770068   2.168904   1.091982   2.152493   3.393122
    20  H    4.710006   3.415213   2.170652   1.091684   2.152497
    21  H    6.383657   4.992275   4.987528   4.002020   2.692147
    22  H    6.347355   4.957712   4.954787   3.974968   2.668730
    23  H    8.818608   7.438156   7.410919   6.311789   5.026781
    24  H   11.056155   9.612604   9.361753   8.111119   6.992069
    25  H   11.653196  10.151294   9.569078   8.203014   7.397950
    26  H   10.215495   8.727642   7.898400   6.521014   6.053732
    27  H    7.727797   6.242019   5.437997   4.063228   3.599135
    28  H    4.480372   3.270023   3.811532   3.400887   2.177297
                    6          7          8          9         10
     6  O    0.000000
     7  C    1.403970   0.000000
     8  C    2.386258   1.508450   0.000000
     9  C    3.672404   2.507726   1.398895   0.000000
    10  C    4.801343   3.795673   2.424322   1.392415   0.000000
    11  C    4.990062   4.310442   2.802554   2.414647   1.395112
    12  C    4.135002   3.813984   2.419745   2.780135   2.409652
    13  C    2.745342   2.536448   1.395815   2.410111   2.787584
    14  C    2.440238   2.840613   4.331358   5.279010   6.617633
    15  N    3.652018   4.171363   5.659128   6.599657   7.945456
    16  H    6.065549   6.771510   8.226290   9.186429  10.522971
    17  H    6.125833   7.099827   8.459167   9.598499  10.859950
    18  H    6.065358   6.764657   8.213473   9.227160  10.548768
    19  H    4.494588   5.745105   6.872990   8.158554   9.276788
    20  H    2.558962   3.961092   4.742813   6.104028   7.061540
    21  H    2.068633   1.105956   2.150361   2.705405   4.059224
    22  H    2.064501   1.107296   2.148272   2.897354   4.176838
    23  H    4.041544   2.702269   2.161681   1.093961   2.154848
    24  H    5.773654   4.661961   3.411364   2.154863   1.092195
    25  H    6.052700   5.402508   3.894665   3.405269   2.161099
    26  H    4.764895   4.689643   3.406314   3.872465   3.401445
    27  H    2.379044   2.740029   2.150074   3.396150   3.877977
    28  H    2.746598   2.569112   4.057386   4.762074   6.143931
                   11         12         13         14         15
    11  C    0.000000
    12  C    1.393179   0.000000
    13  C    2.419295   1.394964   0.000000
    14  C    7.125632   6.456757   5.075003   0.000000
    15  N    8.448903   7.739291   6.348704   1.330832   0.000000
    16  H   10.983368  10.197355   8.810493   3.987465   2.724019
    17  H   11.110256  10.146170   8.781421   4.469716   3.348459
    18  H   10.955672  10.121120   8.732989   3.985753   2.721546
    19  H    9.295572   8.193414   6.901091   3.810093   3.362844
    20  H    6.913603   5.748356   4.521080   3.386540   3.865940
    21  H    4.797625   4.505118   3.339068   2.806196   4.071643
    22  H    4.776162   4.361909   3.157362   2.780049   4.040378
    23  H    3.404017   3.874071   3.402688   5.168906   6.436290
    24  H    2.160971   3.401904   3.879759   7.418384   8.731040
    25  H    1.092112   2.160229   3.409624   8.215992   9.537994
    26  H    2.157908   1.092346   2.155112   7.161815   8.394884
    27  H    3.409804   2.163662   1.090419   4.781427   5.960335
    28  H    6.838568   6.369208   5.048498   1.094006   2.060492
                   16         17         18         19         20
    16  H    0.000000
    17  H    1.785780   0.000000
    18  H    1.769765   1.785923   0.000000
    19  H    3.533340   2.430813   3.537505   0.000000
    20  H    5.364236   4.766693   5.366965   2.511567   0.000000
    21  H    6.550946   7.134118   6.779699   5.999788   4.457962
    22  H    6.752666   7.096032   6.507449   5.966565   4.436076
    23  H    8.999440   9.602057   9.092324   8.404850   6.572591
    24  H   11.306289  11.750685  11.363845  10.261214   8.099140
    25  H   12.063187  12.161421  12.031736  10.291467   7.867787
    26  H   10.761337  10.550373  10.647324   8.455072   5.962089
    27  H    8.293741   8.079345   8.167302   6.062430   3.622041
    28  H    4.672672   5.390323   4.670634   4.902619   4.311419
                   21         22         23         24         25
    21  H    0.000000
    22  H    1.780781   0.000000
    23  H    2.542699   2.913746   0.000000
    24  H    4.770006   4.957720   2.476693   0.000000
    25  H    5.868361   5.844657   4.305757   2.492472   0.000000
    26  H    5.439830   5.235584   4.966398   4.306985   2.489713
    27  H    3.638772   3.352947   4.299880   4.970135   4.313364
    28  H    2.328925   2.313813   4.463458   6.835362   7.926555
                   26         27         28
    26  H    0.000000
    27  H    2.488874   0.000000
    28  H    7.195668   4.985239   0.000000
 Stoichiometry    C13H13NO
 Framework group  C1[X(C13H13NO)]
 Deg. of freedom    78
 Full point group                 C1      NOp   1
 Largest Abelian subgroup         C1      NOp   1
 Largest concise Abelian subgroup C1      NOp   1
                         Standard orientation:                         
 ---------------------------------------------------------------------
 Center     Atomic      Atomic             Coordinates (Angstroms)
 Number     Number       Type             X           Y           Z
 ---------------------------------------------------------------------
      1          6           0       -5.550320   -0.251279    0.057040
      2          6           0       -4.059500   -0.049499    0.012870
      3          6           0       -3.486110    1.220501   -0.152220
      4          6           0       -2.106810    1.350031   -0.185710
      5          6           0       -1.316810    0.204380   -0.053290
      6          8           0        0.021720    0.369900   -0.091550
      7          6           0        0.854760   -0.750300    0.057880
      8          6           0        2.301660   -0.325400    0.020970
      9          6           0        3.293360   -1.297331   -0.148710
     10          6           0        4.639820   -0.942561   -0.150660
     11          6           0        5.010670    0.392569    0.011310
     12          6           0        4.026370    1.364779    0.175350
     13          6           0        2.677520    1.009139    0.182310
     14          6           0       -1.972350   -1.022739    0.105940
     15          7           0       -3.298100   -1.134679    0.137080
     16          1           0       -5.866160   -0.931039   -0.748290
     17          1           0       -6.095260    0.696472   -0.049910
     18          1           0       -5.842680   -0.719579    1.008640
     19          1           0       -4.122520    2.102041   -0.253680
     20          1           0       -1.621080    2.319350   -0.313220
     21          1           0        0.661269   -1.485600   -0.745260
     22          1           0        0.642700   -1.254930    1.020420
     23          1           0        3.009329   -2.345131   -0.283590
     24          1           0        5.403629   -1.711621   -0.284940
     25          1           0        6.066010    0.673529    0.006140
     26          1           0        4.308730    2.412699    0.299270
     27          1           0        1.904730    1.768320    0.306630
     28          1           0       -1.409301   -1.954700    0.212120
 ---------------------------------------------------------------------
 Rotational constants (GHZ):           2.6199016           0.2233655           0.2068979
 Standard basis: def2SVP (5D, 7F)
 There are   290 symmetry adapted cartesian basis functions of A   symmetry.
 There are   275 symmetry adapted basis functions of A   symmetry.
   275 basis functions,   466 primitive gaussians,   290 cartesian basis functions
    53 alpha electrons       53 beta electrons
       nuclear repulsion energy       876.5596981021 Hartrees.
 NAtoms=   28 NActive=   28 NUniq=   28 SFac= 1.00D+00 NAtFMM=   60 NAOKFM=F Big=F
 Integral buffers will be    131072 words long.
 Raffenetti 2 integral format.
 Two-electron integral symmetry is turned on.
 Nuclear repulsion after empirical dispersion term =      876.5444466947 Hartrees.
 One-electron integrals computed using PRISM.
   1 Symmetry operations used in ECPInt.
 ECPInt:  NShTT=    8385 NPrTT=   30369 LenC2=    7491 LenP2D=   19598.
 LDataN:  DoStor=T MaxTD1= 4 Len=   56
 NBasis=   275 RedAO= T EigKep=  2.93D-04  NBF=   275
 NBsUse=   275 1.00D-06 EigRej= -1.00D+00 NBFU=   275
 ExpMin= 1.22D-01 ExpMax= 2.27D+03 ExpMxC= 3.41D+02 IAcc=3 IRadAn=         5 AccDes= 0.00D+00
 Harris functional with IExCor= 4639 and IRadAn=       5 diagonalized for initial guess.
 HarFok:  IExCor= 4639 AccDes= 0.00D+00 IRadAn=         5 IDoV= 1 UseB2=F ITyADJ=14
 ICtDFT=  3500011 ScaDFX=  1.000000  1.000000  1.000000  1.000000
 FoFCou: FMM=F IPFlag=           0 FMFlag=      100000 FMFlg1=           0
         NFxFlg=           0 DoJE=T BraDBF=F KetDBF=T FulRan=T
         wScrn=  0.000000 ICntrl=       500 IOpCl=  0 I1Cent=   200000004 NGrid=           0
         NMat0=    1 NMatS0=      1 NMatT0=    0 NMatD0=    1 NMtDS0=    0 NMtDT0=    0
 Petite list used in FoFCou.
 Requested convergence on RMS density matrix=1.00D-08 within 128 cycles.
 Requested convergence on MAX density matrix=1.00D-06.
 Requested convergence on             energy=1.00D-06.
 No special actions if energy rises.
 Integral accuracy reduced to 1.0D-05 until final iterations.
 Initial convergence to 1.0D-05 achieved.  Increase integral accuracy.
 SCF Done:  E(RwB97XD) =  -632.513063387     A.U. after   15 cycles
            NFock= 15  Conv=0.65D-08     -V/T= 2.0108

 **********************************************************************

            Population analysis using the SCF Density.

 **********************************************************************

 Orbital symmetries:
       Occupied  (A) (A) (A) (A) (A) (A) (A) (A) (A) (A) (A) (A)
                 (A) (A) (A) (A) (A) (A) (A) (A) (A) (A) (A) (A)
                 (A) (A) (A) (A) (A) (A) (A) (A) (A) (A) (A) (A)
                 (A) (A) (A) (A) (A) (A) (A) (A) (A) (A) (A) (A)
                 (A) (A) (A) (A) (A)
       Virtual   (A) (A) (A) (A) (A) (A) (A) (A) (A) (A) (A) (A)
                 (A) (A) (A) (A) (A) (A) (A) (A) (A) (A) (A) (A)
                 (A) (A) (A) (A) (A) (A) (A) (A) (A) (A) (A) (A)
                 (A) (A) (A) (A) (A) (A) (A) (A) (A) (A) (A) (A)
                 (A) (A) (A) (A) (A) (A) (A) (A) (A) (A) (A) (A)
                 (A) (A) (A) (A) (A) (A) (A) (A) (A) (A) (A) (A)
                 (A) (A) (A) (A) (A) (A) (A) (A) (A) (A) (A) (A)
                 (A) (A) (A) (A) (A) (A) (A) (A) (A) (A) (A) (A)
                 (A) (A) (A) (A) (A) (A) (A) (A) (A) (A) (A) (A)
                 (A) (A) (A) (A) (A) (A) (A) (A) (A) (A) (A) (A)
                 (A) (A) (A) (A) (A) (A) (A) (A) (A) (A) (A) (A)
                 (A) (A) (A) (A) (A) (A) (A) (A) (A) (A) (A) (A)
                 (A) (A) (A) (A) (A) (A) (A) (A) (A) (A) (A) (A)
                 (A) (A) (A) (A) (A) (A) (A) (A) (A) (A) (A) (A)
                 (A) (A) (A) (A) (A) (A) (A) (A) (A) (A) (A) (A)
                 (A) (A) (A) (A) (A) (A) (A) (A) (A) (A) (A) (A)
                 (A) (A) (A) (A) (A) (A) (A) (A) (A) (A) (A) (A)
                 (A) (A) (A) (A) (A) (A) (A) (A) (A) (A) (A) (A)
                 (A) (A) (A) (A) (A) (A)
 The electronic state is 1-A.
 Alpha  occ. eigenvalues --  -19.29879 -14.43564 -10.36861 -10.36829 -10.33413
 Alpha  occ. eigenvalues --  -10.33206 -10.31541 -10.31520 -10.30969 -10.30789
 Alpha  occ. eigenvalues --  -10.30713 -10.30556 -10.30456 -10.30286 -10.29231
 Alpha  occ. eigenvalues --   -1.17887  -1.03770  -0.95956  -0.90532  -0.87851
 Alpha  occ. eigenvalues --   -0.86100  -0.84154  -0.80135  -0.77528  -0.72580
 Alpha  occ. eigenvalues --   -0.70660  -0.68864  -0.67656  -0.63436  -0.61875
 Alpha  occ. eigenvalues --   -0.59165  -0.58202  -0.56745  -0.54514  -0.53446
 Alpha  occ. eigenvalues --   -0.52777  -0.51793  -0.51764  -0.50804  -0.49178
 Alpha  occ. eigenvalues --   -0.48125  -0.46294  -0.46124  -0.45606  -0.44649
 Alpha  occ. eigenvalues --   -0.43165  -0.42456  -0.42148  -0.36197  -0.33577
 Alpha  occ. eigenvalues --   -0.33251  -0.32766  -0.30547
 Alpha virt. eigenvalues --    0.03985   0.05526   0.05950   0.06916   0.14036
 Alpha virt. eigenvalues --    0.14831   0.14964   0.16918   0.17995   0.18835
 Alpha virt. eigenvalues --    0.19487   0.19934   0.20262   0.21228   0.22486
 Alpha virt. eigenvalues --    0.23601   0.24531   0.25317   0.25621   0.26888
 Alpha virt. eigenvalues --    0.28689   0.31250   0.31499   0.32625   0.35597
 Alpha virt. eigenvalues --    0.36929   0.37029   0.38584   0.38922   0.40215
 Alpha virt. eigenvalues --    0.41610   0.43317   0.44886   0.47468   0.48908
 Alpha virt. eigenvalues --    0.49354   0.50446   0.50802   0.52516   0.52797
 Alpha virt. eigenvalues --    0.53021   0.54178   0.54851   0.55305   0.55611
 Alpha virt. eigenvalues --    0.56908   0.57620   0.58374   0.58720   0.61499
 Alpha virt. eigenvalues --    0.62156   0.62469   0.64341   0.65148   0.66164
 Alpha virt. eigenvalues --    0.67913   0.68424   0.68771   0.69780   0.70270
 Alpha virt. eigenvalues --    0.70908   0.71894   0.71973   0.72547   0.73752
 Alpha virt. eigenvalues --    0.74267   0.74636   0.75085   0.75522   0.76589
 Alpha virt. eigenvalues --    0.77252   0.78212   0.78523   0.78936   0.80794
 Alpha virt. eigenvalues --    0.81770   0.81832   0.82342   0.82693   0.83089
 Alpha virt. eigenvalues --    0.85318   0.85584   0.87866   0.89419   0.90627
 Alpha virt. eigenvalues --    0.92578   0.92839   0.94918   0.97633   1.01059
 Alpha virt. eigenvalues --    1.01640   1.03157   1.10499   1.12986   1.13752
 Alpha virt. eigenvalues --    1.14865   1.17990   1.22257   1.22964   1.26041
 Alpha virt. eigenvalues --    1.26759   1.29362   1.32177   1.32605   1.32713
 Alpha virt. eigenvalues --    1.33568   1.34645   1.35307   1.36624   1.38262
 Alpha virt. eigenvalues --    1.38862   1.39541   1.41128   1.42273   1.44308
 Alpha virt. eigenvalues --    1.51311   1.55901   1.59689   1.60770   1.61347
 Alpha virt. eigenvalues --    1.61813   1.62936   1.66360   1.72108   1.74484
 Alpha virt. eigenvalues --    1.75213   1.75488   1.76250   1.78806   1.79918
 Alpha virt. eigenvalues --    1.81213   1.81621   1.81789   1.82041   1.83304
 Alpha virt. eigenvalues --    1.83886   1.84491   1.85695   1.86748   1.87278
 Alpha virt. eigenvalues --    1.88079   1.88242   1.88959   1.89343   1.91211
 Alpha virt. eigenvalues --    1.92278   1.94183   1.94392   1.95735   1.97774
 Alpha virt. eigenvalues --    2.01044   2.02676   2.02857   2.04907   2.05553
 Alpha virt. eigenvalues --    2.06384   2.07198   2.09925   2.11566   2.14067
 Alpha virt. eigenvalues --    2.16452   2.17810   2.19148   2.20392   2.21307
 Alpha virt. eigenvalues --    2.22956   2.24088   2.25350   2.27189   2.28520
 Alpha virt. eigenvalues --    2.33295   2.34734   2.35588   2.36942   2.38792
 Alpha virt. eigenvalues --    2.39077   2.41376   2.43086   2.43848   2.44932
 Alpha virt. eigenvalues --    2.46471   2.48447   2.49492   2.51456   2.57553
 Alpha virt. eigenvalues --    2.58164   2.59909   2.62371   2.63915   2.69932
 Alpha virt. eigenvalues --    2.70713   2.71747   2.71873   2.73147   2.78067
 Alpha virt. eigenvalues --    2.81081   2.81298   2.82104   2.82318   2.85857
 Alpha virt. eigenvalues --    2.89447   2.92070   2.94167   2.95716   2.95934
 Alpha virt. eigenvalues --    2.97507   2.99642   3.00494   3.03042   3.06926
 Alpha virt. eigenvalues --    3.10505   3.14865   3.17301   3.17599   3.21749
 Alpha virt. eigenvalues --    3.24200   3.32807   3.41919   3.54567   3.59489
 Alpha virt. eigenvalues --    3.72714   3.80780
          Condensed to atoms (all electrons):
               1          2          3          4          5          6
     1  C    4.577285   0.392266  -0.090444   0.004813   0.002543   0.000006
     2  C    0.392266   4.977550   0.446377  -0.003864  -0.066720   0.000441
     3  C   -0.090444   0.446377   4.952027   0.412899   0.034604   0.003727
     4  C    0.004813  -0.003864   0.412899   4.961161   0.403840  -0.073598
     5  C    0.002543  -0.066720   0.034604   0.403840   4.917668   0.360638
     6  O    0.000006   0.000441   0.003727  -0.073598   0.360638   7.889848
     7  C    0.000000   0.000059  -0.000104   0.004259  -0.056171   0.319125
     8  C   -0.000000   0.000002  -0.000009   0.000565   0.007148  -0.066574
     9  C   -0.000000  -0.000000  -0.000000   0.000014   0.000007   0.001636
    10  C    0.000000   0.000000   0.000000  -0.000000  -0.000002  -0.000083
    11  C    0.000000   0.000000  -0.000000   0.000000   0.000001  -0.000003
    12  C   -0.000000  -0.000000   0.000000  -0.000009  -0.000009   0.000725
    13  C    0.000000   0.000000   0.000002  -0.000146   0.000391   0.007612
    14  C    0.003982  -0.070050  -0.060799  -0.041694   0.376231  -0.062493
    15  N   -0.073196   0.519397  -0.047632  -0.049236  -0.019066   0.001882
    16  H    0.377913  -0.011365   0.004610  -0.000419   0.000102  -0.000000
    17  H    0.383530  -0.013491  -0.009545   0.001795  -0.000265  -0.000000
    18  H    0.377924  -0.011423   0.004648  -0.000407   0.000098  -0.000000
    19  H   -0.009281  -0.043379   0.423087  -0.055974   0.013023  -0.000051
    20  H   -0.000251   0.010614  -0.051891   0.434437  -0.061943   0.000922
    21  H    0.000000  -0.000051   0.000019  -0.000010  -0.007276  -0.029264
    22  H    0.000001  -0.000054  -0.000002   0.000243  -0.004914  -0.030004
    23  H   -0.000000  -0.000000  -0.000000  -0.000000   0.000008   0.000059
    24  H   -0.000000  -0.000000  -0.000000   0.000000  -0.000000   0.000001
    25  H   -0.000000  -0.000000   0.000000  -0.000000   0.000000   0.000000
    26  H   -0.000000  -0.000000  -0.000000   0.000000   0.000000  -0.000016
    27  H   -0.000000  -0.000000   0.000003  -0.000261   0.000148   0.016002
    28  H   -0.000261   0.005503   0.001038   0.003796  -0.075873  -0.004407
               7          8          9         10         11         12
     1  C    0.000000  -0.000000  -0.000000   0.000000   0.000000  -0.000000
     2  C    0.000059   0.000002  -0.000000   0.000000   0.000000  -0.000000
     3  C   -0.000104  -0.000009  -0.000000   0.000000  -0.000000   0.000000
     4  C    0.004259   0.000565   0.000014  -0.000000   0.000000  -0.000009
     5  C   -0.056171   0.007148   0.000007  -0.000002   0.000001  -0.000009
     6  O    0.319125  -0.066574   0.001636  -0.000083  -0.000003   0.000725
     7  C    4.555996   0.307916  -0.066835   0.009061  -0.000246   0.012064
     8  C    0.307916   5.343405   0.339218   0.063393  -0.132395   0.063562
     9  C   -0.066835   0.339218   5.013371   0.363966   0.057970  -0.121431
    10  C    0.009061   0.063393   0.363966   4.966192   0.330340   0.060646
    11  C   -0.000246  -0.132395   0.057970   0.330340   5.038624   0.325199
    12  C    0.012064   0.063562  -0.121431   0.060646   0.325199   5.009298
    13  C   -0.081873   0.337093   0.049798  -0.115795   0.060904   0.332045
    14  C    0.000621   0.000539  -0.000022   0.000001  -0.000000   0.000004
    15  N    0.000336  -0.000003  -0.000000   0.000000  -0.000000  -0.000000
    16  H   -0.000000  -0.000000   0.000000  -0.000000  -0.000000   0.000000
    17  H   -0.000000   0.000000   0.000000  -0.000000   0.000000   0.000000
    18  H   -0.000000   0.000000   0.000000  -0.000000  -0.000000  -0.000000
    19  H    0.000009   0.000000   0.000000  -0.000000   0.000000  -0.000000
    20  H   -0.000388  -0.000186   0.000001  -0.000000  -0.000000   0.000005
    21  H    0.399869  -0.042288  -0.002300   0.000522   0.000014  -0.000083
    22  H    0.385483  -0.016757  -0.003263  -0.000261   0.000043  -0.000177
    23  H   -0.012834  -0.070511   0.443364  -0.056302   0.012398  -0.001543
    24  H   -0.000275   0.013670  -0.063579   0.445034  -0.064953   0.012308
    25  H    0.000029  -0.001383   0.012517  -0.062973   0.443736  -0.062325
    26  H   -0.000269   0.013657  -0.001471   0.012449  -0.065703   0.446043
    27  H   -0.021843  -0.060840   0.012600  -0.001585   0.012070  -0.062661
    28  H    0.006159   0.000657   0.000055  -0.000000   0.000000  -0.000000
              13         14         15         16         17         18
     1  C    0.000000   0.003982  -0.073196   0.377913   0.383530   0.377924
     2  C    0.000000  -0.070050   0.519397  -0.011365  -0.013491  -0.011423
     3  C    0.000002  -0.060799  -0.047632   0.004610  -0.009545   0.004648
     4  C   -0.000146  -0.041694  -0.049236  -0.000419   0.001795  -0.000407
     5  C    0.000391   0.376231  -0.019066   0.000102  -0.000265   0.000098
     6  O    0.007612  -0.062493   0.001882  -0.000000  -0.000000  -0.000000
     7  C   -0.081873   0.000621   0.000336  -0.000000  -0.000000  -0.000000
     8  C    0.337093   0.000539  -0.000003  -0.000000   0.000000   0.000000
     9  C    0.049798  -0.000022  -0.000000   0.000000   0.000000   0.000000
    10  C   -0.115795   0.000001   0.000000  -0.000000  -0.000000  -0.000000
    11  C    0.060904  -0.000000  -0.000000  -0.000000   0.000000  -0.000000
    12  C    0.332045   0.000004  -0.000000   0.000000   0.000000  -0.000000
    13  C    5.009838  -0.000018  -0.000000   0.000000  -0.000000  -0.000000
    14  C   -0.000018   4.928444   0.523132   0.000336  -0.000053   0.000378
    15  N   -0.000000   0.523132   6.294734   0.001069   0.005001   0.001095
    16  H    0.000000   0.000336   0.001069   0.605393  -0.019386  -0.013575
    17  H   -0.000000  -0.000053   0.005001  -0.019386   0.647551  -0.019397
    18  H   -0.000000   0.000378   0.001095  -0.013575  -0.019397   0.605450
    19  H   -0.000000  -0.000448   0.005973   0.000075   0.002540   0.000074
    20  H   -0.000021   0.012170  -0.000410   0.000008   0.000015   0.000008
    21  H    0.007028   0.007067   0.000072   0.000001  -0.000000  -0.000000
    22  H   -0.004779   0.006932  -0.000000  -0.000000  -0.000000   0.000001
    23  H    0.012738   0.000001  -0.000000   0.000000   0.000000   0.000000
    24  H   -0.001503  -0.000000  -0.000000   0.000000   0.000000   0.000000
    25  H    0.012192   0.000000  -0.000000   0.000000   0.000000   0.000000
    26  H   -0.064210  -0.000000   0.000000  -0.000000  -0.000000   0.000000
    27  H    0.449718   0.000082  -0.000002   0.000000   0.000000   0.000000
    28  H   -0.000021   0.430705  -0.033285  -0.000029   0.000005  -0.000031
              19         20         21         22         23         24
     1  C   -0.009281  -0.000251   0.000000   0.000001  -0.000000  -0.000000
     2  C   -0.043379   0.010614  -0.000051  -0.000054  -0.000000  -0.000000
     3  C    0.423087  -0.051891   0.000019  -0.000002  -0.000000  -0.000000
     4  C   -0.055974   0.434437  -0.000010   0.000243  -0.000000   0.000000
     5  C    0.013023  -0.061943  -0.007276  -0.004914   0.000008  -0.000000
     6  O   -0.000051   0.000922  -0.029264  -0.030004   0.000059   0.000001
     7  C    0.000009  -0.000388   0.399869   0.385483  -0.012834  -0.000275
     8  C    0.000000  -0.000186  -0.042288  -0.016757  -0.070511   0.013670
     9  C    0.000000   0.000001  -0.002300  -0.003263   0.443364  -0.063579
    10  C   -0.000000  -0.000000   0.000522  -0.000261  -0.056302   0.445034
    11  C    0.000000  -0.000000   0.000014   0.000043   0.012398  -0.064953
    12  C   -0.000000   0.000005  -0.000083  -0.000177  -0.001543   0.012308
    13  C   -0.000000  -0.000021   0.007028  -0.004779   0.012738  -0.001503
    14  C   -0.000448   0.012170   0.007067   0.006932   0.000001  -0.000000
    15  N    0.005973  -0.000410   0.000072  -0.000000  -0.000000  -0.000000
    16  H    0.000075   0.000008   0.000001  -0.000000   0.000000   0.000000
    17  H    0.002540   0.000015  -0.000000  -0.000000   0.000000   0.000000
    18  H    0.000074   0.000008  -0.000000   0.000001   0.000000   0.000000
    19  H    0.658236  -0.011026  -0.000000  -0.000000   0.000000   0.000000
    20  H   -0.011026   0.638091   0.000033   0.000072   0.000000   0.000000
    21  H   -0.000000   0.000033   0.663177  -0.045769   0.003876  -0.000003
    22  H   -0.000000   0.000072  -0.045769   0.657486   0.001188   0.000008
    23  H    0.000000   0.000000   0.003876   0.001188   0.669932  -0.011393
    24  H    0.000000   0.000000  -0.000003   0.000008  -0.011393   0.659599
    25  H   -0.000000  -0.000000  -0.000001  -0.000001  -0.000222  -0.010999
    26  H    0.000000  -0.000000   0.000004   0.000006   0.000025  -0.000222
    27  H   -0.000001   0.000458   0.000843   0.000587  -0.000158   0.000023
    28  H    0.000054  -0.000219   0.001155   0.001139   0.000008   0.000000
              25         26         27         28
     1  C   -0.000000  -0.000000  -0.000000  -0.000261
     2  C   -0.000000  -0.000000  -0.000000   0.005503
     3  C    0.000000  -0.000000   0.000003   0.001038
     4  C   -0.000000   0.000000  -0.000261   0.003796
     5  C    0.000000   0.000000   0.000148  -0.075873
     6  O    0.000000  -0.000016   0.016002  -0.004407
     7  C    0.000029  -0.000269  -0.021843   0.006159
     8  C   -0.001383   0.013657  -0.060840   0.000657
     9  C    0.012517  -0.001471   0.012600   0.000055
    10  C   -0.062973   0.012449  -0.001585  -0.000000
    11  C    0.443736  -0.065703   0.012070   0.000000
    12  C   -0.062325   0.446043  -0.062661  -0.000000
    13  C    0.012192  -0.064210   0.449718  -0.000021
    14  C    0.000000  -0.000000   0.000082   0.430705
    15  N   -0.000000   0.000000  -0.000002  -0.033285
    16  H    0.000000  -0.000000   0.000000  -0.000029
    17  H    0.000000  -0.000000   0.000000   0.000005
    18  H    0.000000   0.000000   0.000000  -0.000031
    19  H   -0.000000   0.000000  -0.000001   0.000054
    20  H   -0.000000  -0.000000   0.000458  -0.000219
    21  H   -0.000001   0.000004   0.000843   0.001155
    22  H   -0.000001   0.000006   0.000587   0.001139
    23  H   -0.000222   0.000025  -0.000158   0.000008
    24  H   -0.010999  -0.000222   0.000023   0.000000
    25  H    0.658147  -0.011139  -0.000191  -0.000000
    26  H   -0.011139   0.658943  -0.010637   0.000000
    27  H   -0.000191  -0.010637   0.644260   0.000001
    28  H   -0.000000   0.000000   0.000001   0.635305
 Mulliken charges:
               1
     1  C    0.053168
     2  C   -0.131810
     3  C   -0.022616
     4  C   -0.002201
     5  C    0.175786
     6  O   -0.336130
     7  C    0.239853
     8  C   -0.099879
     9  C   -0.035617
    10  C   -0.014602
    11  C   -0.017999
    12  C   -0.013662
    13  C   -0.010994
    14  C   -0.055045
    15  N   -0.129861
    16  H    0.055270
    17  H    0.021701
    18  H    0.055158
    19  H    0.017090
    20  H    0.029503
    21  H    0.043366
    22  H    0.052795
    23  H    0.009364
    24  H    0.022283
    25  H    0.022612
    26  H    0.022539
    27  H    0.021384
    28  H    0.028544
 Sum of Mulliken charges =  -0.00000
 Mulliken charges with hydrogens summed into heavy atoms:
               1
     1  C    0.185296
     2  C   -0.131810
     3  C   -0.005526
     4  C    0.027302
     5  C    0.175786
     6  O   -0.336130
     7  C    0.336014
     8  C   -0.099879
     9  C   -0.026252
    10  C    0.007682
    11  C    0.004613
    12  C    0.008878
    13  C    0.010390
    14  C   -0.026501
    15  N   -0.129861
 Electronic spatial extent (au):  <R**2>=           5033.8982
 Charge=             -0.0000 electrons
 Dipole moment (field-independent basis, Debye):
    X=              0.8206    Y=              0.6989    Z=             -0.0433  Tot=              1.0787
 Quadrupole moment (field-independent basis, Debye-Ang):
   XX=            -80.4840   YY=            -82.1506   ZZ=            -92.0619
   XY=             -7.4967   XZ=              0.6214   YZ=              0.6926
 Traceless Quadrupole moment (field-independent basis, Debye-Ang):
   XX=              4.4148   YY=              2.7483   ZZ=             -7.1631
   XY=             -7.4967   XZ=              0.6214   YZ=              0.6926
 Octapole moment (field-independent basis, Debye-Ang**2):
  XXX=              6.9989  YYY=             10.2944  ZZZ=              0.7190  XYY=             14.3658
  XXY=             25.6927  XXZ=             -5.0854  XZZ=            -11.2711  YZZ=             -2.5673
  YYZ=             -1.8309  XYZ=              3.8464
 Hexadecapole moment (field-independent basis, Debye-Ang**3):
 XXXX=          -5701.4134 YYYY=           -585.4635 ZZZZ=           -119.9024 XXXY=            -76.7657
 XXXZ=             -6.0773 YYYX=            -31.7049 YYYZ=              2.7147 ZZZX=             -3.7838
 ZZZY=             -0.9710 XXYY=          -1098.2776 XXZZ=          -1127.2479 YYZZ=           -130.1268
 XXYZ=             15.4288 YYXZ=              6.0950 ZZXY=              7.1139
 N-N= 8.765444466947D+02 E-N=-3.219915495445D+03  KE= 6.257565580977D+02
   1 Symmetry operations used in ECPInt.
 ECPInt:  NShTT=    8385 NPrTT=   30369 LenC2=    7491 LenP2D=   19598.
 LDataN:  DoStor=T MaxTD1= 5 Len=  102
 Calling FoFJK, ICntrl=      2127 FMM=F ISym2X=0 I1Cent= 0 IOpClX= 0 NMat=1 NMatS=1 NMatT=0.
 ***** Axes restored to original set *****
 -------------------------------------------------------------------
 Center     Atomic                   Forces (Hartrees/Bohr)
 Number     Number              X              Y              Z
 -------------------------------------------------------------------
      1        6          -0.000002224    0.000000905    0.000001735
      2        6           0.000001349    0.000005378   -0.000001177
      3        6          -0.000007211   -0.000007389   -0.000000263
      4        6           0.000005632   -0.000001675    0.000000520
      5        6           0.000001539    0.000000651    0.000000225
      6        8          -0.000000842    0.000004750   -0.000000528
      7        6          -0.000003354   -0.000004578   -0.000003636
      8        6           0.000005728    0.000001416   -0.000000767
      9        6           0.000005413   -0.000000446    0.000000625
     10        6          -0.000009088    0.000003287    0.000001198
     11        6           0.000008356    0.000003565    0.000000122
     12        6          -0.000006518    0.000001357   -0.000000059
     13        6          -0.000001548    0.000000064   -0.000001403
     14        6          -0.000001193   -0.000005890    0.000001131
     15        7           0.000002024   -0.000003032    0.000000454
     16        1           0.000000566   -0.000003237    0.000000522
     17        1           0.000001593   -0.000005213    0.000001388
     18        1           0.000000586   -0.000000429   -0.000002680
     19        1          -0.000002308    0.000001072   -0.000000478
     20        1           0.000000216    0.000001208   -0.000001102
     21        1           0.000001225    0.000002359    0.000003695
     22        1           0.000001128   -0.000000397    0.000001342
     23        1          -0.000000322   -0.000000004    0.000000295
     24        1           0.000003078   -0.000000462   -0.000000551
     25        1          -0.000002464    0.000000957   -0.000000318
     26        1          -0.000000379    0.000000521   -0.000000924
     27        1          -0.000001202    0.000003282    0.000000556
     28        1           0.000000222    0.000001980    0.000000078
 -------------------------------------------------------------------
 Cartesian Forces:  Max     0.000009088 RMS     0.000002918

 GradGradGradGradGradGradGradGradGradGradGradGradGradGradGradGradGradGrad
 Berny optimization.
 FormGI is forming the generalized inverse of G from B-inverse, IUseBI=4.
 Internal  Forces:  Max     0.000006403 RMS     0.000001444
 Search for a local minimum.
 Step number   1 out of a maximum of  147
 All quantities printed in internal units (Hartrees-Bohrs-Radians)
 Mixed Optimization -- En-DIIS/RFO-DIIS
 Second derivative matrix not updated -- first step.
 ITU=  0
     Eigenvalues ---    0.00654   0.00699   0.01528   0.01532   0.01639
     Eigenvalues ---    0.02112   0.02126   0.02134   0.02147   0.02150
     Eigenvalues ---    0.02159   0.02163   0.02168   0.02170   0.02171
     Eigenvalues ---    0.02176   0.02191   0.02208   0.02257   0.02363
     Eigenvalues ---    0.02499   0.06324   0.07095   0.07380   0.07462
     Eigenvalues ---    0.11523   0.14002   0.16000   0.16000   0.16000
     Eigenvalues ---    0.16000   0.16000   0.16000   0.16000   0.16000
     Eigenvalues ---    0.16000   0.16000   0.16000   0.22000   0.22000
     Eigenvalues ---    0.22031   0.22334   0.23398   0.23476   0.24587
     Eigenvalues ---    0.24991   0.25000   0.25000   0.25000   0.31507
     Eigenvalues ---    0.31852   0.32888   0.33032   0.33663   0.33666
     Eigenvalues ---    0.33852   0.34354   0.34359   0.34543   0.34560
     Eigenvalues ---    0.34570   0.34585   0.34619   0.34764   0.41909
     Eigenvalues ---    0.42117   0.42248   0.44380   0.44969   0.45335
     Eigenvalues ---    0.46096   0.46381   0.46584   0.46785   0.47101
     Eigenvalues ---    0.55177   0.56857   0.58371
 RFO step:  Lambda= 0.00000000D+00 EMin= 6.54167745D-03
 Linear search not attempted -- first point.
 Iteration  1 RMS(Cart)=  0.00002646 RMS(Int)=  0.00000000
 Iteration  2 RMS(Cart)=  0.00000000 RMS(Int)=  0.00000000
 Variable       Old X    -DE/DX   Delta X   Delta X   Delta X     New X
                                 (Linear)    (Quad)   (Total)
    R1        2.84415  -0.00000   0.00000  -0.00000  -0.00000   2.84415
    R2        2.07903   0.00000   0.00000   0.00000   0.00000   2.07903
    R3        2.07580  -0.00000   0.00000  -0.00001  -0.00001   2.07579
    R4        2.07898  -0.00000   0.00000  -0.00001  -0.00001   2.07897
    R5        2.65164  -0.00000   0.00000  -0.00001  -0.00001   2.65163
    R6        2.51609   0.00000   0.00000   0.00000   0.00000   2.51609
    R7        2.61873   0.00001   0.00000   0.00001   0.00001   2.61875
    R8        2.06355   0.00000   0.00000   0.00001   0.00001   2.06356
    R9        2.64166  -0.00000   0.00000  -0.00000  -0.00000   2.64166
   R10        2.06298   0.00000   0.00000   0.00001   0.00001   2.06299
   R11        2.54975  -0.00000   0.00000  -0.00000  -0.00000   2.54974
   R12        2.64623   0.00000   0.00000   0.00000   0.00000   2.64624
   R13        2.65312   0.00000   0.00000   0.00001   0.00001   2.65313
   R14        2.85056   0.00000   0.00000   0.00000   0.00000   2.85056
   R15        2.08995  -0.00000   0.00000  -0.00001  -0.00001   2.08994
   R16        2.09249   0.00000   0.00000   0.00000   0.00000   2.09249
   R17        2.64353   0.00000   0.00000   0.00000   0.00000   2.64353
   R18        2.63771  -0.00000   0.00000  -0.00000  -0.00000   2.63771
   R19        2.63128  -0.00000   0.00000  -0.00001  -0.00001   2.63128
   R20        2.06729   0.00000   0.00000   0.00000   0.00000   2.06729
   R21        2.63638   0.00000   0.00000   0.00000   0.00000   2.63638
   R22        2.06395   0.00000   0.00000   0.00001   0.00001   2.06396
   R23        2.63273   0.00000   0.00000   0.00001   0.00001   2.63273
   R24        2.06379  -0.00000   0.00000  -0.00001  -0.00001   2.06378
   R25        2.63610  -0.00000   0.00000  -0.00000  -0.00000   2.63609
   R26        2.06423  -0.00000   0.00000  -0.00000  -0.00000   2.06423
   R27        2.06059   0.00000   0.00000   0.00001   0.00001   2.06060
   R28        2.51491  -0.00000   0.00000  -0.00000  -0.00000   2.51491
   R29        2.06737  -0.00000   0.00000  -0.00001  -0.00001   2.06736
    A1        1.92380  -0.00000   0.00000  -0.00000  -0.00000   1.92380
    A2        1.95289   0.00000   0.00000   0.00000   0.00000   1.95290
    A3        1.92377   0.00000   0.00000   0.00000   0.00000   1.92377
    A4        1.89589   0.00000   0.00000   0.00001   0.00001   1.89590
    A5        1.86907  -0.00000   0.00000  -0.00001  -0.00001   1.86906
    A6        1.89615  -0.00000   0.00000  -0.00001  -0.00001   1.89615
    A7        2.12888   0.00000   0.00000   0.00000   0.00000   2.12888
    A8        2.04254  -0.00000   0.00000  -0.00001  -0.00001   2.04253
    A9        2.11177   0.00000   0.00000   0.00000   0.00000   2.11177
   A10        2.08767  -0.00000   0.00000  -0.00000  -0.00000   2.08767
   A11        2.09837   0.00000   0.00000   0.00000   0.00000   2.09837
   A12        2.09714   0.00000   0.00000   0.00000   0.00000   2.09714
   A13        2.07556  -0.00000   0.00000  -0.00000  -0.00000   2.07555
   A14        2.12784   0.00000   0.00000   0.00000   0.00000   2.12784
   A15        2.07979   0.00000   0.00000   0.00000   0.00000   2.07979
   A16        2.04588  -0.00000   0.00000  -0.00000  -0.00000   2.04588
   A17        2.05374   0.00000   0.00000   0.00000   0.00000   2.05375
   A18        2.18356  -0.00000   0.00000  -0.00000  -0.00000   2.18356
   A19        2.08028  -0.00000   0.00000  -0.00001  -0.00001   2.08027
   A20        1.91961  -0.00000   0.00000  -0.00001  -0.00001   1.91960
   A21        1.92770   0.00000   0.00000   0.00001   0.00001   1.92771
   A22        1.92038   0.00000   0.00000   0.00001   0.00001   1.92039
   A23        1.91487   0.00000   0.00000   0.00000   0.00000   1.91487
   A24        1.91064  -0.00000   0.00000  -0.00000  -0.00000   1.91063
   A25        1.87000  -0.00000   0.00000  -0.00000  -0.00000   1.87000
   A26        2.07974   0.00000   0.00000   0.00000   0.00000   2.07974
   A27        2.12325  -0.00000   0.00000  -0.00001  -0.00001   2.12323
   A28        2.07992   0.00000   0.00000   0.00001   0.00001   2.07993
   A29        2.10443  -0.00000   0.00000  -0.00001  -0.00001   2.10442
   A30        2.09020   0.00000   0.00000  -0.00000  -0.00000   2.09020
   A31        2.08855   0.00000   0.00000   0.00001   0.00001   2.08856
   A32        2.09522   0.00000   0.00000   0.00001   0.00001   2.09523
   A33        2.09096  -0.00000   0.00000  -0.00000  -0.00000   2.09095
   A34        2.09699  -0.00000   0.00000  -0.00001  -0.00001   2.09698
   A35        2.08713  -0.00000   0.00000  -0.00001  -0.00001   2.08712
   A36        2.09731   0.00000   0.00000   0.00000   0.00000   2.09731
   A37        2.09874   0.00000   0.00000   0.00001   0.00001   2.09874
   A38        2.10115   0.00000   0.00000   0.00001   0.00001   2.10115
   A39        2.09461  -0.00000   0.00000  -0.00001  -0.00001   2.09460
   A40        2.08743   0.00000   0.00000   0.00000   0.00000   2.08743
   A41        2.09850  -0.00000   0.00000  -0.00001  -0.00001   2.09849
   A42        2.08060   0.00000   0.00000   0.00001   0.00001   2.08061
   A43        2.10406  -0.00000   0.00000  -0.00001  -0.00001   2.10406
   A44        2.14446  -0.00000   0.00000  -0.00000  -0.00000   2.14446
   A45        2.11369  -0.00000   0.00000  -0.00000  -0.00000   2.11368
   A46        2.02503   0.00000   0.00000   0.00001   0.00001   2.02504
   A47        2.09316   0.00000   0.00000   0.00000   0.00000   2.09317
    D1        2.10801   0.00000   0.00000   0.00000   0.00000   2.10801
    D2       -1.03290   0.00000   0.00000  -0.00000  -0.00000  -1.03290
    D3       -0.00368  -0.00000   0.00000  -0.00001  -0.00001  -0.00369
    D4        3.13859  -0.00000   0.00000  -0.00002  -0.00002   3.13858
    D5       -2.11568  -0.00000   0.00000  -0.00001  -0.00001  -2.11568
    D6        1.02660  -0.00000   0.00000  -0.00001  -0.00001   1.02659
    D7        3.14136  -0.00000   0.00000  -0.00001  -0.00001   3.14136
    D8       -0.00013  -0.00000   0.00000  -0.00000  -0.00000  -0.00013
    D9       -0.00094  -0.00000   0.00000  -0.00000  -0.00000  -0.00094
   D10        3.14075   0.00000   0.00000   0.00000   0.00000   3.14076
   D11        3.14142   0.00000   0.00000   0.00001   0.00001   3.14143
   D12        0.00051   0.00000   0.00000   0.00000   0.00000   0.00051
   D13        0.00002   0.00000   0.00000   0.00001   0.00001   0.00003
   D14        3.14063  -0.00000   0.00000  -0.00001  -0.00001   3.14062
   D15        3.14152  -0.00000   0.00000  -0.00000  -0.00000   3.14151
   D16       -0.00106  -0.00000   0.00000  -0.00002  -0.00002  -0.00108
   D17        3.14092  -0.00000   0.00000  -0.00002  -0.00002   3.14090
   D18        0.00123  -0.00000   0.00000  -0.00000  -0.00000   0.00123
   D19        0.00028  -0.00000   0.00000  -0.00001  -0.00001   0.00028
   D20       -3.13940   0.00000   0.00000   0.00001   0.00001  -3.13939
   D21        3.12479   0.00000   0.00000   0.00001   0.00001   3.12480
   D22       -0.01886  -0.00000   0.00000  -0.00001  -0.00001  -0.01887
   D23       -0.00173   0.00000   0.00000   0.00000   0.00000  -0.00173
   D24        3.13898  -0.00000   0.00000  -0.00001  -0.00001   3.13898
   D25       -3.14126   0.00000   0.00000   0.00002   0.00002  -3.14124
   D26       -0.00054   0.00000   0.00000   0.00001   0.00001  -0.00053
   D27       -3.11415  -0.00000   0.00000  -0.00002  -0.00002  -3.11418
   D28        1.05292   0.00000   0.00000  -0.00002  -0.00002   1.05290
   D29       -1.00803  -0.00000   0.00000  -0.00003  -0.00003  -1.00807
   D30       -2.89348  -0.00000   0.00000  -0.00001  -0.00001  -2.89349
   D31        0.27399  -0.00000   0.00000  -0.00001  -0.00001   0.27399
   D32       -0.76971  -0.00000   0.00000  -0.00001  -0.00001  -0.76972
   D33        2.39777   0.00000   0.00000  -0.00000  -0.00000   2.39777
   D34        1.27773  -0.00000   0.00000  -0.00001  -0.00001   1.27771
   D35       -1.83798  -0.00000   0.00000  -0.00001  -0.00001  -1.83799
   D36       -3.11094   0.00000   0.00000   0.00000   0.00000  -3.11094
   D37        0.03331   0.00000   0.00000   0.00001   0.00001   0.03333
   D38        0.00542  -0.00000   0.00000  -0.00000  -0.00000   0.00542
   D39       -3.13351   0.00000   0.00000   0.00000   0.00000  -3.13351
   D40        3.11445  -0.00000   0.00000  -0.00001  -0.00001   3.11444
   D41       -0.03436   0.00000   0.00000   0.00001   0.00001  -0.03435
   D42       -0.00126  -0.00000   0.00000  -0.00000  -0.00000  -0.00126
   D43        3.13312   0.00000   0.00000   0.00002   0.00002   3.13313
   D44       -0.00517   0.00000   0.00000   0.00001   0.00001  -0.00517
   D45       -3.14076   0.00000   0.00000   0.00001   0.00001  -3.14074
   D46        3.13376  -0.00000   0.00000  -0.00000  -0.00000   3.13376
   D47       -0.00183   0.00000   0.00000   0.00001   0.00001  -0.00182
   D48        0.00072  -0.00000   0.00000  -0.00000  -0.00000   0.00071
   D49       -3.13737   0.00000   0.00000   0.00000   0.00000  -3.13737
   D50        3.13628  -0.00000   0.00000  -0.00001  -0.00001   3.13627
   D51       -0.00181  -0.00000   0.00000  -0.00001  -0.00001  -0.00181
   D52        0.00343   0.00000   0.00000   0.00000   0.00000   0.00343
   D53       -3.13790   0.00000   0.00000   0.00000   0.00000  -3.13790
   D54        3.14152  -0.00000   0.00000  -0.00000  -0.00000   3.14151
   D55        0.00019  -0.00000   0.00000  -0.00000  -0.00000   0.00019
   D56       -0.00316   0.00000   0.00000   0.00000   0.00000  -0.00315
   D57       -3.13744  -0.00000   0.00000  -0.00001  -0.00001  -3.13745
   D58        3.13817   0.00000   0.00000   0.00000   0.00000   3.13817
   D59        0.00389  -0.00000   0.00000  -0.00002  -0.00002   0.00388
   D60        0.00086  -0.00000   0.00000   0.00000   0.00000   0.00086
   D61       -3.13990   0.00000   0.00000   0.00001   0.00001  -3.13989
         Item               Value     Threshold  Converged?
 Maximum Force            0.000006     0.000450     YES
 RMS     Force            0.000001     0.000300     YES
 Maximum Displacement     0.000089     0.001800     YES
 RMS     Displacement     0.000026     0.001200     YES
 Predicted change in Energy=-5.016523D-10
 Optimization completed.
    -- Stationary point found.
                           ----------------------------
                           !   Optimized Parameters   !
                           ! (Angstroms and Degrees)  !
 --------------------------                            --------------------------
 ! Name  Definition              Value          Derivative Info.                !
 --------------------------------------------------------------------------------
 ! R1    R(1,2)                  1.5051         -DE/DX =    0.0                 !
 ! R2    R(1,16)                 1.1002         -DE/DX =    0.0                 !
 ! R3    R(1,17)                 1.0985         -DE/DX =    0.0                 !
 ! R4    R(1,18)                 1.1001         -DE/DX =    0.0                 !
 ! R5    R(2,3)                  1.4032         -DE/DX =    0.0                 !
 ! R6    R(2,15)                 1.3315         -DE/DX =    0.0                 !
 ! R7    R(3,4)                  1.3858         -DE/DX =    0.0                 !
 ! R8    R(3,19)                 1.092          -DE/DX =    0.0                 !
 ! R9    R(4,5)                  1.3979         -DE/DX =    0.0                 !
 ! R10   R(4,20)                 1.0917         -DE/DX =    0.0                 !
 ! R11   R(5,6)                  1.3493         -DE/DX =    0.0                 !
 ! R12   R(5,14)                 1.4003         -DE/DX =    0.0                 !
 ! R13   R(6,7)                  1.404          -DE/DX =    0.0                 !
 ! R14   R(7,8)                  1.5085         -DE/DX =    0.0                 !
 ! R15   R(7,21)                 1.106          -DE/DX =    0.0                 !
 ! R16   R(7,22)                 1.1073         -DE/DX =    0.0                 !
 ! R17   R(8,9)                  1.3989         -DE/DX =    0.0                 !
 ! R18   R(8,13)                 1.3958         -DE/DX =    0.0                 !
 ! R19   R(9,10)                 1.3924         -DE/DX =    0.0                 !
 ! R20   R(9,23)                 1.094          -DE/DX =    0.0                 !
 ! R21   R(10,11)                1.3951         -DE/DX =    0.0                 !
 ! R22   R(10,24)                1.0922         -DE/DX =    0.0                 !
 ! R23   R(11,12)                1.3932         -DE/DX =    0.0                 !
 ! R24   R(11,25)                1.0921         -DE/DX =    0.0                 !
 ! R25   R(12,13)                1.395          -DE/DX =    0.0                 !
 ! R26   R(12,26)                1.0923         -DE/DX =    0.0                 !
 ! R27   R(13,27)                1.0904         -DE/DX =    0.0                 !
 ! R28   R(14,15)                1.3308         -DE/DX =    0.0                 !
 ! R29   R(14,28)                1.094          -DE/DX =    0.0                 !
 ! A1    A(2,1,16)             110.2257         -DE/DX =    0.0                 !
 ! A2    A(2,1,17)             111.8926         -DE/DX =    0.0                 !
 ! A3    A(2,1,18)             110.2236         -DE/DX =    0.0                 !
 ! A4    A(16,1,17)            108.6268         -DE/DX =    0.0                 !
 ! A5    A(16,1,18)            107.0895         -DE/DX =    0.0                 !
 ! A6    A(17,1,18)            108.6416         -DE/DX =    0.0                 !
 ! A7    A(1,2,3)              121.9759         -DE/DX =    0.0                 !
 ! A8    A(1,2,15)             117.0287         -DE/DX =    0.0                 !
 ! A9    A(3,2,15)             120.9954         -DE/DX =    0.0                 !
 ! A10   A(2,3,4)              119.6149         -DE/DX =    0.0                 !
 ! A11   A(2,3,19)             120.2277         -DE/DX =    0.0                 !
 ! A12   A(4,3,19)             120.1574         -DE/DX =    0.0                 !
 ! A13   A(3,4,5)              118.9206         -DE/DX =    0.0                 !
 ! A14   A(3,4,20)             121.916          -DE/DX =    0.0                 !
 ! A15   A(5,4,20)             119.1634         -DE/DX =    0.0                 !
 ! A16   A(4,5,6)              117.2201         -DE/DX =    0.0                 !
 ! A17   A(4,5,14)             117.6708         -DE/DX =    0.0                 !
 ! A18   A(6,5,14)             125.109          -DE/DX =    0.0                 !
 ! A19   A(5,6,7)              119.1913         -DE/DX =    0.0                 !
 ! A20   A(6,7,8)              109.9856         -DE/DX =    0.0                 !
 ! A21   A(6,7,21)             110.4491         -DE/DX =    0.0                 !
 ! A22   A(6,7,22)             110.0297         -DE/DX =    0.0                 !
 ! A23   A(8,7,21)             109.7137         -DE/DX =    0.0                 !
 ! A24   A(8,7,22)             109.4715         -DE/DX =    0.0                 !
 ! A25   A(21,7,22)            107.1431         -DE/DX =    0.0                 !
 ! A26   A(7,8,9)              119.1601         -DE/DX =    0.0                 !
 ! A27   A(7,8,13)             121.6531         -DE/DX =    0.0                 !
 ! A28   A(9,8,13)             119.1705         -DE/DX =    0.0                 !
 ! A29   A(8,9,10)             120.5751         -DE/DX =    0.0                 !
 ! A30   A(8,9,23)             119.7596         -DE/DX =    0.0                 !
 ! A31   A(10,9,23)            119.6651         -DE/DX =    0.0                 !
 ! A32   A(9,10,11)            120.0475         -DE/DX =    0.0                 !
 ! A33   A(9,10,24)            119.803          -DE/DX =    0.0                 !
 ! A34   A(11,10,24)           120.1485         -DE/DX =    0.0                 !
 ! A35   A(10,11,12)           119.5838         -DE/DX =    0.0                 !
 ! A36   A(10,11,25)           120.1671         -DE/DX =    0.0                 !
 ! A37   A(12,11,25)           120.2488         -DE/DX =    0.0                 !
 ! A38   A(11,12,13)           120.3868         -DE/DX =    0.0                 !
 ! A39   A(11,12,26)           120.0123         -DE/DX =    0.0                 !
 ! A40   A(13,12,26)           119.6009         -DE/DX =    0.0                 !
 ! A41   A(8,13,12)            120.2353         -DE/DX =    0.0                 !
 ! A42   A(8,13,27)            119.2095         -DE/DX =    0.0                 !
 ! A43   A(12,13,27)           120.554          -DE/DX =    0.0                 !
 ! A44   A(5,14,15)            122.8687         -DE/DX =    0.0                 !
 ! A45   A(5,14,28)            121.1053         -DE/DX =    0.0                 !
 ! A46   A(15,14,28)           116.0259         -DE/DX =    0.0                 !
 ! A47   A(2,15,14)            119.9295         -DE/DX =    0.0                 !
 ! D1    D(16,1,2,3)           120.7799         -DE/DX =    0.0                 !
 ! D2    D(16,1,2,15)          -59.1809         -DE/DX =    0.0                 !
 ! D3    D(17,1,2,3)            -0.2109         -DE/DX =    0.0                 !
 ! D4    D(17,1,2,15)          179.8282         -DE/DX =    0.0                 !
 ! D5    D(18,1,2,3)          -121.2193         -DE/DX =    0.0                 !
 ! D6    D(18,1,2,15)           58.8198         -DE/DX =    0.0                 !
 ! D7    D(1,2,3,4)            179.9869         -DE/DX =    0.0                 !
 ! D8    D(1,2,3,19)            -0.0075         -DE/DX =    0.0                 !
 ! D9    D(15,2,3,4)            -0.0537         -DE/DX =    0.0                 !
 ! D10   D(15,2,3,19)          179.9518         -DE/DX =    0.0                 !
 ! D11   D(1,2,15,14)          179.9902         -DE/DX =    0.0                 !
 ! D12   D(3,2,15,14)            0.029          -DE/DX =    0.0                 !
 ! D13   D(2,3,4,5)              0.0011         -DE/DX =    0.0                 !
 ! D14   D(2,3,4,20)           179.9448         -DE/DX =    0.0                 !
 ! D15   D(19,3,4,5)           179.9956         -DE/DX =    0.0                 !
 ! D16   D(19,3,4,20)           -0.0607         -DE/DX =    0.0                 !
 ! D17   D(3,4,5,6)            179.9616         -DE/DX =    0.0                 !
 ! D18   D(3,4,5,14)             0.0707         -DE/DX =    0.0                 !
 ! D19   D(20,4,5,6)             0.0163         -DE/DX =    0.0                 !
 ! D20   D(20,4,5,14)         -179.8745         -DE/DX =    0.0                 !
 ! D21   D(4,5,6,7)            179.0375         -DE/DX =    0.0                 !
 ! D22   D(14,5,6,7)            -1.0806         -DE/DX =    0.0                 !
 ! D23   D(4,5,14,15)           -0.0993         -DE/DX =    0.0                 !
 ! D24   D(4,5,14,28)          179.8505         -DE/DX =    0.0                 !
 ! D25   D(6,5,14,15)         -179.9807         -DE/DX =    0.0                 !
 ! D26   D(6,5,14,28)           -0.0308         -DE/DX =    0.0                 !
 ! D27   D(5,6,7,8)           -178.4278         -DE/DX =    0.0                 !
 ! D28   D(5,6,7,21)            60.3281         -DE/DX =    0.0                 !
 ! D29   D(5,6,7,22)           -57.7561         -DE/DX =    0.0                 !
 ! D30   D(6,7,8,9)           -165.7843         -DE/DX =    0.0                 !
 ! D31   D(6,7,8,13)            15.6986         -DE/DX =    0.0                 !
 ! D32   D(21,7,8,9)           -44.1009         -DE/DX =    0.0                 !
 ! D33   D(21,7,8,13)          137.3821         -DE/DX =    0.0                 !
 ! D34   D(22,7,8,9)            73.2084         -DE/DX =    0.0                 !
 ! D35   D(22,7,8,13)         -105.3087         -DE/DX =    0.0                 !
 ! D36   D(7,8,9,10)          -178.2438         -DE/DX =    0.0                 !
 ! D37   D(7,8,9,23)             1.9088         -DE/DX =    0.0                 !
 ! D38   D(13,8,9,10)            0.3105         -DE/DX =    0.0                 !
 ! D39   D(13,8,9,23)         -179.5369         -DE/DX =    0.0                 !
 ! D40   D(7,8,13,12)          178.4448         -DE/DX =    0.0                 !
 ! D41   D(7,8,13,27)           -1.9686         -DE/DX =    0.0                 !
 ! D42   D(9,8,13,12)           -0.0721         -DE/DX =    0.0                 !
 ! D43   D(9,8,13,27)          179.5145         -DE/DX =    0.0                 !
 ! D44   D(8,9,10,11)           -0.2964         -DE/DX =    0.0                 !
 ! D45   D(8,9,10,24)         -179.9522         -DE/DX =    0.0                 !
 ! D46   D(23,9,10,11)         179.5512         -DE/DX =    0.0                 !
 ! D47   D(23,9,10,24)          -0.1046         -DE/DX =    0.0                 !
 ! D48   D(9,10,11,12)           0.0411         -DE/DX =    0.0                 !
 ! D49   D(9,10,11,25)        -179.7582         -DE/DX =    0.0                 !
 ! D50   D(24,10,11,12)        179.6958         -DE/DX =    0.0                 !
 ! D51   D(24,10,11,25)         -0.1035         -DE/DX =    0.0                 !
 ! D52   D(10,11,12,13)          0.1964         -DE/DX =    0.0                 !
 ! D53   D(10,11,12,26)       -179.7883         -DE/DX =    0.0                 !
 ! D54   D(25,11,12,13)        179.9956         -DE/DX =    0.0                 !
 ! D55   D(25,11,12,26)          0.0108         -DE/DX =    0.0                 !
 ! D56   D(11,12,13,8)          -0.1808         -DE/DX =    0.0                 !
 ! D57   D(11,12,13,27)       -179.7618         -DE/DX =    0.0                 !
 ! D58   D(26,12,13,8)         179.804          -DE/DX =    0.0                 !
 ! D59   D(26,12,13,27)          0.223          -DE/DX =    0.0                 !
 ! D60   D(5,14,15,2)            0.0492         -DE/DX =    0.0                 !
 ! D61   D(28,14,15,2)        -179.9029         -DE/DX =    0.0                 !
 --------------------------------------------------------------------------------
 GradGradGradGradGradGradGradGradGradGradGradGradGradGradGradGradGradGrad

                          Input orientation:                          
 ---------------------------------------------------------------------
 Center     Atomic      Atomic             Coordinates (Angstroms)
 Number     Number       Type             X           Y           Z
 ---------------------------------------------------------------------
      1          6           0       -5.550320   -0.251280    0.057040
      2          6           0       -4.059500   -0.049500    0.012870
      3          6           0       -3.486110    1.220500   -0.152220
      4          6           0       -2.106810    1.350030   -0.185710
      5          6           0       -1.316810    0.204380   -0.053290
      6          8           0        0.021720    0.369900   -0.091550
      7          6           0        0.854760   -0.750300    0.057880
      8          6           0        2.301660   -0.325400    0.020970
      9          6           0        3.293360   -1.297330   -0.148710
     10          6           0        4.639820   -0.942560   -0.150660
     11          6           0        5.010670    0.392570    0.011310
     12          6           0        4.026370    1.364780    0.175350
     13          6           0        2.677520    1.009140    0.182310
     14          6           0       -1.972350   -1.022740    0.105940
     15          7           0       -3.298100   -1.134680    0.137080
     16          1           0       -5.866160   -0.931040   -0.748290
     17          1           0       -6.095260    0.696470   -0.049910
     18          1           0       -5.842680   -0.719580    1.008640
     19          1           0       -4.122520    2.102040   -0.253680
     20          1           0       -1.621080    2.319350   -0.313220
     21          1           0        0.661270   -1.485600   -0.745260
     22          1           0        0.642700   -1.254930    1.020420
     23          1           0        3.009330   -2.345130   -0.283590
     24          1           0        5.403630   -1.711620   -0.284940
     25          1           0        6.066010    0.673530    0.006140
     26          1           0        4.308730    2.412700    0.299270
     27          1           0        1.904730    1.768320    0.306630
     28          1           0       -1.409300   -1.954700    0.212120
 ---------------------------------------------------------------------
                    Distance matrix (angstroms):
                    1          2          3          4          5
     1  C    0.000000
     2  C    1.505062   0.000000
     3  C    2.543794   1.403186   0.000000
     4  C    3.805375   2.410626   1.385773   0.000000
[...]
     2  C    0.286672   4.859518   0.534866  -0.018574  -0.028555  -0.001433
     3  C   -0.045567   0.534866   4.911760   0.470816  -0.036595   0.008214
     4  C    0.009985  -0.018574   0.470816   5.054221   0.486498  -0.075419
     5  C    0.000038  -0.028555  -0.036595   0.486498   4.732696   0.331406
     6  O    0.000001  -0.001433   0.008214  -0.075419   0.331406   7.956835
     7  C   -0.000023   0.000115  -0.000559  -0.001647  -0.063304   0.244852
     8  C   -0.000001   0.000119  -0.000200   0.001529   0.009952  -0.084956
     9  C   -0.000000   0.000001  -0.000002   0.000028  -0.000322   0.002679
    10  C   -0.000000  -0.000000   0.000000  -0.000005  -0.000017  -0.000379
    11  C    0.000000   0.000000   0.000000   0.000005   0.000017   0.000254
    12  C   -0.000000  -0.000000   0.000003  -0.000077  -0.000101   0.000163
    13  C    0.000000   0.000003   0.000041   0.000376  -0.001594   0.026190
    14  C    0.001312  -0.114924  -0.022256  -0.010133   0.422217  -0.054937
    15  N   -0.038041   0.464498  -0.056329  -0.056724  -0.050206   0.006890
    16  H    0.403020  -0.031075  -0.000890  -0.000507   0.000303  -0.000002
    17  H    0.436018  -0.076023   0.004379   0.003720  -0.000559  -0.000002
    18  H    0.403203  -0.031000  -0.001420  -0.000268   0.000091  -0.000003
    19  H   -0.005907  -0.032775   0.406416  -0.047648   0.011344  -0.000003
    20  H   -0.000177   0.006945  -0.038159   0.434090  -0.048518   0.003793
    21  H    0.000001  -0.000137   0.000119  -0.000350  -0.006951  -0.036077
    22  H    0.000002  -0.000268  -0.000010   0.002047   0.000918  -0.046998
    23  H    0.000000   0.000000  -0.000000   0.000010   0.000081   0.000029
    24  H   -0.000000   0.000000  -0.000000   0.000000  -0.000000   0.000004
    25  H   -0.000000   0.000000  -0.000000  -0.000000   0.000000   0.000000
    26  H   -0.000000   0.000000  -0.000000   0.000000   0.000001  -0.000048
    27  H    0.000000   0.000015   0.000000   0.000897  -0.001589   0.016507
    28  H   -0.000382   0.005417  -0.000347  -0.000538  -0.092508  -0.000714
               7          8          9         10         11         12
     1  C   -0.000023  -0.000001  -0.000000  -0.000000   0.000000  -0.000000
     2  C    0.000115   0.000119   0.000001  -0.000000   0.000000  -0.000000
     3  C   -0.000559  -0.000200  -0.000002   0.000000   0.000000   0.000003
     4  C   -0.001647   0.001529   0.000028  -0.000005   0.000005  -0.000077
     5  C   -0.063304   0.009952  -0.000322  -0.000017   0.000017  -0.000101
     6  O    0.244852  -0.084956   0.002679  -0.000379   0.000254   0.000163
     7  C    4.925489   0.348468  -0.084602   0.005069  -0.003683   0.012452
     8  C    0.348468   4.970315   0.410880   0.005151  -0.078015  -0.005407
     9  C   -0.084602   0.410880   5.063285   0.459393   0.015167  -0.061035
    10  C    0.005069   0.005151   0.459393   4.895250   0.457727   0.000933
    11  C   -0.003683  -0.078015   0.015167   0.457727   4.913628   0.453342
    12  C    0.012452  -0.005407  -0.061035   0.000933   0.453342   4.915878
    13  C   -0.117414   0.398947   0.036851  -0.064804   0.020758   0.440195
    14  C   -0.000267   0.000828   0.000064   0.000007  -0.000006   0.000035
    15  N   -0.001192  -0.000459  -0.000001   0.000000  -0.000000   0.000000
    16  H    0.000000   0.000000  -0.000000  -0.000000   0.000000   0.000000
    17  H    0.000001   0.000000   0.000000  -0.000000   0.000000  -0.000000
    18  H    0.000000   0.000000   0.000000   0.000000  -0.000000  -0.000000
    19  H    0.000032  -0.000005   0.000000   0.000000  -0.000000  -0.000000
    20  H   -0.000577   0.000086   0.000016  -0.000001   0.000002  -0.000006
    21  H    0.413650  -0.057590   0.000039   0.000012   0.000219   0.000088
    22  H    0.367019   0.012573  -0.000084   0.000243   0.000092  -0.000489
    23  H   -0.000266  -0.073232   0.444473  -0.047678   0.009579  -0.003341
    24  H   -0.000303   0.011968  -0.057425   0.442739  -0.053523   0.010114
    25  H    0.000108  -0.002169   0.009601  -0.052822   0.439178  -0.052378
    26  H   -0.000350   0.011101  -0.002723   0.009791  -0.053092   0.441771
    27  H   -0.016968  -0.045149   0.010885  -0.002581   0.008305  -0.050016
    28  H    0.004971   0.000858   0.000091   0.000001  -0.000000   0.000002
              13         14         15         16         17         18
     1  C    0.000000   0.001312  -0.038041   0.403020   0.436018   0.403203
     2  C    0.000003  -0.114924   0.464498  -0.031075  -0.076023  -0.031000
     3  C    0.000041  -0.022256  -0.056329  -0.000890   0.004379  -0.001420
     4  C    0.000376  -0.010133  -0.056724  -0.000507   0.003720  -0.000268
     5  C   -0.001594   0.422217  -0.050206   0.000303  -0.000559   0.000091
     6  O    0.026190  -0.054937   0.006890  -0.000002  -0.000002  -0.000003
     7  C   -0.117414  -0.000267  -0.001192   0.000000   0.000001   0.000000
     8  C    0.398947   0.000828  -0.000459   0.000000   0.000000   0.000000
     9  C    0.036851   0.000064  -0.000001  -0.000000   0.000000   0.000000
    10  C   -0.064804   0.000007   0.000000  -0.000000  -0.000000   0.000000
    11  C    0.020758  -0.000006  -0.000000   0.000000   0.000000  -0.000000
    12  C    0.440195   0.000035   0.000000   0.000000  -0.000000  -0.000000
    13  C    5.075022  -0.000638  -0.000021   0.000000  -0.000000  -0.000000
    14  C   -0.000638   4.916095   0.555499   0.000586   0.000420   0.000908
    15  N   -0.000021   0.555499   6.459127   0.000677   0.004280   0.000705
    16  H    0.000000   0.000586   0.000677   0.545724  -0.022557  -0.023934
    17  H   -0.000000   0.000420   0.004280  -0.022557   0.563708  -0.022489
    18  H   -0.000000   0.000908   0.000705  -0.023934  -0.022489   0.545509
    19  H   -0.000000  -0.001537   0.007877  -0.000183  -0.001308  -0.000182
    20  H    0.000007   0.003580  -0.001685   0.000010  -0.000004   0.000016
    21  H    0.015043   0.004300  -0.000052   0.000002  -0.000000  -0.000001
    22  H   -0.009991   0.001887  -0.000464  -0.000001   0.000000   0.000002
    23  H    0.013969  -0.000022  -0.000001   0.000000   0.000000  -0.000000
    24  H   -0.003199  -0.000000  -0.000000   0.000000   0.000000   0.000000
    25  H    0.009161   0.000000  -0.000000   0.000000   0.000000   0.000000
    26  H   -0.055643   0.000000  -0.000000  -0.000000  -0.000000   0.000000
    27  H    0.434853  -0.000090  -0.000019   0.000000   0.000000  -0.000000
    28  H   -0.000125   0.451966  -0.022228  -0.000050  -0.000000  -0.000042
              19         20         21         22         23         24
     1  C   -0.005907  -0.000177   0.000001   0.000002   0.000000  -0.000000
     2  C   -0.032775   0.006945  -0.000137  -0.000268   0.000000   0.000000
     3  C    0.406416  -0.038159   0.000119  -0.000010  -0.000000  -0.000000
     4  C   -0.047648   0.434090  -0.000350   0.002047   0.000010   0.000000
     5  C    0.011344  -0.048518  -0.006951   0.000918   0.000081  -0.000000
     6  O   -0.000003   0.003793  -0.036077  -0.046998   0.000029   0.000004
     7  C    0.000032  -0.000577   0.413650   0.367019  -0.000266  -0.000303
     8  C   -0.000005   0.000086  -0.057590   0.012573  -0.073232   0.011968
     9  C    0.000000   0.000016   0.000039  -0.000084   0.444473  -0.057425
    10  C    0.000000  -0.000001   0.000012   0.000243  -0.047678   0.442739
    11  C   -0.000000   0.000002   0.000219   0.000092   0.009579  -0.053523
    12  C   -0.000000  -0.000006   0.000088  -0.000489  -0.003341   0.010114
    13  C   -0.000000   0.000007   0.015043  -0.009991   0.013969  -0.003199
    14  C   -0.001537   0.003580   0.004300   0.001887  -0.000022  -0.000000
    15  N    0.007877  -0.001685  -0.000052  -0.000464  -0.000001  -0.000000
    16  H   -0.000183   0.000010   0.000002  -0.000001   0.000000   0.000000
    17  H   -0.001308  -0.000004  -0.000000   0.000000   0.000000   0.000000
    18  H   -0.000182   0.000016  -0.000001   0.000002  -0.000000   0.000000
    19  H    0.544975  -0.006664  -0.000001  -0.000001  -0.000000  -0.000000
    20  H   -0.006664   0.509966  -0.000048   0.000175   0.000001   0.000000
    21  H   -0.000001  -0.000048   0.612967  -0.064585   0.002429  -0.000034
    22  H   -0.000001   0.000175  -0.064585   0.619555   0.000385   0.000016
    23  H   -0.000000   0.000001   0.002429   0.000385   0.543744  -0.006993
    24  H   -0.000000   0.000000  -0.000034   0.000016  -0.006993   0.542389
    25  H   -0.000000   0.000000  -0.000002  -0.000000  -0.000151  -0.006725
    26  H    0.000000  -0.000001   0.000001   0.000019   0.000039  -0.000128
    27  H   -0.000005   0.000711   0.001161  -0.000258  -0.000015   0.000037
    28  H    0.000111  -0.000195  -0.002138  -0.000873   0.000024   0.000000
              25         26         27         28
     1  C   -0.000000  -0.000000   0.000000  -0.000382
     2  C    0.000000   0.000000   0.000015   0.005417
     3  C   -0.000000  -0.000000   0.000000  -0.000347
     4  C   -0.000000   0.000000   0.000897  -0.000538
     5  C    0.000000   0.000001  -0.001589  -0.092508
     6  O    0.000000  -0.000048   0.016507  -0.000714
     7  C    0.000108  -0.000350  -0.016968   0.004971
     8  C   -0.002169   0.011101  -0.045149   0.000858
     9  C    0.009601  -0.002723   0.010885   0.000091
    10  C   -0.052822   0.009791  -0.002581   0.000001
    11  C    0.439178  -0.053092   0.008305  -0.000000
    12  C   -0.052378   0.441771  -0.050016   0.000002
    13  C    0.009161  -0.055643   0.434853  -0.000125
    14  C    0.000000   0.000000  -0.000090   0.451966
    15  N   -0.000000  -0.000000  -0.000019  -0.022228
    16  H    0.000000  -0.000000   0.000000  -0.000050
    17  H    0.000000  -0.000000   0.000000  -0.000000
    18  H    0.000000   0.000000  -0.000000  -0.000042
    19  H   -0.000000   0.000000  -0.000005   0.000111
    20  H    0.000000  -0.000001   0.000711  -0.000195
    21  H   -0.000002   0.000001   0.001161  -0.002138
    22  H   -0.000000   0.000019  -0.000258  -0.000873
    23  H   -0.000151   0.000039  -0.000015   0.000024
    24  H   -0.006725  -0.000128   0.000037   0.000000
    25  H    0.541687  -0.006839  -0.000110  -0.000000
    26  H   -0.006839   0.541600  -0.005866   0.000000
    27  H   -0.000110  -0.005866   0.510172  -0.000021
    28  H   -0.000000   0.000000  -0.000021   0.517791
 Mulliken charges:
               1
     1  C   -0.354578
     2  C    0.176597
     3  C   -0.134279
     4  C   -0.252330
     5  C    0.335256
     6  O   -0.296846
     7  C   -0.031072
     8  C    0.164410
     9  C   -0.247258
    10  C   -0.108030
    11  C   -0.129953
    12  C   -0.102127
    13  C   -0.217987
    14  C   -0.154893
    15  N   -0.272130
    16  H    0.128875
    17  H    0.110416
    18  H    0.128904
    19  H    0.125462
    20  H    0.136639
    21  H    0.117933
    22  H    0.119091
    23  H    0.116936
    24  H    0.121064
    25  H    0.121459
    26  H    0.120367
    27  H    0.139144
    28  H    0.138930
 Sum of Mulliken charges =  -0.00000
 Mulliken charges with hydrogens summed into heavy atoms:
               1
     1  C    0.013617
     2  C    0.176597
     3  C   -0.008817
     4  C   -0.115690
     5  C    0.335256
     6  O   -0.296846
     7  C    0.205951
     8  C    0.164410
     9  C   -0.130322
    10  C    0.013034
    11  C   -0.008494
    12  C    0.018240
    13  C   -0.078843
    14  C   -0.015963
    15  N   -0.272130
 Electronic spatial extent (au):  <R**2>=           5034.6707
 Charge=              0.0000 electrons
 Dipole moment (field-independent basis, Debye):
    X=              0.9016    Y=              0.8382    Z=             -0.0666  Tot=              1.2328
 Quadrupole moment (field-independent basis, Debye-Ang):
   XX=            -80.7636   YY=            -82.2780   ZZ=            -92.6941
   XY=             -7.8839   XZ=              0.6345   YZ=              0.7490
 Traceless Quadrupole moment (field-independent basis, Debye-Ang):
   XX=              4.4816   YY=              2.9672   ZZ=             -7.4488
   XY=             -7.8839   XZ=              0.6345   YZ=              0.7490
 Octapole moment (field-independent basis, Debye-Ang**2):
  XXX=             10.5067  YYY=             11.7705  ZZZ=              0.7284  XYY=             15.6419
  XXY=             27.8219  XXZ=             -5.5504  XZZ=            -11.8192  YZZ=             -2.7186
  YYZ=             -2.0515  XYZ=              4.0986
 Hexadecapole moment (field-independent basis, Debye-Ang**3):
 XXXX=          -5720.3458 YYYY=           -591.3294 ZZZZ=           -126.4792 XXXY=            -88.8690
 XXXZ=             -5.9809 YYYX=            -36.9741 YYYZ=              3.3960 ZZZX=             -3.7979
 ZZZY=             -0.9422 XXYY=          -1104.3025 XXZZ=          -1140.6453 YYZZ=           -133.7695
 XXYZ=             16.9022 YYXZ=              6.7082 ZZXY=              6.9825
 N-N= 8.765444466947D+02 E-N=-3.225287911249D+03  KE= 6.297702679734D+02
 Breneman (CHELPG) radii used.
 Read replacement radii for each type of atom:
 Atom Element Radius
    1     6    1.50
    2     6    1.50
    3     6    1.50
    4     6    1.50
    5     6    1.50
    6     8    1.70
    7     6    1.50
    8     6    1.50
    9     6    1.50
   10     6    1.50
   11     6    1.50
   12     6    1.50
   13     6    1.50
   14     6    1.50
   15     7    1.70
   16     1    1.45
   17     1    1.45
   18     1    1.45
   19     1    1.45
   20     1    1.45
   21     1    1.45
   22     1    1.45
   23     1    1.45
   24     1    1.45
   25     1    1.45
   26     1    1.45
   27     1    1.45
   28     1    1.45
 Generate Potential Derived Charges using the Breneman model, NDens= 1.
 Grid spacing= 0.300 Box extension= 2.800
 NStep X,Y,Z=   61     36     26   Total possible points=       57096
 Number of Points to Fit=   17949

 **********************************************************************

            Electrostatic Properties Using The SCF Density.

 **********************************************************************

       Atomic Center    1 is at  -5.550320 -0.251279  0.057040
       Atomic Center    2 is at  -4.059500 -0.049499  0.012870
       Atomic Center    3 is at  -3.486110  1.220501 -0.152220
       Atomic Center    4 is at  -2.106810  1.350031 -0.185710
       Atomic Center    5 is at  -1.316810  0.204380 -0.053290
       Atomic Center    6 is at   0.021720  0.369900 -0.091550
       Atomic Center    7 is at   0.854760 -0.750300  0.057880
       Atomic Center    8 is at   2.301660 -0.325400  0.020970
       Atomic Center    9 is at   3.293360 -1.297331 -0.148710
       Atomic Center   10 is at   4.639820 -0.942561 -0.150660
       Atomic Center   11 is at   5.010670  0.392569  0.011310
       Atomic Center   12 is at   4.026370  1.364779  0.175350
       Atomic Center   13 is at   2.677520  1.009139  0.182310
       Atomic Center   14 is at  -1.972350 -1.022739  0.105940
       Atomic Center   15 is at  -3.298100 -1.134679  0.137080
       Atomic Center   16 is at  -5.866160 -0.931039 -0.748290
       Atomic Center   17 is at  -6.095260  0.696472 -0.049910
       Atomic Center   18 is at  -5.842680 -0.719579  1.008640
       Atomic Center   19 is at  -4.122520  2.102041 -0.253680
       Atomic Center   20 is at  -1.621080  2.319350 -0.313220
       Atomic Center   21 is at   0.661269 -1.485600 -0.745260
       Atomic Center   22 is at   0.642700 -1.254930  1.020420
       Atomic Center   23 is at   3.009329 -2.345131 -0.283590
       Atomic Center   24 is at   5.403629 -1.711621 -0.284940
       Atomic Center   25 is at   6.066010  0.673529  0.006140
       Atomic Center   26 is at   4.308730  2.412699  0.299270
       Atomic Center   27 is at   1.904730  1.768320  0.306630
       Atomic Center   28 is at  -1.409301 -1.954700  0.212120
   17949 points will be used for fitting atomic charges
 Fitting point charges to electrostatic potential
 Charges from ESP fit, RMS=   0.00371 RRMS=   0.33681:
 ESP charges:
               1
     1  C   -0.479513
     2  C    0.598366
     3  C   -0.369547
     4  C   -0.069055
     5  C    0.206559
     6  O   -0.371910
     7  C    0.182069
     8  C    0.150590
     9  C   -0.222390
    10  C   -0.047151
    11  C   -0.121885
    12  C   -0.064996
    13  C   -0.166924
    14  C    0.143315
    15  N   -0.598470
    16  H    0.127359
    17  H    0.109543
    18  H    0.127430
    19  H    0.148753
    20  H    0.127313
    21  H    0.012347
    22  H    0.005796
    23  H    0.111487
    24  H    0.088107
    25  H    0.093015
    26  H    0.088714
    27  H    0.110489
    28  H    0.080589
 Sum of ESP charges =  -0.00000
 ESP charges with hydrogens summed into heavy atoms:
               1
     1  C   -0.115181
     2  C    0.598366
     3  C   -0.220794
     4  C    0.058258
     5  C    0.206559
     6  O   -0.371910
     7  C    0.200212
     8  C    0.150590
     9  C   -0.110903
    10  C    0.040956
    11  C   -0.028870
    12  C    0.023719
    13  C   -0.056435
    14  C    0.223904
    15  N   -0.598470
 Charge=  -0.00000 Dipole=     0.9452     0.8490    -0.0744 Tot=     1.2727
 -----------------------------------------------------------------

              Electrostatic Properties (Atomic Units)

 -----------------------------------------------------------------
    Center     Electric         -------- Electric Field --------
               Potential          X             Y             Z
 -----------------------------------------------------------------
    1 Atom    -14.775443
    2 Atom    -14.734352
    3 Atom    -14.762257
    4 Atom    -14.756287
    5 Atom    -14.700738
    6 Atom    -22.314960
    7 Atom    -14.696691
    8 Atom    -14.752598
    9 Atom    -14.763193
   10 Atom    -14.764010
   11 Atom    -14.766606
   12 Atom    -14.765553
   13 Atom    -14.767970
   14 Atom    -14.738643
   15 Atom    -18.403912
   16 Atom     -1.117708
   17 Atom     -1.117388
   18 Atom     -1.117738
   19 Atom     -1.096512
   20 Atom     -1.089663
   21 Atom     -1.098589
   22 Atom     -1.098091
   23 Atom     -1.098475
   24 Atom     -1.102924
   25 Atom     -1.104505
   26 Atom     -1.105158
   27 Atom     -1.108115
   28 Atom     -1.100638
 -----------------------------------------------------------------
 Unable to Open any file for archive entry.
 1\1\GINC-NOTCH319\SP\RwB97XD\def2TZVP\C13H13N1O1\U6053008\12-Jul-2024\
 0\\#N Guess=Read Geom=Check Integral(Ultrafine) Density Pop=(ChelpG,Re
 adRadii) NMR wB97XD def2TZVP\\12397251_4\\0,1\C,0,-5.55032,-0.25128,0.
 05704\C,0,-4.0595,-0.0495,0.01287\C,0,-3.48611,1.2205,-0.15222\C,0,-2.
 10681,1.35003,-0.18571\C,0,-1.31681,0.20438,-0.05329\O,0,0.02172,0.369
 9,-0.09155\C,0,0.85476,-0.7503,0.05788\C,0,2.30166,-0.3254,0.02097\C,0
 ,3.29336,-1.29733,-0.14871\C,0,4.63982,-0.94256,-0.15066\C,0,5.01067,0
 .39257,0.01131\C,0,4.02637,1.36478,0.17535\C,0,2.67752,1.00914,0.18231
 \C,0,-1.97235,-1.02274,0.10594\N,0,-3.2981,-1.13468,0.13708\H,0,-5.866
 16,-0.93104,-0.74829\H,0,-6.09526,0.69647,-0.04991\H,0,-5.84268,-0.719
 58,1.00864\H,0,-4.12252,2.10204,-0.25368\H,0,-1.62108,2.31935,-0.31322
 \H,0,0.66127,-1.4856,-0.74526\H,0,0.6427,-1.25493,1.02042\H,0,3.00933,
 -2.34513,-0.28359\H,0,5.40363,-1.71162,-0.28494\H,0,6.06601,0.67353,0.
 00614\H,0,4.30873,2.4127,0.29927\H,0,1.90473,1.76832,0.30663\H,0,-1.40
 93,-1.9547,0.21212\\Version=ES64L-G16RevC.01\State=1-A\HF=-633.188312\
 RMSD=3.026e-09\Dipole=0.3547306,0.3297584,-0.0262212\Quadrupole=3.3319
 957,2.2060409,-5.5380366,-5.8614894,0.4717526,0.5568509\PG=C01 [X(C13H
 13N1O1)]\\@
 The archive entry for this job was punched.


 SUCCESS IS NEVER CERTAIN,
 FAILURE IS NEVER FINAL.
 Job cpu time:       0 days  1 hours  4 minutes 42.9 seconds.
 Elapsed time:       0 days  0 hours  4 minutes 15.7 seconds.
 File lengths (MBytes):  RWF=    183 Int=      0 D2E=      0 Chk=     27 Scr=      2
 Normal termination of Gaussian 16 at Fri Jul 12 13:30:11 2024.
