 Entering Gaussian System, Link 0=g16
 Input=12397251_6.com
 Output=12397251_6.log
 Initial command:
 /uufs/chpc.utah.edu/sys/installdir/gaussian16/C01/AVX/g16/l1.exe "/scratch/general/vast/u6053008/1287202-notchpeak.peaks/Gau-3851509.inp" -scrdir="/scratch/general/vast/u6053008/1287202-notchpeak.peaks/"
 Entering Link 1 = /uufs/chpc.utah.edu/sys/installdir/gaussian16/C01/AVX/g16/l1.exe PID=   3851510.
  
 Copyright (c) 1988-2019, Gaussian, Inc.  All Rights Reserved.
  
 This is part of the Gaussian(R) 16 program.  It is based on
 the Gaussian(R) 09 system (copyright 2009, Gaussian, Inc.),
 the Gaussian(R) 03 system (copyright 2003, Gaussian, Inc.),
 the Gaussian(R) 98 system (copyright 1998, Gaussian, Inc.),
 the Gaussian(R) 94 system (copyright 1995, Gaussian, Inc.),
 the Gaussian 92(TM) system (copyright 1992, Gaussian, Inc.),
 the Gaussian 90(TM) system (copyright 1990, Gaussian, Inc.),
 the Gaussian 88(TM) system (copyright 1988, Gaussian, Inc.),
 the Gaussian 86(TM) system (copyright 1986, Carnegie Mellon
 University), and the Gaussian 82(TM) system (copyright 1983,
 Carnegie Mellon University). Gaussian is a federally registered
 trademark of Gaussian, Inc.
  
 This software contains proprietary and confidential information,
 including trade secrets, belonging to Gaussian, Inc.
  
 This software is provided under written license and may be
 used, copied, transmitted, or stored only in accord with that
 written license.
  
 The following legend is applicable only to US Government
 contracts under FAR:
  
                    RESTRICTED RIGHTS LEGEND
  
 Use, reproduction and disclosure by the US Government is
 subject to restrictions as set forth in subparagraphs (a)
 and (c) of the Commercial Computer Software - Restricted
 Rights clause in FAR 52.227-19.
  
 Gaussian, Inc.
 340 Quinnipiac St., Bldg. 40, Wallingford CT 06492
  
  
 ---------------------------------------------------------------
 Warning -- This program may not be used in any manner that
 competes with the business of Gaussian, Inc. or will provide
 assistance to any competitor of Gaussian, Inc.  The licensee
 of this program is prohibited from giving any competitor of
 Gaussian, Inc. access to this program.  By using this program,
 the user acknowledges that Gaussian, Inc. is engaged in the
 business of creating and licensing software in the field of
 computational chemistry and represents and warrants to the
 licensee that it is not a competitor of Gaussian, Inc. and that
 it will not use this program in any manner prohibited above.
 ---------------------------------------------------------------
  

 Cite this work as:
 Gaussian 16, Revision C.01,
 M. J. Frisch, G. W. Trucks, H. B. Schlegel, G. E. Scuseria, 
 M. A. Robb, J. R. Cheeseman, G. Scalmani, V. Barone, 
 G. A. Petersson, H. Nakatsuji, X. Li, M. Caricato, A. V. Marenich, 
 J. Bloino, B. G. Janesko, R. Gomperts, B. Mennucci, H. P. Hratchian, 
 J. V. Ortiz, A. F. Izmaylov, J. L. Sonnenberg, D. Williams-Young, 
 F. Ding, F. Lipparini, F. Egidi, J. Goings, B. Peng, A. Petrone, 
 T. Henderson, D. Ranasinghe, V. G. Zakrzewski, J. Gao, N. Rega, 
 G. Zheng, W. Liang, M. Hada, M. Ehara, K. Toyota, R. Fukuda, 
 J. Hasegawa, M. Ishida, T. Nakajima, Y. Honda, O. Kitao, H. Nakai, 
 T. Vreven, K. Throssell, J. A. Montgomery, Jr., J. E. Peralta, 
 F. Ogliaro, M. J. Bearpark, J. J. Heyd, E. N. Brothers, K. N. Kudin, 
 V. N. Staroverov, T. A. Keith, R. Kobayashi, J. Normand, 
 K. Raghavachari, A. P. Rendell, J. C. Burant, S. S. Iyengar, 
 J. Tomasi, M. Cossi, J. M. Millam, M. Klene, C. Adamo, R. Cammi, 
 J. W. Ochterski, R. L. Martin, K. Morokuma, O. Farkas, 
 J. B. Foresman, and D. J. Fox, Gaussian, Inc., Wallingford CT, 2019.
 
 ******************************************
 Gaussian 16:  ES64L-G16RevC.01  3-Jul-2019
                12-Jul-2024 
 ******************************************
 %NProcShared=16
 Will use up to   16 processors via shared memory.
 %Mem=32GB
 %chk=12397251_6.chk
 ------------------------------------------------------
 #N OPT FREQ=NORAMAN Integral(Ultrafine) wB97XD def2SVP
 ------------------------------------------------------
 1/18=20,19=15,26=4,38=1/1,3;
 2/9=110,12=2,17=6,18=5,40=1/2;
 3/5=43,7=101,11=2,25=1,30=1,71=1,74=-58,75=-5/1,2,3;
 4//1;
 5/5=2,38=5/2;
 6/7=2,8=2,9=2,10=2,28=1/1;
 7//1,2,3,16;
 1/18=20,19=15,26=4/3(2);
 2/9=110/2;
 99//99;
 2/9=110/2;
 3/5=43,7=101,11=2,25=1,30=1,71=1,74=-58,75=-5/1,2,3;
 4/5=5,16=3,69=1/1;
 5/5=2,38=5/2;
 7//1,2,3,16;
 1/18=20,19=15,26=4/3(-5);
 2/9=110/2;
 6/7=2,8=2,9=2,10=2,19=2,28=1/1;
 99/9=1/99;
 ----------
 12397251_6
 ----------
 Symbolic Z-matrix:
 Charge =  0 Multiplicity = 1
 C                    -5.57608   0.0358    0.00003 
 C                    -4.07188   0.01964   0.00002 
 C                    -3.33992  -1.16713   0.00053 
 C                    -1.94421  -1.12972   0.00045 
 C                    -1.31831   0.1151   -0.00014 
 O                     0.01397   0.32528  -0.00029 
 C                     0.87645  -0.77956   0.00022 
 C                     2.31374  -0.32034   0.00007 
 C                     3.32997  -1.28242  -0.00055 
 C                     4.66791  -0.899    -0.00056 
 C                     5.00653   0.45489   0.00001 
 C                     3.9983    1.4156    0.00061 
 C                     2.65646   1.03199   0.00064 
 C                    -2.13571   1.25802  -0.00062 
 N                    -3.45512   1.21023  -0.00055 
 H                    -5.95062   0.57093  -0.88535 
 H                    -5.95054   0.57313   0.88411 
 H                    -5.99655  -0.97903   0.00129 
 H                    -3.85557  -2.1297    0.00099 
 H                    -1.37579  -2.06036   0.00085 
 H                     0.69041  -1.41071  -0.89012 
 H                     0.69036  -1.4099    0.89114 
 H                     3.07145  -2.34558  -0.00103 
 H                     5.4511   -1.66027  -0.00105 
 H                     6.05566   0.7582   -0.00001 
 H                     4.25505   2.47731   0.00105 
 H                     1.86536   1.782     0.00109 
 H                    -1.65563   2.24309  -0.00109 
 

 GradGradGradGradGradGradGradGradGradGradGradGradGradGradGradGradGradGrad
 Berny optimization.
 Initialization pass.
                           ----------------------------
                           !    Initial Parameters    !
                           ! (Angstroms and Degrees)  !
 --------------------------                            --------------------------
 ! Name  Definition              Value          Derivative Info.                !
 --------------------------------------------------------------------------------
 ! R1    R(1,2)                  1.5043         estimate D2E/DX2                !
 ! R2    R(1,16)                 1.1002         estimate D2E/DX2                !
 ! R3    R(1,17)                 1.1002         estimate D2E/DX2                !
 ! R4    R(1,18)                 1.0985         estimate D2E/DX2                !
 ! R5    R(2,3)                  1.3943         estimate D2E/DX2                !
 ! R6    R(2,15)                 1.3409         estimate D2E/DX2                !
 ! R7    R(3,4)                  1.3962         estimate D2E/DX2                !
 ! R8    R(3,19)                 1.092          estimate D2E/DX2                !
 ! R9    R(4,5)                  1.3933         estimate D2E/DX2                !
 ! R10   R(4,20)                 1.0905         estimate D2E/DX2                !
 ! R11   R(5,6)                  1.3488         estimate D2E/DX2                !
 ! R12   R(5,14)                 1.4051         estimate D2E/DX2                !
 ! R13   R(6,7)                  1.4016         estimate D2E/DX2                !
 ! R14   R(7,8)                  1.5089         estimate D2E/DX2                !
 ! R15   R(7,21)                 1.1071         estimate D2E/DX2                !
 ! R16   R(7,22)                 1.1071         estimate D2E/DX2                !
 ! R17   R(8,9)                  1.3994         estimate D2E/DX2                !
 ! R18   R(8,13)                 1.3951         estimate D2E/DX2                !
 ! R19   R(9,10)                 1.3918         estimate D2E/DX2                !
 ! R20   R(9,23)                 1.0941         estimate D2E/DX2                !
 ! R21   R(10,11)                1.3956         estimate D2E/DX2                !
 ! R22   R(10,24)                1.0922         estimate D2E/DX2                !
 ! R23   R(11,12)                1.3927         estimate D2E/DX2                !
 ! R24   R(11,25)                1.0921         estimate D2E/DX2                !
 ! R25   R(12,13)                1.3956         estimate D2E/DX2                !
 ! R26   R(12,26)                1.0923         estimate D2E/DX2                !
 ! R27   R(13,27)                1.0901         estimate D2E/DX2                !
 ! R28   R(14,15)                1.3203         estimate D2E/DX2                !
 ! R29   R(14,28)                1.0958         estimate D2E/DX2                !
 ! A1    A(2,1,16)             110.2193         estimate D2E/DX2                !
 ! A2    A(2,1,17)             110.2168         estimate D2E/DX2                !
 ! A3    A(2,1,18)             111.8899         estimate D2E/DX2                !
 ! A4    A(16,1,17)            107.0508         estimate D2E/DX2                !
 ! A5    A(16,1,18)            108.6601         estimate D2E/DX2                !
 ! A6    A(17,1,18)            108.662          estimate D2E/DX2                !
 ! A7    A(1,2,3)              122.2804         estimate D2E/DX2                !
 ! A8    A(1,2,15)             116.7699         estimate D2E/DX2                !
 ! A9    A(3,2,15)             120.9496         estimate D2E/DX2                !
 ! A10   A(2,3,4)              120.1295         estimate D2E/DX2                !
 ! A11   A(2,3,19)             120.1571         estimate D2E/DX2                !
 ! A12   A(4,3,19)             119.7134         estimate D2E/DX2                !
 ! A13   A(3,4,5)              118.2288         estimate D2E/DX2                !
 ! A14   A(3,4,20)             119.8805         estimate D2E/DX2                !
 ! A15   A(5,4,20)             121.8907         estimate D2E/DX2                !
 ! A16   A(4,5,6)              125.6585         estimate D2E/DX2                !
 ! A17   A(4,5,14)             117.7348         estimate D2E/DX2                !
 ! A18   A(6,5,14)             116.6067         estimate D2E/DX2                !
 ! A19   A(5,6,7)              119.0119         estimate D2E/DX2                !
 ! A20   A(6,7,8)              110.2581         estimate D2E/DX2                !
 ! A21   A(6,7,21)             110.2236         estimate D2E/DX2                !
 ! A22   A(6,7,22)             110.2222         estimate D2E/DX2                !
 ! A23   A(8,7,21)             109.4812         estimate D2E/DX2                !
 ! A24   A(8,7,22)             109.4798         estimate D2E/DX2                !
 ! A25   A(21,7,22)            107.1177         estimate D2E/DX2                !
 ! A26   A(7,8,9)              118.849          estimate D2E/DX2                !
 ! A27   A(7,8,13)             121.9399         estimate D2E/DX2                !
 ! A28   A(9,8,13)             119.2111         estimate D2E/DX2                !
 ! A29   A(8,9,10)             120.5769         estimate D2E/DX2                !
 ! A30   A(8,9,23)             119.7652         estimate D2E/DX2                !
 ! A31   A(10,9,23)            119.6579         estimate D2E/DX2                !
 ! A32   A(9,10,11)            120.0331         estimate D2E/DX2                !
 ! A33   A(9,10,24)            119.8221         estimate D2E/DX2                !
 ! A34   A(11,10,24)           120.1448         estimate D2E/DX2                !
 ! A35   A(10,11,12)           119.5753         estimate D2E/DX2                !
 ! A36   A(10,11,25)           120.167          estimate D2E/DX2                !
 ! A37   A(12,11,25)           120.2576         estimate D2E/DX2                !
 ! A38   A(11,12,13)           120.4282         estimate D2E/DX2                !
 ! A39   A(11,12,26)           120.0228         estimate D2E/DX2                !
 ! A40   A(13,12,26)           119.549          estimate D2E/DX2                !
 ! A41   A(8,13,12)            120.1754         estimate D2E/DX2                !
 ! A42   A(8,13,27)            119.2517         estimate D2E/DX2                !
 ! A43   A(12,13,27)           120.5729         estimate D2E/DX2                !
 ! A44   A(5,14,15)            123.4974         estimate D2E/DX2                !
 ! A45   A(5,14,28)            118.4456         estimate D2E/DX2                !
 ! A46   A(15,14,28)           118.057          estimate D2E/DX2                !
 ! A47   A(2,15,14)            119.4598         estimate D2E/DX2                !
 ! D1    D(16,1,2,3)          -120.9815         estimate D2E/DX2                !
 ! D2    D(16,1,2,15)           59.0165         estimate D2E/DX2                !
 ! D3    D(17,1,2,3)           121.0734         estimate D2E/DX2                !
 ! D4    D(17,1,2,15)          -58.9287         estimate D2E/DX2                !
 ! D5    D(18,1,2,3)             0.0456         estimate D2E/DX2                !
 ! D6    D(18,1,2,15)         -179.9564         estimate D2E/DX2                !
 ! D7    D(1,2,3,4)            179.9977         estimate D2E/DX2                !
 ! D8    D(1,2,3,19)            -0.002          estimate D2E/DX2                !
 ! D9    D(15,2,3,4)            -0.0001         estimate D2E/DX2                !
 ! D10   D(15,2,3,19)         -179.9999         estimate D2E/DX2                !
 ! D11   D(1,2,15,14)         -179.9984         estimate D2E/DX2                !
 ! D12   D(3,2,15,14)           -0.0004         estimate D2E/DX2                !
 ! D13   D(2,3,4,5)              0.0004         estimate D2E/DX2                !
 ! D14   D(2,3,4,20)          -180.0            estimate D2E/DX2                !
 ! D15   D(19,3,4,5)          -179.9999         estimate D2E/DX2                !
 ! D16   D(19,3,4,20)           -0.0002         estimate D2E/DX2                !
 ! D17   D(3,4,5,6)            179.9997         estimate D2E/DX2                !
 ! D18   D(3,4,5,14)            -0.0001         estimate D2E/DX2                !
 ! D19   D(20,4,5,6)             0.0001         estimate D2E/DX2                !
 ! D20   D(20,4,5,14)         -179.9997         estimate D2E/DX2                !
 ! D21   D(4,5,6,7)             -0.0021         estimate D2E/DX2                !
 ! D22   D(14,5,6,7)           179.9977         estimate D2E/DX2                !
 ! D23   D(4,5,14,15)           -0.0005         estimate D2E/DX2                !
 ! D24   D(4,5,14,28)         -179.9998         estimate D2E/DX2                !
 ! D25   D(6,5,14,15)          179.9997         estimate D2E/DX2                !
 ! D26   D(6,5,14,28)            0.0004         estimate D2E/DX2                !
 ! D27   D(5,6,7,8)           -179.9949         estimate D2E/DX2                !
 ! D28   D(5,6,7,21)            59.0203         estimate D2E/DX2                !
 ! D29   D(5,6,7,22)           -59.0129         estimate D2E/DX2                !
 ! D30   D(6,7,8,9)           -179.9498         estimate D2E/DX2                !
 ! D31   D(6,7,8,13)             0.0555         estimate D2E/DX2                !
 ! D32   D(21,7,8,9)           -58.5226         estimate D2E/DX2                !
 ! D33   D(21,7,8,13)          121.4827         estimate D2E/DX2                !
 ! D34   D(22,7,8,9)            58.6257         estimate D2E/DX2                !
 ! D35   D(22,7,8,13)         -121.369          estimate D2E/DX2                !
 ! D36   D(7,8,9,10)          -179.993          estimate D2E/DX2                !
 ! D37   D(7,8,9,23)             0.007          estimate D2E/DX2                !
 ! D38   D(13,8,9,10)            0.0019         estimate D2E/DX2                !
 ! D39   D(13,8,9,23)         -179.9982         estimate D2E/DX2                !
 ! D40   D(7,8,13,12)          179.9937         estimate D2E/DX2                !
 ! D41   D(7,8,13,27)           -0.0073         estimate D2E/DX2                !
 ! D42   D(9,8,13,12)           -0.001          estimate D2E/DX2                !
 ! D43   D(9,8,13,27)          179.998          estimate D2E/DX2                !
 ! D44   D(8,9,10,11)           -0.002          estimate D2E/DX2                !
 ! D45   D(8,9,10,24)         -179.9998         estimate D2E/DX2                !
 ! D46   D(23,9,10,11)         179.9981         estimate D2E/DX2                !
 ! D47   D(23,9,10,24)           0.0002         estimate D2E/DX2                !
 ! D48   D(9,10,11,12)           0.0011         estimate D2E/DX2                !
 ! D49   D(9,10,11,25)        -179.9992         estimate D2E/DX2                !
 ! D50   D(24,10,11,12)        179.999          estimate D2E/DX2                !
 ! D51   D(24,10,11,25)         -0.0013         estimate D2E/DX2                !
 ! D52   D(10,11,12,13)         -0.0002         estimate D2E/DX2                !
 ! D53   D(10,11,12,26)       -179.9995         estimate D2E/DX2                !
 ! D54   D(25,11,12,13)       -179.9999         estimate D2E/DX2                !
 ! D55   D(25,11,12,26)          0.0008         estimate D2E/DX2                !
 ! D56   D(11,12,13,8)           0.0001         estimate D2E/DX2                !
 ! D57   D(11,12,13,27)       -179.9988         estimate D2E/DX2                !
 ! D58   D(26,12,13,8)         179.9994         estimate D2E/DX2                !
 ! D59   D(26,12,13,27)          0.0005         estimate D2E/DX2                !
 ! D60   D(5,14,15,2)            0.0008         estimate D2E/DX2                !
 ! D61   D(28,14,15,2)        -180.0            estimate D2E/DX2                !
 --------------------------------------------------------------------------------
 Trust Radius=3.00D-01 FncErr=1.00D-07 GrdErr=1.00D-06 EigMax=2.50D+02 EigMin=1.00D-04
 Number of steps in this run=    147 maximum allowed number of steps=    168.
 GradGradGradGradGradGradGradGradGradGradGradGradGradGradGradGradGradGrad

                          Input orientation:                          
 ---------------------------------------------------------------------
 Center     Atomic      Atomic             Coordinates (Angstroms)
 Number     Number       Type             X           Y           Z
 ---------------------------------------------------------------------
      1          6           0       -5.576080    0.035800    0.000030
      2          6           0       -4.071880    0.019640    0.000020
      3          6           0       -3.339920   -1.167130    0.000530
      4          6           0       -1.944210   -1.129720    0.000450
      5          6           0       -1.318310    0.115100   -0.000140
      6          8           0        0.013970    0.325280   -0.000290
      7          6           0        0.876450   -0.779560    0.000220
      8          6           0        2.313740   -0.320340    0.000070
      9          6           0        3.329970   -1.282420   -0.000550
     10          6           0        4.667910   -0.899000   -0.000560
     11          6           0        5.006530    0.454890    0.000010
     12          6           0        3.998300    1.415600    0.000610
     13          6           0        2.656460    1.031990    0.000640
     14          6           0       -2.135710    1.258020   -0.000620
     15          7           0       -3.455120    1.210230   -0.000550
     16          1           0       -5.950620    0.570930   -0.885350
     17          1           0       -5.950540    0.573130    0.884110
     18          1           0       -5.996550   -0.979030    0.001290
     19          1           0       -3.855570   -2.129700    0.000990
     20          1           0       -1.375790   -2.060360    0.000850
     21          1           0        0.690410   -1.410710   -0.890120
     22          1           0        0.690360   -1.409900    0.891140
     23          1           0        3.071450   -2.345580   -0.001030
     24          1           0        5.451100   -1.660270   -0.001050
     25          1           0        6.055660    0.758200   -0.000010
     26          1           0        4.255050    2.477310    0.001050
     27          1           0        1.865360    1.782000    0.001090
     28          1           0       -1.655630    2.243090   -0.001090
 ---------------------------------------------------------------------
                    Distance matrix (angstroms):
                    1          2          3          4          5
     1  C    0.000000
     2  C    1.504287   0.000000
     3  C    2.539183   1.394342   0.000000
     4  C    3.814304   2.418266   1.396211   0.000000
     5  C    4.258508   2.755224   2.393955   1.393315   0.000000
     6  O    5.597540   4.097266   3.670949   2.439568   1.348757
     7  C    6.503842   5.012454   4.234145   2.842312   2.370103
     8  C    7.897854   6.394664   5.716723   4.334194   3.658059
     9  C    9.003079   7.515500   6.670886   5.276390   4.853820
    10  C   10.286553   8.787937   8.012318   6.616144   6.071510
    11  C   10.590905   9.088838   8.502598   7.129080   6.333961
    12  C    9.673293   8.190025   7.779458   6.464679   5.473358
    13  C    8.292594   6.804073   6.386916   5.083223   4.079152
    14  C    3.651023   2.298334   2.707670   2.395407   1.405137
    15  N    2.424409   1.340857   2.380150   2.785357   2.401097
    16  H    1.100246   2.148829   3.259047   4.441641   4.738109
    17  H    1.100246   2.148797   3.259533   4.441985   4.738063
    18  H    1.098488   2.168340   2.663281   4.055141   4.804482
    19  H    2.765781   2.160198   1.091987   2.157141   3.387745
    20  H    4.694286   3.405188   2.157699   1.090501   2.176219
    21  H    6.492585   5.051500   4.134749   2.795227   2.674905
    22  H    6.492488   5.051397   4.134644   2.795137   2.674838
    23  H    8.969434   7.524721   6.518774   5.160927   5.032389
    24  H   11.156852   9.670018   8.804841   7.414317   6.998346
    25  H   11.654151  10.154434   9.590820   8.219621   7.401960
    26  H   10.129763   8.682045   8.424103   7.172272   6.053295
    27  H    7.643575   6.193281   5.982667   4.794887   3.593649
    28  H    4.499118   3.283595   3.803477   3.385133   2.154560
                    6          7          8          9         10
     6  O    0.000000
     7  C    1.401622   0.000000
     8  C    2.388675   1.508869   0.000000
     9  C    3.685181   2.504522   1.399400   0.000000
    10  C    4.812278   3.793341   2.424245   1.391795   0.000000
    11  C    4.994242   4.310618   2.802160   2.414353   1.395594
    12  C    4.130821   3.816369   2.418932   2.779564   2.409513
    13  C    2.735360   2.539714   1.395082   2.410417   2.788307
    14  C    2.343316   3.636597   4.721104   6.027229   7.137365
    15  N    3.580185   4.766735   5.968450   7.228468   8.392405
    16  H    6.034899   7.015479   8.359305   9.505111  10.756241
    17  H    6.034813   7.015613   8.359315   9.505449  10.756453
    18  H    6.150413   6.875894   8.336354   9.331453  10.664760
    19  H    4.582605   4.920863   6.429166   7.235321   8.611872
    20  H    2.760926   2.590952   4.079253   4.769630   6.154272
    21  H    2.064711   1.107098   2.148615   2.788381   4.107757
    22  H    2.064703   1.107112   2.148606   2.789069   4.108169
    23  H    4.059763   2.696376   2.162342   1.094140   2.154363
    24  H    5.788332   4.658656   3.411516   2.154522   1.092208
    25  H    6.057181   5.402677   3.894254   3.404925   2.161518
    26  H    4.755838   4.692775   3.405221   3.871866   3.401459
    27  H    2.355776   2.745821   2.149623   3.396433   3.878408
    28  H    2.542747   3.943075   4.725153   6.106180   7.061153
                   11         12         13         14         15
    11  C    0.000000
    12  C    1.392656   0.000000
    13  C    2.419891   1.395597   0.000000
    14  C    7.187253   6.136034   4.797498   0.000000
    15  N    8.495296   7.456249   6.114179   1.320275   0.000000
    16  H   10.993474  10.023941   8.664836   3.975975   2.723802
    17  H   10.993316  10.023460   8.664382   3.975519   2.723167
    18  H   11.096121  10.277708   8.883624   4.462116   3.354360
    19  H    9.231301   8.616985   7.238979   3.799285   3.363851
    20  H    6.860065   6.400245   5.081503   3.404281   3.875613
    21  H    4.785571   4.441122   3.259692   3.987516   4.984584
    22  H    4.785486   4.440604   3.259044   3.987443   4.984496
    23  H    3.403993   3.873697   3.402969   6.332491   7.432355
    24  H    2.161376   3.401706   3.880500   8.128721   9.357378
    25  H    1.092095   2.159839   3.410209   8.206605   9.521516
    26  H    2.157523   1.092314   2.155096   6.506034   7.813592
    27  H    3.410010   2.164182   1.090117   4.035235   5.351115
    28  H    6.897973   5.714164   4.478938   1.095828   2.074841
                   16         17         18         19         20
    16  H    0.000000
    17  H    1.769461   0.000000
    18  H    1.786230   1.786250   0.000000
    19  H    3.531039   3.531868   2.430604   0.000000
    20  H    5.351458   5.351986   4.745598   2.480749   0.000000
    21  H    6.930382   7.154420   6.759911   4.687959   2.342019
    22  H    7.154175   6.930657   6.759604   4.687852   2.341942
    23  H    9.522909   9.523584   9.170392   6.930383   4.456377
    24  H   11.651586  11.651995  11.467902   9.318502   6.838604
    25  H   12.040335  12.040131  12.176770  10.323393   7.948002
    26  H   10.419966  10.419202  10.818576   9.327738   7.231653
    27  H    7.958769   7.957976   8.332642   6.930399   5.026807
    28  H    4.693077   4.692398   5.406075   4.895001   4.312539
                   21         22         23         24         25
    21  H    0.000000
    22  H    1.781260   0.000000
    23  H    2.708102   2.709438   0.000000
    24  H    4.849422   4.850086   2.476365   0.000000
    25  H    5.855115   5.855019   4.305689   2.492888   0.000000
    26  H    5.349537   5.348801   4.966003   4.306984   2.489485
    27  H    3.516839   3.515827   4.300183   4.970589   4.313558
    28  H    4.432215   4.432164   6.587957   8.108134   7.852954
                   26         27         28
    26  H    0.000000
    27  H    2.488790   0.000000
    28  H    5.915319   3.551053   0.000000
 Stoichiometry    C13H13NO
 Framework group  C1[X(C13H13NO)]
 Deg. of freedom    78
 Full point group                 C1      NOp   1
 Largest Abelian subgroup         C1      NOp   1
 Largest concise Abelian subgroup C1      NOp   1
                         Standard orientation:                         
 ---------------------------------------------------------------------
 Center     Atomic      Atomic             Coordinates (Angstroms)
 Number     Number       Type             X           Y           Z
 ---------------------------------------------------------------------
      1          6           0        5.576081    0.035796   -0.000030
      2          6           0        4.071881    0.019637   -0.000020
      3          6           0        3.339921   -1.167133   -0.000530
      4          6           0        1.944211   -1.129722   -0.000450
      5          6           0        1.318311    0.115098    0.000140
      6          8           0       -0.013969    0.325278    0.000290
      7          6           0       -0.876449   -0.779561   -0.000220
      8          6           0       -2.313739   -0.320341   -0.000070
      9          6           0       -3.329969   -1.282420    0.000550
     10          6           0       -4.667909   -0.899000    0.000560
     11          6           0       -5.006529    0.454890   -0.000010
     12          6           0       -3.998298    1.415600   -0.000610
     13          6           0       -2.656459    1.031989   -0.000640
     14          6           0        2.135712    1.258017    0.000620
     15          7           0        3.455122    1.210227    0.000550
     16          1           0        5.950621    0.570926    0.885350
     17          1           0        5.950541    0.573126   -0.884110
     18          1           0        5.996551   -0.979034   -0.001290
     19          1           0        3.855570   -2.129703   -0.000990
     20          1           0        1.375790   -2.060362   -0.000850
     21          1           0       -0.690410   -1.410711    0.890120
     22          1           0       -0.690360   -1.409901   -0.891140
     23          1           0       -3.071450   -2.345580    0.001030
     24          1           0       -5.451100   -1.660270    0.001050
     25          1           0       -6.055659    0.758201    0.000010
     26          1           0       -4.255048    2.477310   -0.001050
     27          1           0       -1.865358    1.781999   -0.001090
     28          1           0        1.655632    2.243088    0.001090
 ---------------------------------------------------------------------
 Rotational constants (GHZ):           2.6427014           0.2227412           0.2059586
 Standard basis: def2SVP (5D, 7F)
 There are   290 symmetry adapted cartesian basis functions of A   symmetry.
 There are   275 symmetry adapted basis functions of A   symmetry.
   275 basis functions,   466 primitive gaussians,   290 cartesian basis functions
    53 alpha electrons       53 beta electrons
       nuclear repulsion energy       876.3098914883 Hartrees.
 NAtoms=   28 NActive=   28 NUniq=   28 SFac= 1.00D+00 NAtFMM=   60 NAOKFM=F Big=F
 Integral buffers will be    131072 words long.
 Raffenetti 2 integral format.
 Two-electron integral symmetry is turned on.
 Nuclear repulsion after empirical dispersion term =      876.2946239120 Hartrees.
 One-electron integrals computed using PRISM.
   1 Symmetry operations used in ECPInt.
 ECPInt:  NShTT=    8385 NPrTT=   30369 LenC2=    7489 LenP2D=   19581.
 LDataN:  DoStor=T MaxTD1= 4 Len=   56
 NBasis=   275 RedAO= T EigKep=  2.92D-04  NBF=   275
 NBsUse=   275 1.00D-06 EigRej= -1.00D+00 NBFU=   275
 ExpMin= 1.22D-01 ExpMax= 2.27D+03 ExpMxC= 3.41D+02 IAcc=3 IRadAn=         5 AccDes= 0.00D+00
 Harris functional with IExCor= 4639 and IRadAn=       5 diagonalized for initial guess.
 HarFok:  IExCor= 4639 AccDes= 0.00D+00 IRadAn=         5 IDoV= 1 UseB2=F ITyADJ=14
 ICtDFT=  3500011 ScaDFX=  1.000000  1.000000  1.000000  1.000000
 FoFCou: FMM=F IPFlag=           0 FMFlag=      100000 FMFlg1=           0
         NFxFlg=           0 DoJE=T BraDBF=F KetDBF=T FulRan=T
         wScrn=  0.000000 ICntrl=       500 IOpCl=  0 I1Cent=   200000004 NGrid=           0
         NMat0=    1 NMatS0=      1 NMatT0=    0 NMatD0=    1 NMtDS0=    0 NMtDT0=    0
 Petite list used in FoFCou.
 Requested convergence on RMS density matrix=1.00D-08 within 128 cycles.
 Requested convergence on MAX density matrix=1.00D-06.
 Requested convergence on             energy=1.00D-06.
 No special actions if energy rises.
 Integral accuracy reduced to 1.0D-05 until final iterations.
 Initial convergence to 1.0D-05 achieved.  Increase integral accuracy.
 SCF Done:  E(RwB97XD) =  -632.513004253     A.U. after   15 cycles
            NFock= 15  Conv=0.75D-08     -V/T= 2.0108

 **********************************************************************

            Population analysis using the SCF Density.

 **********************************************************************

 Orbital symmetries:
       Occupied  (A) (A) (A) (A) (A) (A) (A) (A) (A) (A) (A) (A)
                 (A) (A) (A) (A) (A) (A) (A) (A) (A) (A) (A) (A)
                 (A) (A) (A) (A) (A) (A) (A) (A) (A) (A) (A) (A)
                 (A) (A) (A) (A) (A) (A) (A) (A) (A) (A) (A) (A)
                 (A) (A) (A) (A) (A)
       Virtual   (A) (A) (A) (A) (A) (A) (A) (A) (A) (A) (A) (A)
                 (A) (A) (A) (A) (A) (A) (A) (A) (A) (A) (A) (A)
                 (A) (A) (A) (A) (A) (A) (A) (A) (A) (A) (A) (A)
                 (A) (A) (A) (A) (A) (A) (A) (A) (A) (A) (A) (A)
                 (A) (A) (A) (A) (A) (A) (A) (A) (A) (A) (A) (A)
                 (A) (A) (A) (A) (A) (A) (A) (A) (A) (A) (A) (A)
                 (A) (A) (A) (A) (A) (A) (A) (A) (A) (A) (A) (A)
                 (A) (A) (A) (A) (A) (A) (A) (A) (A) (A) (A) (A)
                 (A) (A) (A) (A) (A) (A) (A) (A) (A) (A) (A) (A)
                 (A) (A) (A) (A) (A) (A) (A) (A) (A) (A) (A) (A)
                 (A) (A) (A) (A) (A) (A) (A) (A) (A) (A) (A) (A)
                 (A) (A) (A) (A) (A) (A) (A) (A) (A) (A) (A) (A)
                 (A) (A) (A) (A) (A) (A) (A) (A) (A) (A) (A) (A)
                 (A) (A) (A) (A) (A) (A) (A) (A) (A) (A) (A) (A)
                 (A) (A) (A) (A) (A) (A) (A) (A) (A) (A) (A) (A)
                 (A) (A) (A) (A) (A) (A) (A) (A) (A) (A) (A) (A)
                 (A) (A) (A) (A) (A) (A) (A) (A) (A) (A) (A) (A)
                 (A) (A) (A) (A) (A) (A) (A) (A) (A) (A) (A) (A)
                 (A) (A) (A) (A) (A) (A)
 The electronic state is 1-A.
 Alpha  occ. eigenvalues --  -19.30023 -14.43570 -10.37087 -10.36893 -10.33304
 Alpha  occ. eigenvalues --  -10.32988 -10.31905 -10.31647 -10.31021 -10.30864
 Alpha  occ. eigenvalues --  -10.30775 -10.30563 -10.30474 -10.30287 -10.29200
 Alpha  occ. eigenvalues --   -1.18100  -1.03805  -0.96006  -0.90214  -0.88463
 Alpha  occ. eigenvalues --   -0.86080  -0.84194  -0.80811  -0.76496  -0.72999
 Alpha  occ. eigenvalues --   -0.70831  -0.69261  -0.67068  -0.63592  -0.61875
 Alpha  occ. eigenvalues --   -0.59185  -0.58389  -0.57018  -0.54398  -0.53633
 Alpha  occ. eigenvalues --   -0.52323  -0.51838  -0.51829  -0.50849  -0.50260
 Alpha  occ. eigenvalues --   -0.48227  -0.46454  -0.46143  -0.45638  -0.44177
 Alpha  occ. eigenvalues --   -0.43162  -0.42208  -0.42172  -0.36595  -0.33612
 Alpha  occ. eigenvalues --   -0.33370  -0.32818  -0.30362
 Alpha virt. eigenvalues --    0.04161   0.05250   0.06058   0.06836   0.13531
 Alpha virt. eigenvalues --    0.14326   0.15428   0.17290   0.17656   0.18694
 Alpha virt. eigenvalues --    0.19318   0.19447   0.20354   0.21220   0.22309
 Alpha virt. eigenvalues --    0.23791   0.25006   0.25188   0.25543   0.26480
 Alpha virt. eigenvalues --    0.28876   0.30499   0.31732   0.32573   0.35620
 Alpha virt. eigenvalues --    0.36739   0.37081   0.38090   0.39515   0.40816
 Alpha virt. eigenvalues --    0.42426   0.43370   0.44022   0.47090   0.49081
 Alpha virt. eigenvalues --    0.49280   0.49635   0.51212   0.52043   0.52989
 Alpha virt. eigenvalues --    0.53161   0.54504   0.54728   0.55001   0.55235
 Alpha virt. eigenvalues --    0.56404   0.57856   0.58431   0.59471   0.61846
 Alpha virt. eigenvalues --    0.62131   0.62938   0.64037   0.65024   0.65413
 Alpha virt. eigenvalues --    0.67759   0.67848   0.69022   0.69094   0.70175
 Alpha virt. eigenvalues --    0.70956   0.71612   0.72136   0.72896   0.73523
 Alpha virt. eigenvalues --    0.74684   0.74713   0.74993   0.75543   0.77090
 Alpha virt. eigenvalues --    0.77334   0.77794   0.78301   0.79962   0.80733
 Alpha virt. eigenvalues --    0.80859   0.82099   0.82176   0.82616   0.83279
 Alpha virt. eigenvalues --    0.85046   0.85255   0.86528   0.89867   0.90898
 Alpha virt. eigenvalues --    0.92179   0.93449   0.96545   0.99846   1.01273
 Alpha virt. eigenvalues --    1.02731   1.03714   1.09092   1.13241   1.13779
 Alpha virt. eigenvalues --    1.14125   1.17994   1.22424   1.24518   1.26740
 Alpha virt. eigenvalues --    1.26760   1.28044   1.29275   1.32112   1.32583
 Alpha virt. eigenvalues --    1.32882   1.34511   1.34643   1.36608   1.36892
 Alpha virt. eigenvalues --    1.38981   1.39243   1.41243   1.42699   1.45355
 Alpha virt. eigenvalues --    1.51772   1.55133   1.60129   1.60648   1.61226
 Alpha virt. eigenvalues --    1.61833   1.62731   1.66500   1.71361   1.74550
 Alpha virt. eigenvalues --    1.75004   1.75859   1.77024   1.78303   1.79003
 Alpha virt. eigenvalues --    1.81147   1.81320   1.82134   1.82908   1.83224
 Alpha virt. eigenvalues --    1.83240   1.84393   1.85983   1.86946   1.87666
 Alpha virt. eigenvalues --    1.87698   1.88331   1.88765   1.88974   1.89885
 Alpha virt. eigenvalues --    1.92328   1.92671   1.95596   1.96375   1.97403
 Alpha virt. eigenvalues --    2.01917   2.02782   2.03051   2.05145   2.06372
 Alpha virt. eigenvalues --    2.06536   2.07165   2.09323   2.11617   2.12173
 Alpha virt. eigenvalues --    2.16617   2.18576   2.18966   2.20091   2.21668
 Alpha virt. eigenvalues --    2.22748   2.23597   2.27713   2.27867   2.31110
 Alpha virt. eigenvalues --    2.32805   2.34378   2.35257   2.37465   2.38375
 Alpha virt. eigenvalues --    2.38895   2.41193   2.42807   2.44607   2.45594
 Alpha virt. eigenvalues --    2.45653   2.47986   2.48209   2.51690   2.56832
 Alpha virt. eigenvalues --    2.59105   2.59510   2.63607   2.63880   2.69902
 Alpha virt. eigenvalues --    2.70757   2.71807   2.71961   2.72564   2.77830
 Alpha virt. eigenvalues --    2.80861   2.81297   2.81864   2.82551   2.85762
 Alpha virt. eigenvalues --    2.89840   2.92074   2.94760   2.95861   2.97356
 Alpha virt. eigenvalues --    2.97364   2.98912   3.00533   3.03142   3.05945
 Alpha virt. eigenvalues --    3.11303   3.14948   3.16399   3.16661   3.21424
 Alpha virt. eigenvalues --    3.23583   3.32392   3.40802   3.54167   3.59861
 Alpha virt. eigenvalues --    3.72833   3.81121
          Condensed to atoms (all electrons):
               1          2          3          4          5          6
     1  C    4.577405   0.393749  -0.091318   0.006264   0.002078   0.000005
     2  C    0.393749   4.962869   0.474180  -0.012827  -0.066276   0.000269
     3  C   -0.091318   0.474180   4.952614   0.376912   0.038342   0.004056
     4  C    0.006264  -0.012827   0.376912   5.106663   0.334229  -0.075308
     5  C    0.002078  -0.066276   0.038342   0.334229   4.934046   0.357273
     6  O    0.000005   0.000269   0.004056  -0.075308   0.357273   7.883000
     7  C   -0.000000   0.000067   0.000911  -0.000996  -0.053180   0.323453
     8  C   -0.000000   0.000002  -0.000012   0.000459   0.008418  -0.067119
     9  C   -0.000000  -0.000000  -0.000002  -0.000014   0.000036   0.001894
    10  C    0.000000  -0.000000   0.000000   0.000001  -0.000002  -0.000080
    11  C    0.000000  -0.000000  -0.000000  -0.000000   0.000002  -0.000001
    12  C    0.000000   0.000000  -0.000000   0.000004  -0.000019   0.000728
    13  C    0.000000   0.000000  -0.000001  -0.000012   0.000322   0.007839
    14  C    0.003645  -0.063958  -0.061437  -0.043059   0.442437  -0.057449
    15  N   -0.074028   0.500500  -0.047366  -0.046298  -0.027262   0.001767
    16  H    0.377385  -0.011429   0.004462  -0.000444   0.000122  -0.000000
    17  H    0.377372  -0.011434   0.004480  -0.000444   0.000122  -0.000000
    18  H    0.383139  -0.013351  -0.009755   0.001696  -0.000224  -0.000000
    19  H   -0.009260  -0.042577   0.418933  -0.052630   0.011819  -0.000050
    20  H   -0.000275   0.011653  -0.048437   0.446407  -0.075268  -0.006874
    21  H    0.000000  -0.000044   0.000253   0.006953  -0.006692  -0.029978
    22  H    0.000000  -0.000044   0.000252   0.006954  -0.006684  -0.029979
    23  H    0.000000   0.000000  -0.000000   0.000006   0.000004   0.000066
    24  H   -0.000000   0.000000  -0.000000  -0.000000  -0.000000   0.000001
    25  H   -0.000000   0.000000  -0.000000   0.000000  -0.000000   0.000000
    26  H   -0.000000   0.000000  -0.000000   0.000000   0.000001  -0.000016
    27  H    0.000000   0.000000  -0.000005   0.000108  -0.000224   0.016570
    28  H   -0.000176   0.005496   0.000367   0.008802  -0.069697   0.004198
               7          8          9         10         11         12
     1  C   -0.000000  -0.000000  -0.000000   0.000000   0.000000   0.000000
     2  C    0.000067   0.000002  -0.000000  -0.000000  -0.000000   0.000000
     3  C    0.000911  -0.000012  -0.000002   0.000000  -0.000000  -0.000000
     4  C   -0.000996   0.000459  -0.000014   0.000001  -0.000000   0.000004
     5  C   -0.053180   0.008418   0.000036  -0.000002   0.000002  -0.000019
     6  O    0.323453  -0.067119   0.001894  -0.000080  -0.000001   0.000728
     7  C    4.552952   0.304276  -0.066958   0.008586  -0.000245   0.012615
     8  C    0.304276   5.341214   0.334718   0.065587  -0.132372   0.063313
     9  C   -0.066958   0.334718   5.016898   0.364886   0.058196  -0.122165
    10  C    0.008586   0.065587   0.364886   4.964568   0.329134   0.061073
    11  C   -0.000245  -0.132372   0.058196   0.329134   5.038620   0.325559
    12  C    0.012615   0.063313  -0.122165   0.061073   0.325559   5.012532
    13  C   -0.083569   0.351999   0.051426  -0.116625   0.061356   0.327428
    14  C    0.003696   0.000496   0.000011  -0.000000   0.000000  -0.000007
    15  N   -0.000075  -0.000002  -0.000000   0.000000   0.000000   0.000000
    16  H   -0.000000   0.000000   0.000000  -0.000000  -0.000000  -0.000000
    17  H   -0.000000   0.000000   0.000000  -0.000000  -0.000000  -0.000000
    18  H    0.000000   0.000000   0.000000  -0.000000  -0.000000  -0.000000
    19  H   -0.000049  -0.000001   0.000000  -0.000000   0.000000   0.000000
    20  H    0.005972   0.000633   0.000065  -0.000000   0.000000  -0.000000
    21  H    0.392621  -0.031260  -0.002517   0.000145   0.000029  -0.000112
    22  H    0.392564  -0.031162  -0.002521   0.000142   0.000029  -0.000112
    23  H   -0.011928  -0.072507   0.444044  -0.056386   0.012445  -0.001548
    24  H   -0.000276   0.013584  -0.064113   0.445255  -0.064629   0.012294
    25  H    0.000030  -0.001385   0.012550  -0.063149   0.443844  -0.062162
    26  H   -0.000273   0.013683  -0.001450   0.012420  -0.065870   0.446109
    27  H   -0.023151  -0.057755   0.012539  -0.001596   0.011953  -0.063342
    28  H   -0.000353  -0.000226   0.000001  -0.000000  -0.000000   0.000008
              13         14         15         16         17         18
     1  C    0.000000   0.003645  -0.074028   0.377385   0.377372   0.383139
     2  C    0.000000  -0.063958   0.500500  -0.011429  -0.011434  -0.013351
     3  C   -0.000001  -0.061437  -0.047366   0.004462   0.004480  -0.009755
     4  C   -0.000012  -0.043059  -0.046298  -0.000444  -0.000444   0.001696
     5  C    0.000322   0.442437  -0.027262   0.000122   0.000122  -0.000224
     6  O    0.007839  -0.057449   0.001767  -0.000000  -0.000000  -0.000000
     7  C   -0.083569   0.003696  -0.000075  -0.000000  -0.000000   0.000000
     8  C    0.351999   0.000496  -0.000002   0.000000   0.000000   0.000000
     9  C    0.051426   0.000011  -0.000000   0.000000   0.000000   0.000000
    10  C   -0.116625  -0.000000   0.000000  -0.000000  -0.000000  -0.000000
    11  C    0.061356   0.000000   0.000000  -0.000000  -0.000000  -0.000000
    12  C    0.327428  -0.000007   0.000000  -0.000000  -0.000000  -0.000000
    13  C    4.998591  -0.000104   0.000001  -0.000000  -0.000000  -0.000000
    14  C   -0.000104   4.796061   0.551464   0.000339   0.000340  -0.000085
    15  N    0.000001   0.551464   6.291180   0.001378   0.001390   0.005055
    16  H   -0.000000   0.000339   0.001378   0.606759  -0.014144  -0.019393
    17  H   -0.000000   0.000340   0.001390  -0.014144   0.606759  -0.019393
    18  H   -0.000000  -0.000085   0.005055  -0.019393  -0.019393   0.648452
    19  H    0.000000  -0.000112   0.005967   0.000068   0.000068   0.002590
    20  H   -0.000024   0.007410  -0.000258   0.000009   0.000009   0.000012
    21  H    0.001492   0.000142   0.000004   0.000000  -0.000000   0.000000
    22  H    0.001449   0.000143   0.000004  -0.000000   0.000000   0.000000
    23  H    0.012563  -0.000000  -0.000000  -0.000000  -0.000000   0.000000
    24  H   -0.001489   0.000000  -0.000000   0.000000   0.000000   0.000000
    25  H    0.012173  -0.000000   0.000000   0.000000   0.000000   0.000000
    26  H   -0.063789  -0.000000  -0.000000   0.000000   0.000000   0.000000
    27  H    0.449805  -0.000081   0.000003  -0.000000  -0.000000  -0.000000
    28  H   -0.000038   0.417402  -0.034135  -0.000033  -0.000034   0.000003
              19         20         21         22         23         24
     1  C   -0.009260  -0.000275   0.000000   0.000000   0.000000  -0.000000
     2  C   -0.042577   0.011653  -0.000044  -0.000044   0.000000   0.000000
     3  C    0.418933  -0.048437   0.000253   0.000252  -0.000000  -0.000000
     4  C   -0.052630   0.446407   0.006953   0.006954   0.000006  -0.000000
     5  C    0.011819  -0.075268  -0.006692  -0.006684   0.000004  -0.000000
     6  O   -0.000050  -0.006874  -0.029978  -0.029979   0.000066   0.000001
     7  C   -0.000049   0.005972   0.392621   0.392564  -0.011928  -0.000276
     8  C   -0.000001   0.000633  -0.031260  -0.031162  -0.072507   0.013584
     9  C    0.000000   0.000065  -0.002517  -0.002521   0.444044  -0.064113
    10  C   -0.000000  -0.000000   0.000145   0.000142  -0.056386   0.445255
    11  C    0.000000   0.000000   0.000029   0.000029   0.012445  -0.064629
    12  C    0.000000  -0.000000  -0.000112  -0.000112  -0.001548   0.012294
    13  C    0.000000  -0.000024   0.001492   0.001449   0.012563  -0.001489
    14  C   -0.000112   0.007410   0.000142   0.000143  -0.000000   0.000000
    15  N    0.005967  -0.000258   0.000004   0.000004  -0.000000  -0.000000
    16  H    0.000068   0.000009   0.000000  -0.000000  -0.000000   0.000000
    17  H    0.000068   0.000009  -0.000000   0.000000  -0.000000   0.000000
    18  H    0.002590   0.000012   0.000000   0.000000   0.000000   0.000000
    19  H    0.661930  -0.011493   0.000018   0.000018   0.000000  -0.000000
    20  H   -0.011493   0.646120   0.000814   0.000815   0.000018   0.000000
    21  H    0.000018   0.000814   0.666970  -0.046994   0.002275   0.000003
    22  H    0.000018   0.000815  -0.046994   0.666948   0.002265   0.000003
    23  H    0.000000   0.000018   0.002275   0.002265   0.672801  -0.011437
    24  H   -0.000000   0.000000   0.000003   0.000003  -0.011437   0.659906
    25  H    0.000000  -0.000000  -0.000001  -0.000001  -0.000223  -0.010982
    26  H   -0.000000   0.000000   0.000005   0.000005   0.000026  -0.000221
    27  H    0.000000   0.000002   0.000774   0.000773  -0.000155   0.000022
    28  H    0.000067  -0.000222   0.000057   0.000057   0.000000   0.000000
              25         26         27         28
     1  C   -0.000000  -0.000000   0.000000  -0.000176
     2  C    0.000000   0.000000   0.000000   0.005496
     3  C   -0.000000  -0.000000  -0.000005   0.000367
     4  C    0.000000   0.000000   0.000108   0.008802
     5  C   -0.000000   0.000001  -0.000224  -0.069697
     6  O    0.000000  -0.000016   0.016570   0.004198
     7  C    0.000030  -0.000273  -0.023151  -0.000353
     8  C   -0.001385   0.013683  -0.057755  -0.000226
     9  C    0.012550  -0.001450   0.012539   0.000001
    10  C   -0.063149   0.012420  -0.001596  -0.000000
    11  C    0.443844  -0.065870   0.011953  -0.000000
    12  C   -0.062162   0.446109  -0.063342   0.000008
    13  C    0.012173  -0.063789   0.449805  -0.000038
    14  C   -0.000000  -0.000000  -0.000081   0.417402
    15  N    0.000000  -0.000000   0.000003  -0.034135
    16  H    0.000000   0.000000  -0.000000  -0.000033
    17  H    0.000000   0.000000  -0.000000  -0.000034
    18  H    0.000000   0.000000  -0.000000   0.000003
    19  H    0.000000  -0.000000   0.000000   0.000067
    20  H   -0.000000   0.000000   0.000002  -0.000222
    21  H   -0.000001   0.000005   0.000774   0.000057
    22  H   -0.000001   0.000005   0.000773   0.000057
    23  H   -0.000223   0.000026  -0.000155   0.000000
    24  H   -0.010982  -0.000221   0.000022   0.000000
    25  H    0.657871  -0.011130  -0.000187  -0.000000
    26  H   -0.011130   0.657553  -0.010515  -0.000000
    27  H   -0.000187  -0.010515   0.638866   0.000669
    28  H   -0.000000  -0.000000   0.000669   0.635442
 Mulliken charges:
               1
     1  C    0.054014
     2  C   -0.126844
     3  C   -0.017430
     4  C   -0.063426
     5  C    0.176278
     6  O   -0.334265
     7  C    0.243309
     8  C   -0.104579
     9  C   -0.037524
    10  C   -0.013960
    11  C   -0.018049
    12  C   -0.012196
    13  C   -0.010792
    14  C    0.002703
    15  N   -0.129290
    16  H    0.054923
    17  H    0.054909
    18  H    0.021255
    19  H    0.014695
    20  H    0.022914
    21  H    0.045041
    22  H    0.045077
    23  H    0.007671
    24  H    0.022081
    25  H    0.022753
    26  H    0.023463
    27  H    0.024925
    28  H    0.032347
 Sum of Mulliken charges =  -0.00000
 Mulliken charges with hydrogens summed into heavy atoms:
               1
     1  C    0.185101
     2  C   -0.126844
     3  C   -0.002735
     4  C   -0.040512
     5  C    0.176278
     6  O   -0.334265
     7  C    0.333426
     8  C   -0.104579
     9  C   -0.029853
    10  C    0.008121
    11  C    0.004704
    12  C    0.011267
    13  C    0.014132
    14  C    0.035050
    15  N   -0.129290
 Electronic spatial extent (au):  <R**2>=           5047.9943
 Charge=             -0.0000 electrons
 Dipole moment (field-independent basis, Debye):
    X=             -1.1170    Y=             -2.6310    Z=             -0.0012  Tot=              2.8583
 Quadrupole moment (field-independent basis, Debye-Ang):
   XX=            -82.4979   YY=            -81.9419   ZZ=            -92.2452
   XY=             -6.2146   XZ=             -0.0032   YZ=             -0.0024
 Traceless Quadrupole moment (field-independent basis, Debye-Ang):
   XX=              3.0638   YY=              3.6197   ZZ=             -6.6835
   XY=             -6.2146   XZ=             -0.0032   YZ=             -0.0024
 Octapole moment (field-independent basis, Debye-Ang**2):
  XXX=            -18.5497  YYY=             -4.7359  ZZZ=              0.0045  XYY=            -16.3950
  XXY=            -24.7564  XXZ=              0.0007  XZZ=             11.9643  YZZ=              1.3885
  YYZ=             -0.0059  XYZ=              0.0132
 Hexadecapole moment (field-independent basis, Debye-Ang**3):
 XXXX=          -5774.4568 YYYY=           -588.0595 ZZZZ=           -110.1949 XXXY=           -101.3724
 XXXZ=             -0.0848 YYYX=            -34.3536 YYYZ=             -0.0095 ZZZX=              0.0199
 ZZZY=              0.0033 XXYY=          -1112.4204 XXZZ=          -1129.9530 YYZZ=           -131.0255
 XXYZ=             -0.0607 YYXZ=             -0.0295 ZZXY=             10.0031
 N-N= 8.762946239120D+02 E-N=-3.219359075158D+03  KE= 6.257592959307D+02
   1 Symmetry operations used in ECPInt.
 ECPInt:  NShTT=    8385 NPrTT=   30369 LenC2=    7489 LenP2D=   19581.
 LDataN:  DoStor=T MaxTD1= 5 Len=  102
 Calling FoFJK, ICntrl=      2127 FMM=F ISym2X=0 I1Cent= 0 IOpClX= 0 NMat=1 NMatS=1 NMatT=0.
 ***** Axes restored to original set *****
 -------------------------------------------------------------------
 Center     Atomic                   Forces (Hartrees/Bohr)
 Number     Number              X              Y              Z
 -------------------------------------------------------------------
      1        6          -0.000002068   -0.000001956    0.000005794
      2        6           0.000004339    0.000004178   -0.000000706
      3        6          -0.000002956    0.000001063    0.000000005
      4        6          -0.000003064    0.000002238   -0.000000054
      5        6           0.000008320    0.000001357    0.000000616
      6        8          -0.000000265   -0.000002599    0.000000136
      7        6          -0.000000344    0.000002058    0.000004813
      8        6          -0.000004775   -0.000002822   -0.000001842
      9        6           0.000000503   -0.000009450    0.000001458
     10        6          -0.000002015    0.000000954   -0.000001798
     11        6           0.000007215   -0.000003089    0.000002195
     12        6          -0.000002098   -0.000004020   -0.000001488
     13        6           0.000003482   -0.000004384    0.000001367
     14        6          -0.000008389   -0.000001617   -0.000001896
     15        7           0.000002180    0.000001795    0.000001035
     16        1           0.000000361    0.000005770   -0.000000827
     17        1           0.000000808    0.000003562   -0.000003329
     18        1           0.000000926    0.000008207   -0.000001136
     19        1          -0.000001101    0.000002917    0.000000404
     20        1          -0.000000801    0.000000119   -0.000000174
     21        1          -0.000001304   -0.000002018   -0.000002261
     22        1          -0.000001007    0.000000987   -0.000001923
     23        1          -0.000001200    0.000002571   -0.000000141
     24        1           0.000000684   -0.000006344    0.000000147
     25        1          -0.000003326   -0.000005495   -0.000000391
     26        1           0.000003384    0.000000223    0.000000011
     27        1          -0.000001358    0.000001547   -0.000000286
     28        1           0.000003869    0.000004249    0.000000270
 -------------------------------------------------------------------
 Cartesian Forces:  Max     0.000009450 RMS     0.000003172

 GradGradGradGradGradGradGradGradGradGradGradGradGradGradGradGradGradGrad
 Berny optimization.
 FormGI is forming the generalized inverse of G from B-inverse, IUseBI=4.
 Internal  Forces:  Max     0.000004646 RMS     0.000001315
 Search for a local minimum.
 Step number   1 out of a maximum of  147
 All quantities printed in internal units (Hartrees-Bohrs-Radians)
 Mixed Optimization -- En-DIIS/RFO-DIIS
 Second derivative matrix not updated -- first step.
 ITU=  0
     Eigenvalues ---    0.00649   0.00709   0.01530   0.01552   0.01670
     Eigenvalues ---    0.02106   0.02124   0.02147   0.02150   0.02150
     Eigenvalues ---    0.02157   0.02158   0.02162   0.02162   0.02168
     Eigenvalues ---    0.02172   0.02180   0.02197   0.02267   0.02370
     Eigenvalues ---    0.02500   0.06297   0.07100   0.07389   0.07466
     Eigenvalues ---    0.11556   0.14023   0.16000   0.16000   0.16000
     Eigenvalues ---    0.16000   0.16000   0.16000   0.16000   0.16000
     Eigenvalues ---    0.16000   0.16000   0.16000   0.22000   0.22000
     Eigenvalues ---    0.22036   0.22340   0.23394   0.23480   0.24581
     Eigenvalues ---    0.25000   0.25000   0.25000   0.25000   0.31464
     Eigenvalues ---    0.31932   0.32908   0.32909   0.33655   0.33655
     Eigenvalues ---    0.33850   0.34148   0.34339   0.34547   0.34559
     Eigenvalues ---    0.34572   0.34584   0.34755   0.34799   0.41924
     Eigenvalues ---    0.42103   0.42257   0.44305   0.45353   0.45650
     Eigenvalues ---    0.46047   0.46402   0.46543   0.46582   0.46865
     Eigenvalues ---    0.55287   0.55436   0.60146
 RFO step:  Lambda= 0.00000000D+00 EMin= 6.48628028D-03
 Linear search not attempted -- first point.
 Iteration  1 RMS(Cart)=  0.00002429 RMS(Int)=  0.00000000
 Iteration  2 RMS(Cart)=  0.00000000 RMS(Int)=  0.00000000
 Variable       Old X    -DE/DX   Delta X   Delta X   Delta X     New X
                                 (Linear)    (Quad)   (Total)
    R1        2.84269   0.00000   0.00000   0.00000   0.00000   2.84269
    R2        2.07916   0.00000   0.00000   0.00000   0.00000   2.07917
    R3        2.07916  -0.00000   0.00000  -0.00001  -0.00001   2.07915
    R4        2.07584  -0.00000   0.00000  -0.00001  -0.00001   2.07583
    R5        2.63492  -0.00000   0.00000  -0.00000  -0.00000   2.63492
    R6        2.53385  -0.00000   0.00000  -0.00000  -0.00000   2.53385
    R7        2.63846   0.00000   0.00000   0.00000   0.00000   2.63846
    R8        2.06356  -0.00000   0.00000  -0.00000  -0.00000   2.06356
    R9        2.63298   0.00000   0.00000   0.00000   0.00000   2.63299
   R10        2.06075   0.00000   0.00000   0.00000   0.00000   2.06075
   R11        2.54878  -0.00000   0.00000  -0.00000  -0.00000   2.54878
   R12        2.65532   0.00000   0.00000   0.00001   0.00001   2.65533
   R13        2.64868  -0.00000   0.00000  -0.00001  -0.00001   2.64868
   R14        2.85135  -0.00000   0.00000  -0.00000  -0.00000   2.85134
   R15        2.09211   0.00000   0.00000   0.00001   0.00001   2.09212
   R16        2.09214  -0.00000   0.00000  -0.00001  -0.00001   2.09213
   R17        2.64448   0.00000   0.00000   0.00001   0.00001   2.64449
   R18        2.63632   0.00000   0.00000   0.00000   0.00000   2.63633
   R19        2.63011   0.00000   0.00000   0.00000   0.00000   2.63011
   R20        2.06762  -0.00000   0.00000  -0.00001  -0.00001   2.06761
   R21        2.63729   0.00000   0.00000   0.00000   0.00000   2.63729
   R22        2.06397   0.00000   0.00000   0.00001   0.00001   2.06398
   R23        2.63174   0.00000   0.00000   0.00000   0.00000   2.63174
   R24        2.06376  -0.00000   0.00000  -0.00001  -0.00001   2.06375
   R25        2.63730   0.00000   0.00000   0.00000   0.00000   2.63730
   R26        2.06417   0.00000   0.00000   0.00001   0.00001   2.06418
   R27        2.06002   0.00000   0.00000   0.00001   0.00001   2.06003
   R28        2.49496  -0.00000   0.00000  -0.00001  -0.00001   2.49495
   R29        2.07082   0.00000   0.00000   0.00001   0.00001   2.07083
    A1        1.92369  -0.00000   0.00000  -0.00001  -0.00001   1.92368
    A2        1.92365   0.00000   0.00000   0.00001   0.00001   1.92366
    A3        1.95285   0.00000   0.00000   0.00001   0.00001   1.95286
    A4        1.86839  -0.00000   0.00000  -0.00001  -0.00001   1.86838
    A5        1.89648   0.00000   0.00000  -0.00000  -0.00000   1.89648
    A6        1.89651   0.00000   0.00000   0.00001   0.00001   1.89652
    A7        2.13420  -0.00000   0.00000  -0.00000  -0.00000   2.13419
    A8        2.03802  -0.00000   0.00000  -0.00000  -0.00000   2.03802
    A9        2.11097   0.00000   0.00000   0.00001   0.00001   2.11098
   A10        2.09666  -0.00000   0.00000  -0.00000  -0.00000   2.09665
   A11        2.09714   0.00000   0.00000   0.00000   0.00000   2.09714
   A12        2.08939   0.00000   0.00000   0.00000   0.00000   2.08939
   A13        2.06348   0.00000   0.00000   0.00000   0.00000   2.06349
   A14        2.09231  -0.00000   0.00000  -0.00000  -0.00000   2.09231
   A15        2.12739  -0.00000   0.00000  -0.00000  -0.00000   2.12739
   A16        2.19315   0.00000   0.00000   0.00000   0.00000   2.19316
   A17        2.05486  -0.00000   0.00000  -0.00001  -0.00001   2.05485
   A18        2.03517   0.00000   0.00000   0.00001   0.00001   2.03518
   A19        2.07715  -0.00000   0.00000  -0.00000  -0.00000   2.07715
   A20        1.92437  -0.00000   0.00000  -0.00000  -0.00000   1.92436
   A21        1.92376   0.00000   0.00000  -0.00000  -0.00000   1.92376
   A22        1.92374  -0.00000   0.00000  -0.00000  -0.00000   1.92374
   A23        1.91081  -0.00000   0.00000  -0.00000  -0.00000   1.91081
   A24        1.91078   0.00000   0.00000   0.00001   0.00001   1.91079
   A25        1.86956  -0.00000   0.00000   0.00000   0.00000   1.86956
   A26        2.07431   0.00000   0.00000   0.00001   0.00001   2.07431
   A27        2.12825  -0.00000   0.00000  -0.00000  -0.00000   2.12825
   A28        2.08063  -0.00000   0.00000  -0.00000  -0.00000   2.08062
   A29        2.10446  -0.00000   0.00000  -0.00000  -0.00000   2.10446
   A30        2.09030  -0.00000   0.00000  -0.00000  -0.00000   2.09029
   A31        2.08842   0.00000   0.00000   0.00001   0.00001   2.08843
   A32        2.09497   0.00000   0.00000   0.00000   0.00000   2.09498
   A33        2.09129  -0.00000   0.00000  -0.00001  -0.00001   2.09128
   A34        2.09692   0.00000   0.00000   0.00000   0.00000   2.09692
   A35        2.08698  -0.00000   0.00000  -0.00000  -0.00000   2.08698
   A36        2.09731   0.00000   0.00000   0.00000   0.00000   2.09731
   A37        2.09889   0.00000   0.00000   0.00000   0.00000   2.09889
   A38        2.10187   0.00000   0.00000   0.00000   0.00000   2.10187
   A39        2.09479  -0.00000   0.00000  -0.00001  -0.00001   2.09479
   A40        2.08652   0.00000   0.00000   0.00001   0.00001   2.08653
   A41        2.09746   0.00000   0.00000   0.00000   0.00000   2.09746
   A42        2.08133  -0.00000   0.00000   0.00000   0.00000   2.08133
   A43        2.10439  -0.00000   0.00000  -0.00000  -0.00000   2.10439
   A44        2.15544   0.00000   0.00000   0.00001   0.00001   2.15544
   A45        2.06727  -0.00000   0.00000  -0.00001  -0.00001   2.06726
   A46        2.06048   0.00000   0.00000   0.00000   0.00000   2.06048
   A47        2.08497  -0.00000   0.00000  -0.00000  -0.00000   2.08496
    D1       -2.11152  -0.00000   0.00000  -0.00004  -0.00004  -2.11156
    D2        1.03003  -0.00000   0.00000  -0.00005  -0.00005   1.02998
    D3        2.11313   0.00000   0.00000  -0.00002  -0.00002   2.11311
    D4       -1.02850   0.00000   0.00000  -0.00003  -0.00003  -1.02853
    D5        0.00080  -0.00000   0.00000  -0.00004  -0.00004   0.00075
    D6       -3.14083  -0.00000   0.00000  -0.00006  -0.00006  -3.14089
    D7        3.14155  -0.00000   0.00000  -0.00002  -0.00002   3.14154
    D8       -0.00004  -0.00000   0.00000  -0.00002  -0.00002  -0.00006
    D9       -0.00000  -0.00000   0.00000  -0.00000  -0.00000  -0.00000
   D10       -3.14159  -0.00000   0.00000  -0.00001  -0.00001   3.14159
   D11       -3.14156   0.00000   0.00000   0.00003   0.00003  -3.14154
   D12       -0.00001   0.00000   0.00000   0.00001   0.00001   0.00001
   D13        0.00001  -0.00000   0.00000  -0.00000  -0.00000   0.00000
   D14       -3.14159   0.00000   0.00000   0.00000   0.00000  -3.14159
   D15       -3.14159   0.00000   0.00000   0.00000   0.00000  -3.14159
   D16       -0.00000   0.00000   0.00000   0.00000   0.00000   0.00000
   D17        3.14159   0.00000   0.00000   0.00000   0.00000   3.14159
   D18       -0.00000  -0.00000   0.00000  -0.00000  -0.00000  -0.00000
   D19        0.00000  -0.00000   0.00000  -0.00000  -0.00000  -0.00000
   D20       -3.14159  -0.00000   0.00000  -0.00001  -0.00001   3.14159
   D21       -0.00004  -0.00000   0.00000  -0.00001  -0.00001  -0.00005
   D22        3.14155  -0.00000   0.00000  -0.00001  -0.00001   3.14155
   D23       -0.00001   0.00000   0.00000   0.00002   0.00002   0.00001
   D24       -3.14159  -0.00000   0.00000  -0.00001  -0.00001   3.14159
   D25        3.14159   0.00000   0.00000   0.00001   0.00001  -3.14159
   D26        0.00001  -0.00000   0.00000  -0.00001  -0.00001  -0.00001
   D27       -3.14150  -0.00000   0.00000  -0.00001  -0.00001  -3.14152
   D28        1.03010  -0.00000   0.00000  -0.00001  -0.00001   1.03009
   D29       -1.02997   0.00000   0.00000  -0.00001  -0.00001  -1.02998
   D30       -3.14072  -0.00000   0.00000  -0.00001  -0.00001  -3.14073
   D31        0.00097   0.00000   0.00000   0.00000   0.00000   0.00097
   D32       -1.02141  -0.00000   0.00000  -0.00001  -0.00001  -1.02143
   D33        2.12027  -0.00000   0.00000  -0.00000  -0.00000   2.12027
   D34        1.02321   0.00000   0.00000  -0.00001  -0.00001   1.02320
   D35       -2.11829   0.00000   0.00000   0.00000   0.00000  -2.11829
   D36       -3.14147  -0.00000   0.00000  -0.00000  -0.00000  -3.14147
   D37        0.00012   0.00000   0.00000   0.00001   0.00001   0.00013
   D38        0.00003  -0.00000   0.00000  -0.00001  -0.00001   0.00002
   D39       -3.14156   0.00000   0.00000   0.00000   0.00000  -3.14156
   D40        3.14148   0.00000   0.00000   0.00000   0.00000   3.14148
   D41       -0.00013  -0.00000   0.00000  -0.00001  -0.00001  -0.00014
   D42       -0.00002   0.00000   0.00000   0.00001   0.00001  -0.00001
   D43        3.14156  -0.00000   0.00000  -0.00000  -0.00000   3.14156
   D44       -0.00003   0.00000   0.00000   0.00002   0.00002  -0.00001
   D45       -3.14159   0.00000   0.00000   0.00000   0.00000  -3.14159
   D46        3.14156   0.00000   0.00000   0.00001   0.00001   3.14157
   D47        0.00000  -0.00000   0.00000  -0.00001  -0.00001  -0.00001
   D48        0.00002  -0.00000   0.00000  -0.00003  -0.00003  -0.00001
   D49       -3.14158  -0.00000   0.00000  -0.00000  -0.00000  -3.14158
   D50        3.14157  -0.00000   0.00000  -0.00001  -0.00001   3.14157
   D51       -0.00002   0.00000   0.00000   0.00002   0.00002  -0.00001
   D52       -0.00000   0.00000   0.00000   0.00002   0.00002   0.00002
   D53       -3.14158   0.00000   0.00000   0.00001   0.00001  -3.14157
   D54       -3.14159  -0.00000   0.00000  -0.00000  -0.00000  -3.14159
   D55        0.00001  -0.00000   0.00000  -0.00001  -0.00001   0.00000
   D56        0.00000  -0.00000   0.00000  -0.00002  -0.00002  -0.00001
   D57       -3.14157  -0.00000   0.00000  -0.00000  -0.00000  -3.14158
   D58        3.14158  -0.00000   0.00000  -0.00001  -0.00001   3.14158
   D59        0.00001   0.00000   0.00000   0.00001   0.00001   0.00002
   D60        0.00001  -0.00000   0.00000  -0.00002  -0.00002  -0.00001
   D61       -3.14159   0.00000   0.00000   0.00000   0.00000  -3.14159
         Item               Value     Threshold  Converged?
 Maximum Force            0.000005     0.000450     YES
 RMS     Force            0.000001     0.000300     YES
 Maximum Displacement     0.000152     0.001800     YES
 RMS     Displacement     0.000024     0.001200     YES
 Predicted change in Energy=-4.886514D-10
 Optimization completed.
    -- Stationary point found.
                           ----------------------------
                           !   Optimized Parameters   !
                           ! (Angstroms and Degrees)  !
 --------------------------                            --------------------------
 ! Name  Definition              Value          Derivative Info.                !
 --------------------------------------------------------------------------------
 ! R1    R(1,2)                  1.5043         -DE/DX =    0.0                 !
 ! R2    R(1,16)                 1.1002         -DE/DX =    0.0                 !
 ! R3    R(1,17)                 1.1002         -DE/DX =    0.0                 !
 ! R4    R(1,18)                 1.0985         -DE/DX =    0.0                 !
 ! R5    R(2,3)                  1.3943         -DE/DX =    0.0                 !
 ! R6    R(2,15)                 1.3409         -DE/DX =    0.0                 !
 ! R7    R(3,4)                  1.3962         -DE/DX =    0.0                 !
 ! R8    R(3,19)                 1.092          -DE/DX =    0.0                 !
 ! R9    R(4,5)                  1.3933         -DE/DX =    0.0                 !
 ! R10   R(4,20)                 1.0905         -DE/DX =    0.0                 !
 ! R11   R(5,6)                  1.3488         -DE/DX =    0.0                 !
 ! R12   R(5,14)                 1.4051         -DE/DX =    0.0                 !
 ! R13   R(6,7)                  1.4016         -DE/DX =    0.0                 !
 ! R14   R(7,8)                  1.5089         -DE/DX =    0.0                 !
 ! R15   R(7,21)                 1.1071         -DE/DX =    0.0                 !
 ! R16   R(7,22)                 1.1071         -DE/DX =    0.0                 !
 ! R17   R(8,9)                  1.3994         -DE/DX =    0.0                 !
 ! R18   R(8,13)                 1.3951         -DE/DX =    0.0                 !
 ! R19   R(9,10)                 1.3918         -DE/DX =    0.0                 !
 ! R20   R(9,23)                 1.0941         -DE/DX =    0.0                 !
 ! R21   R(10,11)                1.3956         -DE/DX =    0.0                 !
 ! R22   R(10,24)                1.0922         -DE/DX =    0.0                 !
 ! R23   R(11,12)                1.3927         -DE/DX =    0.0                 !
 ! R24   R(11,25)                1.0921         -DE/DX =    0.0                 !
 ! R25   R(12,13)                1.3956         -DE/DX =    0.0                 !
 ! R26   R(12,26)                1.0923         -DE/DX =    0.0                 !
 ! R27   R(13,27)                1.0901         -DE/DX =    0.0                 !
 ! R28   R(14,15)                1.3203         -DE/DX =    0.0                 !
 ! R29   R(14,28)                1.0958         -DE/DX =    0.0                 !
 ! A1    A(2,1,16)             110.2193         -DE/DX =    0.0                 !
 ! A2    A(2,1,17)             110.2168         -DE/DX =    0.0                 !
 ! A3    A(2,1,18)             111.8899         -DE/DX =    0.0                 !
 ! A4    A(16,1,17)            107.0508         -DE/DX =    0.0                 !
 ! A5    A(16,1,18)            108.6601         -DE/DX =    0.0                 !
 ! A6    A(17,1,18)            108.662          -DE/DX =    0.0                 !
 ! A7    A(1,2,3)              122.2804         -DE/DX =    0.0                 !
 ! A8    A(1,2,15)             116.7699         -DE/DX =    0.0                 !
 ! A9    A(3,2,15)             120.9496         -DE/DX =    0.0                 !
 ! A10   A(2,3,4)              120.1295         -DE/DX =    0.0                 !
 ! A11   A(2,3,19)             120.1571         -DE/DX =    0.0                 !
 ! A12   A(4,3,19)             119.7134         -DE/DX =    0.0                 !
 ! A13   A(3,4,5)              118.2288         -DE/DX =    0.0                 !
 ! A14   A(3,4,20)             119.8805         -DE/DX =    0.0                 !
 ! A15   A(5,4,20)             121.8907         -DE/DX =    0.0                 !
 ! A16   A(4,5,6)              125.6585         -DE/DX =    0.0                 !
 ! A17   A(4,5,14)             117.7348         -DE/DX =    0.0                 !
 ! A18   A(6,5,14)             116.6067         -DE/DX =    0.0                 !
 ! A19   A(5,6,7)              119.0119         -DE/DX =    0.0                 !
 ! A20   A(6,7,8)              110.2581         -DE/DX =    0.0                 !
 ! A21   A(6,7,21)             110.2236         -DE/DX =    0.0                 !
 ! A22   A(6,7,22)             110.2222         -DE/DX =    0.0                 !
 ! A23   A(8,7,21)             109.4812         -DE/DX =    0.0                 !
 ! A24   A(8,7,22)             109.4798         -DE/DX =    0.0                 !
 ! A25   A(21,7,22)            107.1177         -DE/DX =    0.0                 !
 ! A26   A(7,8,9)              118.849          -DE/DX =    0.0                 !
 ! A27   A(7,8,13)             121.9399         -DE/DX =    0.0                 !
 ! A28   A(9,8,13)             119.2111         -DE/DX =    0.0                 !
 ! A29   A(8,9,10)             120.5769         -DE/DX =    0.0                 !
 ! A30   A(8,9,23)             119.7652         -DE/DX =    0.0                 !
 ! A31   A(10,9,23)            119.6579         -DE/DX =    0.0                 !
 ! A32   A(9,10,11)            120.0331         -DE/DX =    0.0                 !
 ! A33   A(9,10,24)            119.8221         -DE/DX =    0.0                 !
 ! A34   A(11,10,24)           120.1448         -DE/DX =    0.0                 !
 ! A35   A(10,11,12)           119.5753         -DE/DX =    0.0                 !
 ! A36   A(10,11,25)           120.167          -DE/DX =    0.0                 !
 ! A37   A(12,11,25)           120.2576         -DE/DX =    0.0                 !
 ! A38   A(11,12,13)           120.4282         -DE/DX =    0.0                 !
 ! A39   A(11,12,26)           120.0228         -DE/DX =    0.0                 !
 ! A40   A(13,12,26)           119.549          -DE/DX =    0.0                 !
 ! A41   A(8,13,12)            120.1754         -DE/DX =    0.0                 !
 ! A42   A(8,13,27)            119.2517         -DE/DX =    0.0                 !
 ! A43   A(12,13,27)           120.5729         -DE/DX =    0.0                 !
 ! A44   A(5,14,15)            123.4974         -DE/DX =    0.0                 !
 ! A45   A(5,14,28)            118.4456         -DE/DX =    0.0                 !
 ! A46   A(15,14,28)           118.057          -DE/DX =    0.0                 !
 ! A47   A(2,15,14)            119.4598         -DE/DX =    0.0                 !
 ! D1    D(16,1,2,3)          -120.9815         -DE/DX =    0.0                 !
 ! D2    D(16,1,2,15)           59.0165         -DE/DX =    0.0                 !
 ! D3    D(17,1,2,3)           121.0734         -DE/DX =    0.0                 !
 ! D4    D(17,1,2,15)          -58.9287         -DE/DX =    0.0                 !
 ! D5    D(18,1,2,3)             0.0456         -DE/DX =    0.0                 !
 ! D6    D(18,1,2,15)         -179.9564         -DE/DX =    0.0                 !
 ! D7    D(1,2,3,4)            179.9977         -DE/DX =    0.0                 !
 ! D8    D(1,2,3,19)            -0.002          -DE/DX =    0.0                 !
 ! D9    D(15,2,3,4)            -0.0001         -DE/DX =    0.0                 !
 ! D10   D(15,2,3,19)          180.0001         -DE/DX =    0.0                 !
 ! D11   D(1,2,15,14)         -179.9984         -DE/DX =    0.0                 !
 ! D12   D(3,2,15,14)           -0.0004         -DE/DX =    0.0                 !
 ! D13   D(2,3,4,5)              0.0004         -DE/DX =    0.0                 !
 ! D14   D(2,3,4,20)          -180.0            -DE/DX =    0.0                 !
 ! D15   D(19,3,4,5)          -179.9999         -DE/DX =    0.0                 !
 ! D16   D(19,3,4,20)           -0.0002         -DE/DX =    0.0                 !
 ! D17   D(3,4,5,6)            179.9997         -DE/DX =    0.0                 !
 ! D18   D(3,4,5,14)            -0.0001         -DE/DX =    0.0                 !
 ! D19   D(20,4,5,6)             0.0001         -DE/DX =    0.0                 !
 ! D20   D(20,4,5,14)          180.0003         -DE/DX =    0.0                 !
 ! D21   D(4,5,6,7)             -0.0021         -DE/DX =    0.0                 !
 ! D22   D(14,5,6,7)           179.9977         -DE/DX =    0.0                 !
 ! D23   D(4,5,14,15)           -0.0005         -DE/DX =    0.0                 !
 ! D24   D(4,5,14,28)          180.0002         -DE/DX =    0.0                 !
 ! D25   D(6,5,14,15)         -180.0003         -DE/DX =    0.0                 !
 ! D26   D(6,5,14,28)            0.0004         -DE/DX =    0.0                 !
 ! D27   D(5,6,7,8)           -179.9949         -DE/DX =    0.0                 !
 ! D28   D(5,6,7,21)            59.0203         -DE/DX =    0.0                 !
 ! D29   D(5,6,7,22)           -59.0129         -DE/DX =    0.0                 !
 ! D30   D(6,7,8,9)           -179.9498         -DE/DX =    0.0                 !
 ! D31   D(6,7,8,13)             0.0555         -DE/DX =    0.0                 !
 ! D32   D(21,7,8,9)           -58.5226         -DE/DX =    0.0                 !
 ! D33   D(21,7,8,13)          121.4827         -DE/DX =    0.0                 !
 ! D34   D(22,7,8,9)            58.6257         -DE/DX =    0.0                 !
 ! D35   D(22,7,8,13)         -121.369          -DE/DX =    0.0                 !
 ! D36   D(7,8,9,10)          -179.993          -DE/DX =    0.0                 !
 ! D37   D(7,8,9,23)             0.007          -DE/DX =    0.0                 !
 ! D38   D(13,8,9,10)            0.0019         -DE/DX =    0.0                 !
 ! D39   D(13,8,9,23)         -179.9982         -DE/DX =    0.0                 !
 ! D40   D(7,8,13,12)          179.9937         -DE/DX =    0.0                 !
 ! D41   D(7,8,13,27)           -0.0073         -DE/DX =    0.0                 !
 ! D42   D(9,8,13,12)           -0.001          -DE/DX =    0.0                 !
 ! D43   D(9,8,13,27)          179.998          -DE/DX =    0.0                 !
 ! D44   D(8,9,10,11)           -0.002          -DE/DX =    0.0                 !
 ! D45   D(8,9,10,24)         -179.9998         -DE/DX =    0.0                 !
 ! D46   D(23,9,10,11)         179.9981         -DE/DX =    0.0                 !
 ! D47   D(23,9,10,24)           0.0002         -DE/DX =    0.0                 !
 ! D48   D(9,10,11,12)           0.0011         -DE/DX =    0.0                 !
 ! D49   D(9,10,11,25)        -179.9992         -DE/DX =    0.0                 !
 ! D50   D(24,10,11,12)        179.999          -DE/DX =    0.0                 !
 ! D51   D(24,10,11,25)         -0.0013         -DE/DX =    0.0                 !
 ! D52   D(10,11,12,13)         -0.0002         -DE/DX =    0.0                 !
 ! D53   D(10,11,12,26)       -179.9995         -DE/DX =    0.0                 !
 ! D54   D(25,11,12,13)       -179.9999         -DE/DX =    0.0                 !
 ! D55   D(25,11,12,26)          0.0008         -DE/DX =    0.0                 !
 ! D56   D(11,12,13,8)           0.0001         -DE/DX =    0.0                 !
 ! D57   D(11,12,13,27)       -179.9988         -DE/DX =    0.0                 !
 ! D58   D(26,12,13,8)         179.9994         -DE/DX =    0.0                 !
 ! D59   D(26,12,13,27)          0.0005         -DE/DX =    0.0                 !
 ! D60   D(5,14,15,2)            0.0008         -DE/DX =    0.0                 !
 ! D61   D(28,14,15,2)        -180.0            -DE/DX =    0.0                 !
 --------------------------------------------------------------------------------
 GradGradGradGradGradGradGradGradGradGradGradGradGradGradGradGradGradGrad

                          Input orientation:                          
 ---------------------------------------------------------------------
 Center     Atomic      Atomic             Coordinates (Angstroms)
 Number     Number       Type             X           Y           Z
 ---------------------------------------------------------------------
      1          6           0       -5.576080    0.035800    0.000030
      2          6           0       -4.071880    0.019640    0.000020
      3          6           0       -3.339920   -1.167130    0.000530
      4          6           0       -1.944210   -1.129720    0.000450
      5          6           0       -1.318310    0.115100   -0.000140
      6          8           0        0.013970    0.325280   -0.000290
      7          6           0        0.876450   -0.779560    0.000220
      8          6           0        2.313740   -0.320340    0.000070
      9          6           0        3.329970   -1.282420   -0.000550
     10          6           0        4.667910   -0.899000   -0.000560
     11          6           0        5.006530    0.454890    0.000010
     12          6           0        3.998300    1.415600    0.000610
     13          6           0        2.656460    1.031990    0.000640
     14          6           0       -2.135710    1.258020   -0.000620
     15          7           0       -3.455120    1.210230   -0.000550
     16          1           0       -5.950620    0.570930   -0.885350
     17          1           0       -5.950540    0.573130    0.884110
     18          1           0       -5.996550   -0.979030    0.001290
     19          1           0       -3.855570   -2.129700    0.000990
     20          1           0       -1.375790   -2.060360    0.000850
     21          1           0        0.690410   -1.410710   -0.890120
     22          1           0        0.690360   -1.409900    0.891140
     23          1           0        3.071450   -2.345580   -0.001030
     24          1           0        5.451100   -1.660270   -0.001050
     25          1           0        6.055660    0.758200   -0.000010
     26          1           0        4.255050    2.477310    0.001050
     27          1           0        1.865360    1.782000    0.001090
     28          1           0       -1.655630    2.243090   -0.001090
 ---------------------------------------------------------------------
                    Distance matrix (angstroms):
                    1          2          3          4          5
     1  C    0.000000
     2  C    1.504287   0.000000
     3  C    2.539183   1.394342   0.000000
     4  C    3.814304   2.418266   1.396211   0.000000
[...]
     2  C    0.277459   4.827991   0.577284  -0.030693  -0.029570  -0.002121
     3  C   -0.042008   0.577284   4.962948   0.429404  -0.015031   0.011173
     4  C    0.011924  -0.030693   0.429404   5.100402   0.434678  -0.097056
     5  C    0.001852  -0.029570  -0.015031   0.434678   4.701192   0.355187
     6  O   -0.000001  -0.002121   0.011173  -0.097056   0.355187   7.945024
     7  C    0.000008   0.000871  -0.005214   0.003997  -0.064485   0.244100
     8  C    0.000000   0.000142  -0.001104   0.003841   0.003897  -0.080784
     9  C    0.000000   0.000003  -0.000008   0.000146  -0.000341   0.002919
    10  C    0.000000  -0.000000  -0.000001   0.000004  -0.000009  -0.000386
    11  C   -0.000000   0.000000  -0.000000  -0.000006   0.000015   0.000289
    12  C    0.000000  -0.000000   0.000000   0.000036  -0.000130  -0.000165
    13  C   -0.000000  -0.000019  -0.000012   0.000005  -0.002522   0.026812
    14  C    0.001279  -0.107179  -0.025203  -0.003193   0.476652  -0.050176
    15  N   -0.036025   0.449083  -0.045977  -0.055499  -0.058711   0.005263
    16  H    0.402555  -0.029859  -0.002148  -0.000606   0.000077  -0.000002
    17  H    0.402645  -0.029933  -0.002128  -0.000604   0.000077  -0.000002
    18  H    0.437760  -0.080192   0.006529   0.004929  -0.000269  -0.000002
    19  H   -0.006012  -0.028840   0.396383  -0.040448   0.008457  -0.000027
    20  H   -0.000268   0.006239  -0.030982   0.434359  -0.053129  -0.004685
    21  H    0.000001  -0.000011  -0.000549   0.008139  -0.008218  -0.040684
    22  H    0.000001  -0.000010  -0.000557   0.008135  -0.008185  -0.040727
    23  H    0.000000   0.000000  -0.000002   0.000043  -0.000005   0.000089
    24  H    0.000000   0.000000  -0.000000   0.000000  -0.000001   0.000004
    25  H   -0.000000   0.000000  -0.000000   0.000000  -0.000000   0.000000
    26  H    0.000000   0.000000  -0.000000   0.000000   0.000004  -0.000048
    27  H   -0.000000   0.000000  -0.000016   0.000173  -0.001736   0.015559
    28  H   -0.000527   0.002306   0.000955   0.001959  -0.083453   0.005579
               7          8          9         10         11         12
     1  C    0.000008   0.000000   0.000000   0.000000  -0.000000   0.000000
     2  C    0.000871   0.000142   0.000003  -0.000000   0.000000  -0.000000
     3  C   -0.005214  -0.001104  -0.000008  -0.000001  -0.000000   0.000000
     4  C    0.003997   0.003841   0.000146   0.000004  -0.000006   0.000036
     5  C   -0.064485   0.003897  -0.000341  -0.000009   0.000015  -0.000130
     6  O    0.244100  -0.080784   0.002919  -0.000386   0.000289  -0.000165
     7  C    4.914289   0.350122  -0.085472   0.003034  -0.003693   0.013511
     8  C    0.350122   4.926744   0.411421   0.005201  -0.075252  -0.010583
     9  C   -0.085472   0.411421   5.067457   0.458838   0.015248  -0.060942
    10  C    0.003034   0.005201   0.458838   4.901407   0.454601   0.001611
    11  C   -0.003693  -0.075252   0.015248   0.454601   4.913117   0.453434
    12  C    0.013511  -0.010583  -0.060942   0.001611   0.453434   4.919049
    13  C   -0.114138   0.439448   0.033638  -0.063598   0.019039   0.443264
    14  C   -0.000701  -0.000964   0.000025  -0.000008   0.000009  -0.000017
    15  N   -0.000616  -0.000154  -0.000001  -0.000000   0.000000   0.000001
    16  H   -0.000001  -0.000000   0.000000  -0.000000   0.000000  -0.000000
    17  H   -0.000001  -0.000000   0.000000  -0.000000   0.000000  -0.000000
    18  H    0.000003   0.000000   0.000000  -0.000000   0.000000  -0.000000
    19  H   -0.000023  -0.000009  -0.000000  -0.000000   0.000000   0.000000
    20  H    0.007738   0.002437   0.000118   0.000001   0.000000  -0.000001
    21  H    0.391439  -0.025798  -0.000313   0.000097   0.000152  -0.000069
    22  H    0.391222  -0.025499  -0.000311   0.000098   0.000152  -0.000071
    23  H    0.002216  -0.075086   0.447429  -0.050467   0.009912  -0.003402
    24  H   -0.000278   0.012167  -0.058108   0.443346  -0.053439   0.010132
    25  H    0.000124  -0.002101   0.009521  -0.052844   0.439520  -0.052131
    26  H   -0.000393   0.010703  -0.002602   0.009768  -0.052938   0.441513
    27  H   -0.018325  -0.036250   0.010384  -0.002387   0.007798  -0.051801
    28  H   -0.000381  -0.000535   0.000013  -0.000002   0.000002   0.000026
              13         14         15         16         17         18
     1  C   -0.000000   0.001279  -0.036025   0.402555   0.402645   0.437760
     2  C   -0.000019  -0.107179   0.449083  -0.029859  -0.029933  -0.080192
     3  C   -0.000012  -0.025203  -0.045977  -0.002148  -0.002128   0.006529
     4  C    0.000005  -0.003193  -0.055499  -0.000606  -0.000604   0.004929
     5  C   -0.002522   0.476652  -0.058711   0.000077   0.000077  -0.000269
     6  O    0.026812  -0.050176   0.005263  -0.000002  -0.000002  -0.000002
     7  C   -0.114138  -0.000701  -0.000616  -0.000001  -0.000001   0.000003
     8  C    0.439448  -0.000964  -0.000154  -0.000000  -0.000000   0.000000
     9  C    0.033638   0.000025  -0.000001   0.000000   0.000000   0.000000
    10  C   -0.063598  -0.000008  -0.000000  -0.000000  -0.000000  -0.000000
    11  C    0.019039   0.000009   0.000000   0.000000   0.000000   0.000000
    12  C    0.443264  -0.000017   0.000001  -0.000000  -0.000000  -0.000000
    13  C    5.035743   0.000539   0.000043  -0.000000  -0.000000  -0.000000
    14  C    0.000539   4.836267   0.568315   0.000756   0.000758   0.000071
    15  N    0.000043   0.568315   6.457340   0.001144   0.001148   0.003975
    16  H   -0.000000   0.000756   0.001144   0.546606  -0.024270  -0.022362
    17  H   -0.000000   0.000758   0.001148  -0.024270   0.546541  -0.022360
    18  H   -0.000000   0.000071   0.003975  -0.022362  -0.022360   0.562089
    19  H    0.000002  -0.001074   0.008173  -0.000190  -0.000190  -0.001125
    20  H   -0.000030   0.001187  -0.001201   0.000016   0.000016  -0.000035
    21  H    0.002502   0.000692  -0.000022   0.000001  -0.000000   0.000000
    22  H    0.002400   0.000702  -0.000022  -0.000000   0.000001   0.000000
    23  H    0.013368   0.000004  -0.000000  -0.000000  -0.000000   0.000000
    24  H   -0.003285  -0.000000  -0.000000   0.000000   0.000000   0.000000
    25  H    0.008905  -0.000000  -0.000000   0.000000   0.000000   0.000000
    26  H   -0.054668  -0.000003  -0.000000  -0.000000  -0.000000   0.000000
    27  H    0.431845   0.001031   0.000022  -0.000000  -0.000000   0.000000
    28  H    0.000105   0.440834  -0.021801  -0.000033  -0.000034  -0.000002
              19         20         21         22         23         24
     1  C   -0.006012  -0.000268   0.000001   0.000001   0.000000   0.000000
     2  C   -0.028840   0.006239  -0.000011  -0.000010   0.000000   0.000000
     3  C    0.396383  -0.030982  -0.000549  -0.000557  -0.000002  -0.000000
     4  C   -0.040448   0.434359   0.008139   0.008135   0.000043   0.000000
     5  C    0.008457  -0.053129  -0.008218  -0.008185  -0.000005  -0.000001
     6  O   -0.000027  -0.004685  -0.040684  -0.040727   0.000089   0.000004
     7  C   -0.000023   0.007738   0.391439   0.391222   0.002216  -0.000278
     8  C   -0.000009   0.002437  -0.025798  -0.025499  -0.075086   0.012167
     9  C   -0.000000   0.000118  -0.000313  -0.000311   0.447429  -0.058108
    10  C   -0.000000   0.000001   0.000097   0.000098  -0.050467   0.443346
    11  C    0.000000   0.000000   0.000152   0.000152   0.009912  -0.053439
    12  C    0.000000  -0.000001  -0.000069  -0.000071  -0.003402   0.010132
    13  C    0.000002  -0.000030   0.002502   0.002400   0.013368  -0.003285
    14  C   -0.001074   0.001187   0.000692   0.000702   0.000004  -0.000000
    15  N    0.008173  -0.001201  -0.000022  -0.000022  -0.000000  -0.000000
    16  H   -0.000190   0.000016   0.000001  -0.000000  -0.000000   0.000000
    17  H   -0.000190   0.000016  -0.000000   0.000001  -0.000000   0.000000
    18  H   -0.001125  -0.000035   0.000000   0.000000   0.000000   0.000000
    19  H    0.546737  -0.005559  -0.000003  -0.000003   0.000000  -0.000000
    20  H   -0.005559   0.503388  -0.000497  -0.000490   0.000057   0.000000
    21  H   -0.000003  -0.000497   0.624912  -0.068793   0.000891  -0.000007
    22  H   -0.000003  -0.000490  -0.068793   0.624948   0.000884  -0.000007
    23  H    0.000000   0.000057   0.000891   0.000884   0.546369  -0.007260
    24  H   -0.000000   0.000000  -0.000007  -0.000007  -0.007260   0.542852
    25  H   -0.000000   0.000000  -0.000001  -0.000001  -0.000151  -0.006725
    26  H   -0.000000   0.000000   0.000009   0.000009   0.000039  -0.000127
    27  H    0.000000   0.000003   0.000544   0.000539  -0.000040   0.000036
    28  H    0.000139  -0.000161   0.000060   0.000061   0.000000   0.000000
              25         26         27         28
     1  C   -0.000000   0.000000  -0.000000  -0.000527
     2  C    0.000000   0.000000   0.000000   0.002306
     3  C   -0.000000  -0.000000  -0.000016   0.000955
     4  C    0.000000   0.000000   0.000173   0.001959
     5  C   -0.000000   0.000004  -0.001736  -0.083453
     6  O    0.000000  -0.000048   0.015559   0.005579
     7  C    0.000124  -0.000393  -0.018325  -0.000381
     8  C   -0.002101   0.010703  -0.036250  -0.000535
     9  C    0.009521  -0.002602   0.010384   0.000013
    10  C   -0.052844   0.009768  -0.002387  -0.000002
    11  C    0.439520  -0.052938   0.007798   0.000002
    12  C   -0.052131   0.441513  -0.051801   0.000026
    13  C    0.008905  -0.054668   0.431845   0.000105
    14  C   -0.000000  -0.000003   0.001031   0.440834
    15  N   -0.000000  -0.000000   0.000022  -0.021801
    16  H    0.000000  -0.000000  -0.000000  -0.000033
    17  H    0.000000  -0.000000  -0.000000  -0.000034
    18  H    0.000000   0.000000   0.000000  -0.000002
    19  H   -0.000000  -0.000000   0.000000   0.000139
    20  H    0.000000   0.000000   0.000003  -0.000161
    21  H   -0.000001   0.000009   0.000544   0.000060
    22  H   -0.000001   0.000009   0.000539   0.000061
    23  H   -0.000151   0.000039  -0.000040   0.000000
    24  H   -0.006725  -0.000127   0.000036   0.000000
    25  H    0.541169  -0.006843  -0.000103  -0.000000
    26  H   -0.006843   0.539844  -0.005551  -0.000002
    27  H   -0.000103  -0.005551   0.502419   0.000880
    28  H   -0.000000  -0.000002   0.000880   0.524003
 Mulliken charges:
               1
     1  C   -0.351299
     2  C    0.197049
     3  C   -0.213738
     4  C   -0.214074
     5  C    0.343706
     6  O   -0.295133
     7  C   -0.028954
     8  C    0.167994
     9  C   -0.249063
    10  C   -0.108306
    11  C   -0.127958
    12  C   -0.103267
    13  C   -0.219385
    14  C   -0.140603
    15  N   -0.274480
    16  H    0.128318
    17  H    0.128337
    18  H    0.110988
    19  H    0.123611
    20  H    0.141475
    21  H    0.115525
    22  H    0.115523
    23  H    0.115110
    24  H    0.120699
    25  H    0.121661
    26  H    0.121285
    27  H    0.144975
    28  H    0.130006
 Sum of Mulliken charges =  -0.00000
 Mulliken charges with hydrogens summed into heavy atoms:
               1
     1  C    0.016344
     2  C    0.197049
     3  C   -0.090127
     4  C   -0.072599
     5  C    0.343706
     6  O   -0.295133
     7  C    0.202093
     8  C    0.167994
     9  C   -0.133954
    10  C    0.012393
    11  C   -0.006297
    12  C    0.018018
    13  C   -0.074411
    14  C   -0.010597
    15  N   -0.274480
 Electronic spatial extent (au):  <R**2>=           5048.8334
 Charge=             -0.0000 electrons
 Dipole moment (field-independent basis, Debye):
    X=             -1.2038    Y=             -2.6055    Z=             -0.0012  Tot=              2.8702
 Quadrupole moment (field-independent basis, Debye-Ang):
   XX=            -82.9268   YY=            -82.0111   ZZ=            -92.8757
   XY=             -6.5930   XZ=             -0.0039   YZ=             -0.0026
 Traceless Quadrupole moment (field-independent basis, Debye-Ang):
   XX=              3.0111   YY=              3.9268   ZZ=             -6.9378
   XY=             -6.5930   XZ=             -0.0039   YZ=             -0.0026
 Octapole moment (field-independent basis, Debye-Ang**2):
  XXX=            -23.0361  YYY=             -5.1558  ZZZ=              0.0046  XYY=            -17.5676
  XXY=            -26.9051  XXZ=             -0.0019  XZZ=             12.5374  YZZ=              1.2400
  YYZ=             -0.0063  XYZ=              0.0141
 Hexadecapole moment (field-independent basis, Debye-Ang**3):
 XXXX=          -5800.7128 YYYY=           -592.8945 ZZZZ=           -116.5335 XXXY=           -113.4210
 XXXZ=             -0.1109 YYYX=            -39.1593 YYYZ=             -0.0116 ZZZX=              0.0215
 ZZZY=              0.0031 XXYY=          -1118.5627 XXZZ=          -1143.4808 YYZZ=           -134.8762
 XXYZ=             -0.0659 YYXZ=             -0.0346 ZZXY=             10.6180
 N-N= 8.762946239120D+02 E-N=-3.224731323164D+03  KE= 6.297701565639D+02
 Breneman (CHELPG) radii used.
 Read replacement radii for each type of atom:
 Atom Element Radius
    1     6    1.50
    2     6    1.50
    3     6    1.50
    4     6    1.50
    5     6    1.50
    6     8    1.70
    7     6    1.50
    8     6    1.50
    9     6    1.50
   10     6    1.50
   11     6    1.50
   12     6    1.50
   13     6    1.50
   14     6    1.50
   15     7    1.70
   16     1    1.45
   17     1    1.45
   18     1    1.45
   19     1    1.45
   20     1    1.45
   21     1    1.45
   22     1    1.45
   23     1    1.45
   24     1    1.45
   25     1    1.45
   26     1    1.45
   27     1    1.45
   28     1    1.45
 Generate Potential Derived Charges using the Breneman model, NDens= 1.
 Grid spacing= 0.300 Box extension= 2.800
 NStep X,Y,Z=   59     36     26   Total possible points=       55224
 Number of Points to Fit=   17786

 **********************************************************************

            Electrostatic Properties Using The SCF Density.

 **********************************************************************

       Atomic Center    1 is at   5.576081  0.035796 -0.000030
       Atomic Center    2 is at   4.071881  0.019637 -0.000020
       Atomic Center    3 is at   3.339921 -1.167133 -0.000530
       Atomic Center    4 is at   1.944211 -1.129722 -0.000450
       Atomic Center    5 is at   1.318311  0.115098  0.000140
       Atomic Center    6 is at  -0.013969  0.325278  0.000290
       Atomic Center    7 is at  -0.876449 -0.779561 -0.000220
       Atomic Center    8 is at  -2.313739 -0.320341 -0.000070
       Atomic Center    9 is at  -3.329969 -1.282420  0.000550
       Atomic Center   10 is at  -4.667909 -0.899000  0.000560
       Atomic Center   11 is at  -5.006529  0.454890 -0.000010
       Atomic Center   12 is at  -3.998298  1.415600 -0.000610
       Atomic Center   13 is at  -2.656459  1.031989 -0.000640
       Atomic Center   14 is at   2.135712  1.258017  0.000620
       Atomic Center   15 is at   3.455122  1.210227  0.000550
       Atomic Center   16 is at   5.950621  0.570926  0.885350
       Atomic Center   17 is at   5.950541  0.573126 -0.884110
       Atomic Center   18 is at   5.996551 -0.979034 -0.001290
       Atomic Center   19 is at   3.855570 -2.129703 -0.000990
       Atomic Center   20 is at   1.375790 -2.060362 -0.000850
       Atomic Center   21 is at  -0.690410 -1.410711  0.890120
       Atomic Center   22 is at  -0.690360 -1.409901 -0.891140
       Atomic Center   23 is at  -3.071450 -2.345580  0.001030
       Atomic Center   24 is at  -5.451100 -1.660270  0.001050
       Atomic Center   25 is at  -6.055659  0.758201  0.000010
       Atomic Center   26 is at  -4.255048  2.477310 -0.001050
       Atomic Center   27 is at  -1.865358  1.781999 -0.001090
       Atomic Center   28 is at   1.655632  2.243088  0.001090
   17786 points will be used for fitting atomic charges
 Fitting point charges to electrostatic potential
 Charges from ESP fit, RMS=   0.00364 RRMS=   0.29987:
 ESP charges:
               1
     1  C   -0.486900
     2  C    0.607955
     3  C   -0.404539
     4  C   -0.056951
     5  C    0.180927
     6  O   -0.416306
     7  C    0.360923
     8  C    0.070807
     9  C   -0.190491
    10  C   -0.059994
    11  C   -0.119049
    12  C   -0.069467
    13  C   -0.148617
    14  C    0.192169
    15  N   -0.601425
    16  H    0.129169
    17  H    0.129138
    18  H    0.110792
    19  H    0.154785
    20  H    0.113656
    21  H   -0.030076
    22  H   -0.030163
    23  H    0.099113
    24  H    0.091437
    25  H    0.093953
    26  H    0.092433
    27  H    0.107076
    28  H    0.079645
 Sum of ESP charges =   0.00000
 ESP charges with hydrogens summed into heavy atoms:
               1
     1  C   -0.117801
     2  C    0.607955
     3  C   -0.249754
     4  C    0.056705
     5  C    0.180927
     6  O   -0.416306
     7  C    0.300685
     8  C    0.070807
     9  C   -0.091378
    10  C    0.031442
    11  C   -0.025096
    12  C    0.022966
    13  C   -0.041541
    14  C    0.271814
    15  N   -0.601425
 Charge=   0.00000 Dipole=    -1.2420    -2.5724    -0.0008 Tot=     2.8566
 -----------------------------------------------------------------

              Electrostatic Properties (Atomic Units)

 -----------------------------------------------------------------
    Center     Electric         -------- Electric Field --------
               Potential          X             Y             Z
 -----------------------------------------------------------------
    1 Atom    -14.775825
    2 Atom    -14.735299
    3 Atom    -14.761950
    4 Atom    -14.752386
    5 Atom    -14.700097
    6 Atom    -22.313419
    7 Atom    -14.694529
    8 Atom    -14.751595
    9 Atom    -14.762426
   10 Atom    -14.763437
   11 Atom    -14.766445
   12 Atom    -14.765503
   13 Atom    -14.767932
   14 Atom    -14.740789
   15 Atom    -18.403614
   16 Atom     -1.118424
   17 Atom     -1.118433
   18 Atom     -1.117759
   19 Atom     -1.096370
   20 Atom     -1.083275
   21 Atom     -1.095994
   22 Atom     -1.095992
   23 Atom     -1.097188
   24 Atom     -1.102322
   25 Atom     -1.104332
   26 Atom     -1.105328
   27 Atom     -1.108531
   28 Atom     -1.105724
 -----------------------------------------------------------------
 Unable to Open any file for archive entry.
 1\1\GINC-NOTCH383\SP\RwB97XD\def2TZVP\C13H13N1O1\U6053008\12-Jul-2024\
 0\\#N Guess=Read Geom=Check Integral(Ultrafine) Density Pop=(ChelpG,Re
 adRadii) NMR wB97XD def2TZVP\\12397251_6\\0,1\C,0,-5.57608,0.0358,0.00
 003\C,0,-4.07188,0.01964,0.00002\C,0,-3.33992,-1.16713,0.00053\C,0,-1.
 94421,-1.12972,0.00045\C,0,-1.31831,0.1151,-0.00014\O,0,0.01397,0.3252
 8,-0.00029\C,0,0.87645,-0.77956,0.00022\C,0,2.31374,-0.32034,0.00007\C
 ,0,3.32997,-1.28242,-0.00055\C,0,4.66791,-0.899,-0.00056\C,0,5.00653,0
 .45489,0.00001\C,0,3.9983,1.4156,0.00061\C,0,2.65646,1.03199,0.00064\C
 ,0,-2.13571,1.25802,-0.00062\N,0,-3.45512,1.21023,-0.00055\H,0,-5.9506
 2,0.57093,-0.88535\H,0,-5.95054,0.57313,0.88411\H,0,-5.99655,-0.97903,
 0.00129\H,0,-3.85557,-2.1297,0.00099\H,0,-1.37579,-2.06036,0.00085\H,0
 ,0.69041,-1.41071,-0.89012\H,0,0.69036,-1.4099,0.89114\H,0,3.07145,-2.
 34558,-0.00103\H,0,5.4511,-1.66027,-0.00105\H,0,6.05566,0.7582,-0.0000
 1\H,0,4.25505,2.47731,0.00105\H,0,1.86536,1.782,0.00109\H,0,-1.65563,2
 .24309,-0.00109\\Version=ES64L-G16RevC.01\State=1-A\HF=-633.1882479\RM
 SD=2.441e-09\Dipole=0.4736218,-1.0251008,0.0004911\Quadrupole=2.238656
 5,2.9194563,-5.1581128,4.9017638,-0.0029039,0.001902\PG=C01 [X(C13H13N
 1O1)]\\@
 The archive entry for this job was punched.


 IF YOU GIVE A BOY AND A PIG EVERYTHING THEY WANT,
 YOU'LL GET A BAD BOY AND A GOOD PIG.
 Job cpu time:       0 days  1 hours 22 minutes 21.0 seconds.
 Elapsed time:       0 days  0 hours  5 minutes 22.6 seconds.
 File lengths (MBytes):  RWF=    183 Int=      0 D2E=      0 Chk=     27 Scr=      2
 Normal termination of Gaussian 16 at Fri Jul 12 13:30:58 2024.
