 Entering Gaussian System, Link 0=g16
 Input=SDI0017_1.com
 Output=SDI0017_1.log
 Initial command:
 /uufs/chpc.utah.edu/sys/installdir/gaussian16/C01/AVX/g16/l1.exe "/scratch/general/vast/u1414944/3119852-notchpeak.peaks/Gau-2116242.inp" -scrdir="/scratch/general/vast/u1414944/3119852-notchpeak.peaks/"
 Entering Link 1 = /uufs/chpc.utah.edu/sys/installdir/gaussian16/C01/AVX/g16/l1.exe PID=   2116243.
  
 Copyright (c) 1988-2019, Gaussian, Inc.  All Rights Reserved.
  
 This is part of the Gaussian(R) 16 program.  It is based on
 the Gaussian(R) 09 system (copyright 2009, Gaussian, Inc.),
 the Gaussian(R) 03 system (copyright 2003, Gaussian, Inc.),
 the Gaussian(R) 98 system (copyright 1998, Gaussian, Inc.),
 the Gaussian(R) 94 system (copyright 1995, Gaussian, Inc.),
 the Gaussian 92(TM) system (copyright 1992, Gaussian, Inc.),
 the Gaussian 90(TM) system (copyright 1990, Gaussian, Inc.),
 the Gaussian 88(TM) system (copyright 1988, Gaussian, Inc.),
 the Gaussian 86(TM) system (copyright 1986, Carnegie Mellon
 University), and the Gaussian 82(TM) system (copyright 1983,
 Carnegie Mellon University). Gaussian is a federally registered
 trademark of Gaussian, Inc.
  
 This software contains proprietary and confidential information,
 including trade secrets, belonging to Gaussian, Inc.
  
 This software is provided under written license and may be
 used, copied, transmitted, or stored only in accord with that
 written license.
  
 The following legend is applicable only to US Government
 contracts under FAR:
  
                    RESTRICTED RIGHTS LEGEND
  
 Use, reproduction and disclosure by the US Government is
 subject to restrictions as set forth in subparagraphs (a)
 and (c) of the Commercial Computer Software - Restricted
 Rights clause in FAR 52.227-19.
  
 Gaussian, Inc.
 340 Quinnipiac St., Bldg. 40, Wallingford CT 06492
  
  
 ---------------------------------------------------------------
 Warning -- This program may not be used in any manner that
 competes with the business of Gaussian, Inc. or will provide
 assistance to any competitor of Gaussian, Inc.  The licensee
 of this program is prohibited from giving any competitor of
 Gaussian, Inc. access to this program.  By using this program,
 the user acknowledges that Gaussian, Inc. is engaged in the
 business of creating and licensing software in the field of
 computational chemistry and represents and warrants to the
 licensee that it is not a competitor of Gaussian, Inc. and that
 it will not use this program in any manner prohibited above.
 ---------------------------------------------------------------
  

 Cite this work as:
 Gaussian 16, Revision C.01,
 M. J. Frisch, G. W. Trucks, H. B. Schlegel, G. E. Scuseria, 
 M. A. Robb, J. R. Cheeseman, G. Scalmani, V. Barone, 
 G. A. Petersson, H. Nakatsuji, X. Li, M. Caricato, A. V. Marenich, 
 J. Bloino, B. G. Janesko, R. Gomperts, B. Mennucci, H. P. Hratchian, 
 J. V. Ortiz, A. F. Izmaylov, J. L. Sonnenberg, D. Williams-Young, 
 F. Ding, F. Lipparini, F. Egidi, J. Goings, B. Peng, A. Petrone, 
 T. Henderson, D. Ranasinghe, V. G. Zakrzewski, J. Gao, N. Rega, 
 G. Zheng, W. Liang, M. Hada, M. Ehara, K. Toyota, R. Fukuda, 
 J. Hasegawa, M. Ishida, T. Nakajima, Y. Honda, O. Kitao, H. Nakai, 
 T. Vreven, K. Throssell, J. A. Montgomery, Jr., J. E. Peralta, 
 F. Ogliaro, M. J. Bearpark, J. J. Heyd, E. N. Brothers, K. N. Kudin, 
 V. N. Staroverov, T. A. Keith, R. Kobayashi, J. Normand, 
 K. Raghavachari, A. P. Rendell, J. C. Burant, S. S. Iyengar, 
 J. Tomasi, M. Cossi, J. M. Millam, M. Klene, C. Adamo, R. Cammi, 
 J. W. Ochterski, R. L. Martin, K. Morokuma, O. Farkas, 
 J. B. Foresman, and D. J. Fox, Gaussian, Inc., Wallingford CT, 2019.
 
 ******************************************
 Gaussian 16:  ES64L-G16RevC.01  3-Jul-2019
                10-Feb-2025 
 ******************************************
 %NProcShared=16
 Will use up to   16 processors via shared memory.
 %Mem=40GB
 %chk=SDI0017_1.chk
 ----------------------------------------------------------------------
 #N OPT FREQ=NORAMAN Integral(Ultrafine) pbe1pbe EmpiricalDispersion=GD
 3BJ def2SVP
 ----------------------------------------------------------------------
 1/18=20,19=15,26=4,38=1/1,3;
 2/9=110,12=2,17=6,18=5,40=1/2;
 3/5=43,7=101,11=2,25=1,30=1,71=1,74=-13,75=-5,124=41/1,2,3;
 4//1;
 5/5=2,38=5/2;
 6/7=2,8=2,9=2,10=2,28=1/1;
 7//1,2,3,16;
 1/18=20,19=15,26=4/3(2);
 2/9=110/2;
 99//99;
 2/9=110/2;
 3/5=43,7=101,11=2,25=1,30=1,71=1,74=-13,75=-5,124=41/1,2,3;
 4/5=5,16=3,69=1/1;
 5/5=2,38=5/2;
 7//1,2,3,16;
 1/18=20,19=15,26=4/3(-5);
 2/9=110/2;
 6/7=2,8=2,9=2,10=2,19=2,28=1/1;
 99/9=1/99;
 ---------
 SDI0017_1
 ---------
 Symbolic Z-matrix:
 Charge =  0 Multiplicity = 1
 N                    -2.8367    1.38045  -0.70634 
 S                    -2.27881   0.09484  -0.08927 
 C                    -0.45434   0.00635  -0.07174 
 C                     0.3322    1.13708  -0.02011 
 C                     1.71351   1.02574   0.00574 
 C                     2.30559  -0.2341   -0.02092 
 O                     3.643    -0.4635    0.00364 
 C                     4.52089   0.63668   0.04239 
 C                     1.49625  -1.37407  -0.07951 
 C                     0.12509  -1.25053  -0.10703 
 C                    -2.53792  -0.06499   1.72292 
 N                    -2.86323  -1.1933   -0.65489 
 H                    -2.43721   2.23076  -0.3456 
 H                    -0.12541   2.11557  -0.00705 
 H                     2.31153   1.92242   0.04329 
 H                     4.37629   1.23505   0.94754 
 H                     4.40473   1.27441  -0.83948 
 H                     5.52329   0.21192   0.04924 
 H                     1.97499  -2.33991  -0.1057 
 H                    -0.52126  -2.11242  -0.16792 
 H                    -2.24014  -1.06965   1.99165 
 H                    -1.93219   0.67298   2.23633 
 H                    -3.59117   0.08667   1.92676 
 H                    -3.26643  -1.08346  -1.56888 
 

 GradGradGradGradGradGradGradGradGradGradGradGradGradGradGradGradGradGrad
 Berny optimization.
 Initialization pass.
                           ----------------------------
                           !    Initial Parameters    !
                           ! (Angstroms and Degrees)  !
 --------------------------                            --------------------------
 ! Name  Definition              Value          Derivative Info.                !
 --------------------------------------------------------------------------------
 ! R1    R(1,2)                  1.5313         estimate D2E/DX2                !
 ! R2    R(1,13)                 1.0064         estimate D2E/DX2                !
 ! R3    R(2,3)                  1.8267         estimate D2E/DX2                !
 ! R4    R(2,11)                 1.8376         estimate D2E/DX2                !
 ! R5    R(2,12)                 1.5234         estimate D2E/DX2                !
 ! R6    R(3,4)                  1.3783         estimate D2E/DX2                !
 ! R7    R(3,10)                 1.3845         estimate D2E/DX2                !
 ! R8    R(4,5)                  1.386          estimate D2E/DX2                !
 ! R9    R(4,14)                 1.0803         estimate D2E/DX2                !
 ! R10   R(5,6)                  1.3923         estimate D2E/DX2                !
 ! R11   R(5,15)                 1.0785         estimate D2E/DX2                !
 ! R12   R(6,7)                  1.3572         estimate D2E/DX2                !
 ! R13   R(6,9)                  1.3993         estimate D2E/DX2                !
 ! R14   R(7,8)                  1.408          estimate D2E/DX2                !
 ! R15   R(8,16)                 1.0947         estimate D2E/DX2                !
 ! R16   R(8,17)                 1.0945         estimate D2E/DX2                !
 ! R17   R(8,18)                 1.0887         estimate D2E/DX2                !
 ! R18   R(9,10)                 1.377          estimate D2E/DX2                !
 ! R19   R(9,19)                 1.0783         estimate D2E/DX2                !
 ! R20   R(10,20)                1.079          estimate D2E/DX2                !
 ! R21   R(11,21)                1.0818         estimate D2E/DX2                !
 ! R22   R(11,22)                1.084          estimate D2E/DX2                !
 ! R23   R(11,23)                1.0835         estimate D2E/DX2                !
 ! R24   R(12,24)                1.005          estimate D2E/DX2                !
 ! A1    A(2,1,13)             114.8536         estimate D2E/DX2                !
 ! A2    A(1,2,3)              114.1059         estimate D2E/DX2                !
 ! A3    A(1,2,11)             114.7752         estimate D2E/DX2                !
 ! A4    A(1,2,12)             114.8672         estimate D2E/DX2                !
 ! A5    A(3,2,11)              97.3052         estimate D2E/DX2                !
 ! A6    A(3,2,12)             110.2285         estimate D2E/DX2                !
 ! A7    A(11,2,12)            103.7991         estimate D2E/DX2                !
 ! A8    A(2,3,4)              122.0433         estimate D2E/DX2                !
 ! A9    A(2,3,10)             117.4999         estimate D2E/DX2                !
 ! A10   A(4,3,10)             120.4564         estimate D2E/DX2                !
 ! A11   A(3,4,5)              120.2316         estimate D2E/DX2                !
 ! A12   A(3,4,14)             120.1181         estimate D2E/DX2                !
 ! A13   A(5,4,14)             119.6487         estimate D2E/DX2                !
 ! A14   A(4,5,6)              119.7442         estimate D2E/DX2                !
 ! A15   A(4,5,15)             119.1102         estimate D2E/DX2                !
 ! A16   A(6,5,15)             121.1453         estimate D2E/DX2                !
 ! A17   A(5,6,7)              124.8661         estimate D2E/DX2                !
 ! A18   A(5,6,9)              119.4735         estimate D2E/DX2                !
 ! A19   A(7,6,9)              115.6604         estimate D2E/DX2                !
 ! A20   A(6,7,8)              118.8711         estimate D2E/DX2                !
 ! A21   A(7,8,16)             111.5621         estimate D2E/DX2                !
 ! A22   A(7,8,17)             111.5271         estimate D2E/DX2                !
 ! A23   A(7,8,18)             105.6279         estimate D2E/DX2                !
 ! A24   A(16,8,17)            109.4948         estimate D2E/DX2                !
 ! A25   A(16,8,18)            109.2496         estimate D2E/DX2                !
 ! A26   A(17,8,18)            109.2763         estimate D2E/DX2                !
 ! A27   A(6,9,10)             120.2445         estimate D2E/DX2                !
 ! A28   A(6,9,19)             118.2903         estimate D2E/DX2                !
 ! A29   A(10,9,19)            121.4649         estimate D2E/DX2                !
 ! A30   A(3,10,9)             119.8476         estimate D2E/DX2                !
 ! A31   A(3,10,20)            118.4172         estimate D2E/DX2                !
 ! A32   A(9,10,20)            121.7311         estimate D2E/DX2                !
 ! A33   A(2,11,21)            106.6755         estimate D2E/DX2                !
 ! A34   A(2,11,22)            109.2126         estimate D2E/DX2                !
 ! A35   A(2,11,23)            108.0855         estimate D2E/DX2                !
 ! A36   A(21,11,22)           111.1473         estimate D2E/DX2                !
 ! A37   A(21,11,23)           110.5395         estimate D2E/DX2                !
 ! A38   A(22,11,23)           111.0268         estimate D2E/DX2                !
 ! A39   A(2,12,24)            113.5262         estimate D2E/DX2                !
 ! D1    D(13,1,2,3)           -50.1569         estimate D2E/DX2                !
 ! D2    D(13,1,2,11)           60.9394         estimate D2E/DX2                !
 ! D3    D(13,1,2,12)         -178.8313         estimate D2E/DX2                !
 ! D4    D(1,2,3,4)             28.1136         estimate D2E/DX2                !
 ! D5    D(1,2,3,10)          -152.1412         estimate D2E/DX2                !
 ! D6    D(11,2,3,4)           -93.2329         estimate D2E/DX2                !
 ! D7    D(11,2,3,10)           86.5123         estimate D2E/DX2                !
 ! D8    D(12,2,3,4)           159.0982         estimate D2E/DX2                !
 ! D9    D(12,2,3,10)          -21.1566         estimate D2E/DX2                !
 ! D10   D(1,2,11,21)          171.3437         estimate D2E/DX2                !
 ! D11   D(1,2,11,22)          -68.444          estimate D2E/DX2                !
 ! D12   D(1,2,11,23)           52.4546         estimate D2E/DX2                !
 ! D13   D(3,2,11,21)          -67.8142         estimate D2E/DX2                !
 ! D14   D(3,2,11,22)           52.3982         estimate D2E/DX2                !
 ! D15   D(3,2,11,23)          173.2967         estimate D2E/DX2                !
 ! D16   D(12,2,11,21)          45.1677         estimate D2E/DX2                !
 ! D17   D(12,2,11,22)         165.38           estimate D2E/DX2                !
 ! D18   D(12,2,11,23)         -73.7214         estimate D2E/DX2                !
 ! D19   D(1,2,12,24)           21.8205         estimate D2E/DX2                !
 ! D20   D(3,2,12,24)         -108.7621         estimate D2E/DX2                !
 ! D21   D(11,2,12,24)         147.9382         estimate D2E/DX2                !
 ! D22   D(2,3,4,5)            179.3188         estimate D2E/DX2                !
 ! D23   D(2,3,4,14)            -1.1394         estimate D2E/DX2                !
 ! D24   D(10,3,4,5)            -0.419          estimate D2E/DX2                !
 ! D25   D(10,3,4,14)          179.1228         estimate D2E/DX2                !
 ! D26   D(2,3,10,9)          -179.2214         estimate D2E/DX2                !
 ! D27   D(2,3,10,20)            1.5077         estimate D2E/DX2                !
 ! D28   D(4,3,10,9)             0.528          estimate D2E/DX2                !
 ! D29   D(4,3,10,20)         -178.7429         estimate D2E/DX2                !
 ! D30   D(3,4,5,6)              0.0137         estimate D2E/DX2                !
 ! D31   D(3,4,5,15)           179.8271         estimate D2E/DX2                !
 ! D32   D(14,4,5,6)          -179.5303         estimate D2E/DX2                !
 ! D33   D(14,4,5,15)            0.2831         estimate D2E/DX2                !
 ! D34   D(4,5,6,7)           -179.8292         estimate D2E/DX2                !
 ! D35   D(4,5,6,9)              0.2773         estimate D2E/DX2                !
 ! D36   D(15,5,6,7)             0.3613         estimate D2E/DX2                !
 ! D37   D(15,5,6,9)          -179.5323         estimate D2E/DX2                !
 ! D38   D(5,6,7,8)             -0.8321         estimate D2E/DX2                !
 ! D39   D(9,6,7,8)            179.0651         estimate D2E/DX2                !
 ! D40   D(5,6,9,10)            -0.1682         estimate D2E/DX2                !
 ! D41   D(5,6,9,19)           179.615          estimate D2E/DX2                !
 ! D42   D(7,6,9,10)           179.9287         estimate D2E/DX2                !
 ! D43   D(7,6,9,19)            -0.2881         estimate D2E/DX2                !
 ! D44   D(6,7,8,16)            61.785          estimate D2E/DX2                !
 ! D45   D(6,7,8,17)           -61.0086         estimate D2E/DX2                !
 ! D46   D(6,7,8,18)          -179.6184         estimate D2E/DX2                !
 ! D47   D(6,9,10,3)            -0.2322         estimate D2E/DX2                !
 ! D48   D(6,9,10,20)          179.0139         estimate D2E/DX2                !
 ! D49   D(19,9,10,3)          179.9916         estimate D2E/DX2                !
 ! D50   D(19,9,10,20)          -0.7623         estimate D2E/DX2                !
 --------------------------------------------------------------------------------
 Trust Radius=3.00D-01 FncErr=1.00D-07 GrdErr=1.00D-06 EigMax=2.50D+02 EigMin=1.00D-04
 Number of steps in this run=    123 maximum allowed number of steps=    144.
 GradGradGradGradGradGradGradGradGradGradGradGradGradGradGradGradGradGrad

                          Input orientation:                          
 ---------------------------------------------------------------------
 Center     Atomic      Atomic             Coordinates (Angstroms)
 Number     Number       Type             X           Y           Z
 ---------------------------------------------------------------------
      1          7           0       -2.836700    1.380450   -0.706342
      2         16           0       -2.278810    0.094840   -0.089271
      3          6           0       -0.454336    0.006350   -0.071736
      4          6           0        0.332197    1.137075   -0.020111
      5          6           0        1.713512    1.025744    0.005742
      6          6           0        2.305586   -0.234103   -0.020925
      7          8           0        3.642999   -0.463496    0.003642
      8          6           0        4.520887    0.636678    0.042386
      9          6           0        1.496246   -1.374074   -0.079505
     10          6           0        0.125094   -1.250531   -0.107025
     11          6           0       -2.537919   -0.064988    1.722918
     12          7           0       -2.863234   -1.193295   -0.654893
     13          1           0       -2.437213    2.230759   -0.345597
     14          1           0       -0.125406    2.115567   -0.007053
     15          1           0        2.311533    1.922423    0.043291
     16          1           0        4.376290    1.235052    0.947539
     17          1           0        4.404731    1.274414   -0.839480
     18          1           0        5.523292    0.211920    0.049242
     19          1           0        1.974987   -2.339915   -0.105699
     20          1           0       -0.521260   -2.112424   -0.167924
     21          1           0       -2.240139   -1.069647    1.991655
     22          1           0       -1.932194    0.672976    2.236330
     23          1           0       -3.591171    0.086667    1.926756
     24          1           0       -3.266433   -1.083463   -1.568875
 ---------------------------------------------------------------------
                    Distance matrix (angstroms):
                    1          2          3          4          5
     1  N    0.000000
     2  S    1.531278   0.000000
     3  C    2.822505   1.826702   0.000000
     4  C    3.251470   2.812187   1.378346   0.000000
     5  C    4.619233   4.100517   2.396817   1.386035   0.000000
     6  C    5.433203   4.596690   2.770843   2.402997   1.392292
     7  O    6.774269   5.948798   4.124875   3.677472   2.437368
     8  C    7.432892   6.822521   5.016292   4.218937   2.834444
     9  C    5.172500   4.050784   2.389645   2.768467   2.411140
    10  C    4.006679   2.754831   1.384463   2.398147   2.777988
    11  C    2.842511   1.837583   2.750853   3.566606   4.713073
    12  N    2.574397   1.523408   2.753545   4.005540   5.129052
    13  H    1.006356   2.157069   2.992456   2.995283   4.336360
    14  H    2.894913   2.954191   2.135691   1.080286   2.137638
    15  H    5.230678   4.942558   3.366689   2.130390   1.078458
    16  H    7.401601   6.831209   5.087591   4.159403   2.832169
    17  H    7.243432   6.828172   5.080153   4.156412   2.831766
    18  H    8.475013   7.804209   5.982385   5.273347   3.895976
    19  H    6.111810   4.901335   3.377532   3.846497   3.377639
    20  H    4.225083   2.822619   2.122013   3.362958   3.856484
    21  H    3.692973   2.384906   2.933333   3.941286   4.895494
    22  H    3.158793   2.421323   2.820571   3.230229   4.288489
    23  H    3.029242   2.405561   3.720235   4.504050   5.719424
    24  H    2.645657   2.133782   3.367047   4.503287   5.632763
                    6          7          8          9         10
     6  C    0.000000
     7  O    1.357166   0.000000
     8  C    2.381140   1.408037   0.000000
     9  C    1.399284   2.333370   3.634066   0.000000
    10  C    2.407298   3.606568   4.786113   1.376981   0.000000
    11  C    5.150644   6.427945   7.289943   4.608354   3.441780
    12  N    5.295155   6.580072   7.639387   4.401002   3.038674
    13  H    5.354914   6.659577   7.148901   5.342072   4.329171
    14  H    3.380956   4.566460   4.876227   3.848714   3.376887
    15  H    2.157490   2.732578   2.556244   3.398038   3.856261
    16  H    2.717381   2.076950   1.094652   4.019579   5.036159
    17  H    2.711470   2.076396   1.094481   4.006413   5.022662
    18  H    3.249229   1.998441   1.088706   4.330018   5.594973
    19  H    2.133289   2.513000   3.919648   1.078298   2.146826
    20  H    3.397169   4.482127   5.746742   2.150189   1.079047
    21  H    5.041054   6.239466   7.240350   4.282867   3.167255
    22  H    4.886386   6.112221   6.815934   4.616027   3.663827
    23  H    6.218367   7.505616   8.346187   5.660447   4.442408
    24  H    5.845080   7.113187   8.136178   4.998579   3.696941
                   11         12         13         14         15
    11  C    0.000000
    12  N    2.651960   0.000000
    13  H    3.091820   3.464290   0.000000
    14  H    3.683455   4.343267   2.339302   0.000000
    15  H    5.503466   6.080573   4.774609   2.445099   0.000000
    16  H    7.077967   7.802267   7.006244   4.685277   2.356558
    17  H    7.520657   7.677694   6.926090   4.682159   2.362346
    18  H    8.237779   8.532541   8.221998   5.961110   3.638853
    19  H    5.374519   5.002472   6.357367   4.926733   4.278198
    20  H    3.440086   2.562572   4.750335   4.249529   4.934503
    21  H    1.081773   2.721718   4.048983   4.314223   5.785008
    22  H    1.084014   3.564965   3.057463   3.221540   4.937586
    23  H    1.083461   2.972055   3.330516   4.457306   6.462147
    24  H    3.521921   1.004986   3.628785   4.747540   6.538205
                   16         17         18         19         20
    16  H    0.000000
    17  H    1.787679   0.000000
    18  H    1.780267   1.780421   0.000000
    19  H    4.433504   4.416499   4.373367   0.000000
    20  H    6.036212   6.015568   6.479688   2.507364   0.000000
    21  H    7.083710   7.593698   8.104705   4.876450   2.950544
    22  H    6.463272   7.069580   7.783328   5.461563   3.940765
    23  H    8.109136   8.543843   9.306674   6.403225   4.318338
    24  H    8.373713   8.058434   9.030813   5.584983   3.249215
                   21         22         23         24
    21  H    0.000000
    22  H    1.786458   0.000000
    23  H    1.779483   1.786560   0.000000
    24  H    3.705515   4.398279   3.700554   0.000000
 Stoichiometry    C8H12N2OS
 Framework group  C1[X(C8H12N2OS)]
 Deg. of freedom    66
 Full point group                 C1      NOp   1
 Largest Abelian subgroup         C1      NOp   1
 Largest concise Abelian subgroup C1      NOp   1
                         Standard orientation:                         
 ---------------------------------------------------------------------
 Center     Atomic      Atomic             Coordinates (Angstroms)
 Number     Number       Type             X           Y           Z
 ---------------------------------------------------------------------
      1          7           0        2.839960   -1.384715   -0.766183
      2         16           0        2.300118   -0.101311   -0.128800
      3          6           0        0.476847    0.005777   -0.096286
      4          6           0       -0.321014   -1.117331   -0.052878
      5          6           0       -1.700862   -0.992083   -0.015128
      6          6           0       -2.279964    0.274045   -0.021479
      7          8           0       -3.614694    0.516901    0.016133
      8          6           0       -4.503680   -0.574554    0.047739
      9          6           0       -1.459253    1.406250   -0.071898
     10          6           0       -0.089707    1.268918   -0.111391
     11          6           0        2.574412    0.032935    1.683229
     12          7           0        2.893685    1.187764   -0.682637
     13          1           0        2.434344   -2.235344   -0.413111
     14          1           0        0.126456   -2.100581   -0.055581
     15          1           0       -2.307894   -1.882944    0.015709
     16          1           0       -4.358565   -1.185773    0.944185
     17          1           0       -4.400767   -1.202268   -0.842920
     18          1           0       -5.501527   -0.139593    0.067547
     19          1           0       -1.928090    2.377234   -0.082327
     20          1           0        0.565118    2.124794   -0.166379
     21          1           0        2.289130    1.037140    1.966811
     22          1           0        1.964886   -0.705163    2.191929
     23          1           0        3.627520   -0.132146    1.877135
     24          1           0        3.288878    1.085327   -1.600965
 ---------------------------------------------------------------------
 Rotational constants (GHZ):           2.2869271           0.4068439           0.3797702
 Standard basis: def2SVP (5D, 7F)
 There are   244 symmetry adapted cartesian basis functions of A   symmetry.
 There are   232 symmetry adapted basis functions of A   symmetry.
   232 basis functions,   396 primitive gaussians,   244 cartesian basis functions
    49 alpha electrons       49 beta electrons
       nuclear repulsion energy       812.8112040195 Hartrees.
 NAtoms=   24 NActive=   24 NUniq=   24 SFac= 1.00D+00 NAtFMM=   60 NAOKFM=F Big=F
 Integral buffers will be    131072 words long.
 Raffenetti 2 integral format.
 Two-electron integral symmetry is turned on.
 Nuclear repulsion after empirical dispersion term =      812.7858235632 Hartrees.
 One-electron integrals computed using PRISM.
   1 Symmetry operations used in ECPInt.
 ECPInt:  NShTT=    6105 NPrTT=   22357 LenC2=    5760 LenP2D=   15783.
 LDataN:  DoStor=T MaxTD1= 4 Len=   56
 NBasis=   232 RedAO= T EigKep=  2.35D-04  NBF=   232
 NBsUse=   232 1.00D-06 EigRej= -1.00D+00 NBFU=   232
 ExpMin= 1.22D-01 ExpMax= 9.18D+03 ExpMxC= 1.38D+03 IAcc=3 IRadAn=         5 AccDes= 0.00D+00
 Harris functional with IExCor= 1009 and IRadAn=       5 diagonalized for initial guess.
 HarFok:  IExCor= 1009 AccDes= 0.00D+00 IRadAn=         5 IDoV= 1 UseB2=F ITyADJ=14
 ICtDFT=  3500011 ScaDFX=  1.000000  1.000000  1.000000  1.000000
 FoFCou: FMM=F IPFlag=           0 FMFlag=      100000 FMFlg1=           0
         NFxFlg=           0 DoJE=T BraDBF=F KetDBF=T FulRan=T
         wScrn=  0.000000 ICntrl=       500 IOpCl=  0 I1Cent=   200000004 NGrid=           0
         NMat0=    1 NMatS0=      1 NMatT0=    0 NMatD0=    1 NMtDS0=    0 NMtDT0=    0
 Petite list used in FoFCou.
 Requested convergence on RMS density matrix=1.00D-08 within 128 cycles.
 Requested convergence on MAX density matrix=1.00D-06.
 Requested convergence on             energy=1.00D-06.
 No special actions if energy rises.
 Integral accuracy reduced to 1.0D-05 until final iterations.
 Initial convergence to 1.0D-05 achieved.  Increase integral accuracy.
 SCF Done:  E(RPBE1PBE) =  -893.661073982     A.U. after   14 cycles
            NFock= 14  Conv=0.82D-08     -V/T= 2.0061

 **********************************************************************

            Population analysis using the SCF Density.

 **********************************************************************

 Orbital symmetries:
       Occupied  (A) (A) (A) (A) (A) (A) (A) (A) (A) (A) (A) (A)
                 (A) (A) (A) (A) (A) (A) (A) (A) (A) (A) (A) (A)
                 (A) (A) (A) (A) (A) (A) (A) (A) (A) (A) (A) (A)
                 (A) (A) (A) (A) (A) (A) (A) (A) (A) (A) (A) (A)
                 (A)
       Virtual   (A) (A) (A) (A) (A) (A) (A) (A) (A) (A) (A) (A)
                 (A) (A) (A) (A) (A) (A) (A) (A) (A) (A) (A) (A)
                 (A) (A) (A) (A) (A) (A) (A) (A) (A) (A) (A) (A)
                 (A) (A) (A) (A) (A) (A) (A) (A) (A) (A) (A) (A)
                 (A) (A) (A) (A) (A) (A) (A) (A) (A) (A) (A) (A)
                 (A) (A) (A) (A) (A) (A) (A) (A) (A) (A) (A) (A)
                 (A) (A) (A) (A) (A) (A) (A) (A) (A) (A) (A) (A)
                 (A) (A) (A) (A) (A) (A) (A) (A) (A) (A) (A) (A)
                 (A) (A) (A) (A) (A) (A) (A) (A) (A) (A) (A) (A)
                 (A) (A) (A) (A) (A) (A) (A) (A) (A) (A) (A) (A)
                 (A) (A) (A) (A) (A) (A) (A) (A) (A) (A) (A) (A)
                 (A) (A) (A) (A) (A) (A) (A) (A) (A) (A) (A) (A)
                 (A) (A) (A) (A) (A) (A) (A) (A) (A) (A) (A) (A)
                 (A) (A) (A) (A) (A) (A) (A) (A) (A) (A) (A) (A)
                 (A) (A) (A) (A) (A) (A) (A) (A) (A) (A) (A) (A)
                 (A) (A) (A)
 The electronic state is 1-A.
 Alpha  occ. eigenvalues --  -89.17695 -19.25685 -14.34226 -14.33004 -10.31221
 Alpha  occ. eigenvalues --  -10.29928 -10.26055 -10.25456 -10.25382 -10.25151
 Alpha  occ. eigenvalues --  -10.25061 -10.24458  -8.15133  -6.09261  -6.09164
 Alpha  occ. eigenvalues --   -6.09145  -1.10344  -1.00152  -0.89499  -0.84561
 Alpha  occ. eigenvalues --   -0.79785  -0.78500  -0.75959  -0.72808  -0.65438
 Alpha  occ. eigenvalues --   -0.63915  -0.60245  -0.57183  -0.53243  -0.52599
 Alpha  occ. eigenvalues --   -0.50944  -0.50119  -0.47534  -0.47275  -0.45749
 Alpha  occ. eigenvalues --   -0.44974  -0.44297  -0.43658  -0.42057  -0.40868
 Alpha  occ. eigenvalues --   -0.38848  -0.35456  -0.35391  -0.30278  -0.28663
 Alpha  occ. eigenvalues --   -0.27632  -0.25491  -0.24543  -0.23920
 Alpha virt. eigenvalues --   -0.02234  -0.01458   0.05381   0.06875   0.07516
 Alpha virt. eigenvalues --    0.09035   0.09400   0.10435   0.11081   0.12108
 Alpha virt. eigenvalues --    0.12567   0.13378   0.13456   0.13762   0.14471
 Alpha virt. eigenvalues --    0.16103   0.17027   0.18092   0.18577   0.21676
 Alpha virt. eigenvalues --    0.24751   0.27747   0.30237   0.31267   0.33240
 Alpha virt. eigenvalues --    0.33745   0.39652   0.40762   0.41612   0.42281
 Alpha virt. eigenvalues --    0.43985   0.45020   0.45531   0.47212   0.47829
 Alpha virt. eigenvalues --    0.49011   0.49691   0.51080   0.52670   0.54029
 Alpha virt. eigenvalues --    0.55389   0.57377   0.58413   0.60519   0.62722
 Alpha virt. eigenvalues --    0.63350   0.63998   0.65252   0.65673   0.66338
 Alpha virt. eigenvalues --    0.66986   0.67133   0.67269   0.67904   0.68321
 Alpha virt. eigenvalues --    0.69548   0.70197   0.70731   0.71833   0.72594
 Alpha virt. eigenvalues --    0.73427   0.75749   0.75833   0.77871   0.79617
 Alpha virt. eigenvalues --    0.81643   0.82671   0.84283   0.84902   0.86250
 Alpha virt. eigenvalues --    0.87941   0.89061   0.92391   0.95900   0.97239
 Alpha virt. eigenvalues --    0.99674   1.00546   1.02030   1.03669   1.06646
 Alpha virt. eigenvalues --    1.08263   1.10526   1.12975   1.14833   1.15079
 Alpha virt. eigenvalues --    1.18652   1.20373   1.22566   1.23757   1.24559
 Alpha virt. eigenvalues --    1.25660   1.27010   1.29333   1.30684   1.31648
 Alpha virt. eigenvalues --    1.36885   1.45600   1.46488   1.47758   1.48946
 Alpha virt. eigenvalues --    1.49797   1.50993   1.52415   1.53840   1.55698
 Alpha virt. eigenvalues --    1.63523   1.68165   1.69502   1.69963   1.70560
 Alpha virt. eigenvalues --    1.72202   1.74169   1.75521   1.75899   1.76882
 Alpha virt. eigenvalues --    1.77696   1.78599   1.79232   1.80142   1.82805
 Alpha virt. eigenvalues --    1.84866   1.85199   1.88792   1.90706   1.91513
 Alpha virt. eigenvalues --    1.92772   1.95390   1.97913   1.98730   2.01145
 Alpha virt. eigenvalues --    2.01575   2.09203   2.11987   2.13620   2.16157
 Alpha virt. eigenvalues --    2.16250   2.18053   2.19380   2.20144   2.21876
 Alpha virt. eigenvalues --    2.27297   2.27577   2.30302   2.31972   2.33013
 Alpha virt. eigenvalues --    2.35983   2.36605   2.38009   2.41167   2.43340
 Alpha virt. eigenvalues --    2.44022   2.45213   2.47768   2.52089   2.58802
 Alpha virt. eigenvalues --    2.60419   2.63834   2.64269   2.64705   2.65682
 Alpha virt. eigenvalues --    2.66942   2.68621   2.74381   2.77065   2.81271
 Alpha virt. eigenvalues --    2.83753   2.86713   2.88564   2.88813   2.90543
 Alpha virt. eigenvalues --    2.92033   2.94771   2.96022   2.98534   3.01375
 Alpha virt. eigenvalues --    3.08876   3.12813   3.21277   3.27117   3.32941
 Alpha virt. eigenvalues --    3.40492   3.50141   3.71833
          Condensed to atoms (all electrons):
               1          2          3          4          5          6
     1  N    6.898628   0.343478  -0.046080  -0.001428   0.000574  -0.000030
     2  S    0.343478  14.585266   0.079570  -0.022236   0.002050   0.000663
     3  C   -0.046080   0.079570   6.018030   0.193189   0.088403  -0.206935
     4  C   -0.001428  -0.022236   0.193189   5.123436   0.252107   0.130428
     5  C    0.000574   0.002050   0.088403   0.252107   5.315440   0.164690
     6  C   -0.000030   0.000663  -0.206935   0.130428   0.164690   5.112021
     7  O   -0.000000   0.000001   0.000039   0.005321  -0.081477   0.396777
     8  C    0.000000  -0.000000   0.000094   0.000669  -0.000297  -0.059502
     9  C   -0.000002   0.001077   0.111526  -0.122919   0.036303   0.238050
    10  C    0.004551  -0.044768   0.209417   0.050063  -0.119367   0.139445
    11  C   -0.046652   0.278911  -0.127782  -0.005361  -0.000599  -0.000115
    12  N   -0.066139   0.379674  -0.084042   0.004725   0.000033  -0.000082
    13  H    0.316180  -0.002854  -0.010372   0.006973   0.000939   0.000013
    14  H    0.007305  -0.001930  -0.091271   0.426193  -0.039531   0.013943
    15  H   -0.000001  -0.000110   0.018811  -0.060378   0.460166  -0.091850
    16  H   -0.000000   0.000000  -0.000081   0.000377   0.006374  -0.007891
    17  H    0.000000   0.000000  -0.000066   0.000204   0.006249  -0.007602
    18  H    0.000000  -0.000000   0.000006  -0.000025   0.000189   0.005131
    19  H    0.000001  -0.000112   0.017695  -0.003096   0.019920  -0.076566
    20  H    0.000726  -0.009740  -0.076030   0.014109  -0.002076   0.013915
    21  H    0.003347  -0.004918   0.001644  -0.000060  -0.000010  -0.000006
    22  H    0.000739  -0.015536   0.008316   0.002292   0.000442  -0.000002
    23  H    0.004883  -0.006375   0.008476  -0.000060  -0.000011   0.000004
    24  H    0.004651  -0.016308   0.004030  -0.000191  -0.000034   0.000008
               7          8          9         10         11         12
     1  N   -0.000000   0.000000  -0.000002   0.004551  -0.046652  -0.066139
     2  S    0.000001  -0.000000   0.001077  -0.044768   0.278911   0.379674
     3  C    0.000039   0.000094   0.111526   0.209417  -0.127782  -0.084042
     4  C    0.005321   0.000669  -0.122919   0.050063  -0.005361   0.004725
     5  C   -0.081477  -0.000297   0.036303  -0.119367  -0.000599   0.000033
     6  C    0.396777  -0.059502   0.238050   0.139445  -0.000115  -0.000082
     7  O    7.888336   0.297439  -0.077633   0.003641  -0.000000  -0.000000
     8  C    0.297439   4.428378   0.007445  -0.000280  -0.000000   0.000000
     9  C   -0.077633   0.007445   5.195921   0.229537  -0.000786   0.002190
    10  C    0.003641  -0.000280   0.229537   5.129796  -0.004767   0.002535
    11  C   -0.000000  -0.000000  -0.000786  -0.004767   4.981112  -0.088638
    12  N   -0.000000   0.000000   0.002190   0.002535  -0.088638   6.905577
    13  H   -0.000000   0.000000  -0.000037  -0.001046  -0.003615   0.004492
    14  H   -0.000087  -0.000023  -0.001896   0.014564   0.001288   0.000207
    15  H   -0.007785   0.008886   0.013239  -0.002352   0.000021   0.000001
    16  H   -0.029064   0.399654  -0.000240   0.000042   0.000000  -0.000000
    17  H   -0.028948   0.400619  -0.000143   0.000029  -0.000000   0.000000
    18  H   -0.023572   0.401080  -0.000084   0.000006   0.000000   0.000000
    19  H    0.002583  -0.000342   0.452452  -0.075300   0.000021  -0.000002
    20  H   -0.000063   0.000007  -0.057340   0.447795   0.000464   0.029445
    21  H   -0.000000   0.000000   0.000500   0.002412   0.357619   0.005731
    22  H   -0.000000   0.000000  -0.000003  -0.000765   0.351085   0.006085
    23  H    0.000000  -0.000000   0.000006   0.000097   0.359233   0.003641
    24  H    0.000000  -0.000000  -0.000124  -0.000786   0.006762   0.336769
              13         14         15         16         17         18
     1  N    0.316180   0.007305  -0.000001  -0.000000   0.000000   0.000000
     2  S   -0.002854  -0.001930  -0.000110   0.000000   0.000000  -0.000000
     3  C   -0.010372  -0.091271   0.018811  -0.000081  -0.000066   0.000006
     4  C    0.006973   0.426193  -0.060378   0.000377   0.000204  -0.000025
     5  C    0.000939  -0.039531   0.460166   0.006374   0.006249   0.000189
     6  C    0.000013   0.013943  -0.091850  -0.007891  -0.007602   0.005131
     7  O   -0.000000  -0.000087  -0.007785  -0.029064  -0.028948  -0.023572
     8  C    0.000000  -0.000023   0.008886   0.399654   0.400619   0.401080
     9  C   -0.000037  -0.001896   0.013239  -0.000240  -0.000143  -0.000084
    10  C   -0.001046   0.014564  -0.002352   0.000042   0.000029   0.000006
    11  C   -0.003615   0.001288   0.000021   0.000000  -0.000000   0.000000
    12  N    0.004492   0.000207   0.000001  -0.000000   0.000000   0.000000
    13  H    0.571938   0.003860  -0.000008   0.000000   0.000000   0.000000
    14  H    0.003860   0.682745  -0.014312   0.000016   0.000029  -0.000000
    15  H   -0.000008  -0.014312   0.668260   0.000765   0.000785  -0.000282
    16  H    0.000000   0.000016   0.000765   0.650157  -0.044229  -0.023279
    17  H    0.000000   0.000029   0.000785  -0.044229   0.646271  -0.022781
    18  H    0.000000  -0.000000  -0.000282  -0.023279  -0.022781   0.599731
    19  H    0.000000   0.000046  -0.000205   0.000091   0.000093  -0.000136
    20  H   -0.000124  -0.000248   0.000020  -0.000000  -0.000000  -0.000000
    21  H   -0.000055  -0.000147   0.000000  -0.000000   0.000000  -0.000000
    22  H    0.001127   0.000397  -0.000016   0.000000  -0.000000  -0.000000
    23  H   -0.000163  -0.000177  -0.000001  -0.000000   0.000000  -0.000000
    24  H   -0.000221  -0.000032  -0.000000   0.000000  -0.000000  -0.000000
              19         20         21         22         23         24
     1  N    0.000001   0.000726   0.003347   0.000739   0.004883   0.004651
     2  S   -0.000112  -0.009740  -0.004918  -0.015536  -0.006375  -0.016308
     3  C    0.017695  -0.076030   0.001644   0.008316   0.008476   0.004030
     4  C   -0.003096   0.014109  -0.000060   0.002292  -0.000060  -0.000191
     5  C    0.019920  -0.002076  -0.000010   0.000442  -0.000011  -0.000034
     6  C   -0.076566   0.013915  -0.000006  -0.000002   0.000004   0.000008
     7  O    0.002583  -0.000063  -0.000000  -0.000000   0.000000   0.000000
     8  C   -0.000342   0.000007   0.000000   0.000000  -0.000000  -0.000000
     9  C    0.452452  -0.057340   0.000500  -0.000003   0.000006  -0.000124
    10  C   -0.075300   0.447795   0.002412  -0.000765   0.000097  -0.000786
    11  C    0.000021   0.000464   0.357619   0.351085   0.359233   0.006762
    12  N   -0.000002   0.029445   0.005731   0.006085   0.003641   0.336769
    13  H    0.000000  -0.000124  -0.000055   0.001127  -0.000163  -0.000221
    14  H    0.000046  -0.000248  -0.000147   0.000397  -0.000177  -0.000032
    15  H   -0.000205   0.000020   0.000000  -0.000016  -0.000001  -0.000000
    16  H    0.000091  -0.000000  -0.000000   0.000000  -0.000000   0.000000
    17  H    0.000093  -0.000000   0.000000  -0.000000   0.000000  -0.000000
    18  H   -0.000136  -0.000000  -0.000000  -0.000000  -0.000000  -0.000000
    19  H    0.655032  -0.011633  -0.000012  -0.000001  -0.000001  -0.000000
    20  H   -0.011633   0.614404   0.001236  -0.000003  -0.000107  -0.000661
    21  H   -0.000012   0.001236   0.572720  -0.012934  -0.006737  -0.000693
    22  H   -0.000001  -0.000003  -0.012934   0.609956  -0.011145  -0.000373
    23  H   -0.000001  -0.000107  -0.006737  -0.011145   0.559329  -0.000117
    24  H   -0.000000  -0.000661  -0.000693  -0.000373  -0.000117   0.534099
 Mulliken charges:
               1
     1  N   -0.424730
     2  S    0.454197
     3  C   -0.116588
     4  C    0.005667
     5  C   -0.110476
     6  C    0.235493
     7  O   -0.345509
     8  C    0.116173
     9  C   -0.027039
    10  C    0.015502
    11  C   -0.058202
    12  N   -0.442202
    13  H    0.112973
    14  H   -0.000938
    15  H    0.006343
    16  H    0.047308
    17  H    0.049490
    18  H    0.064016
    19  H    0.019469
    20  H    0.035903
    21  H    0.080362
    22  H    0.060339
    23  H    0.089226
    24  H    0.133221
 Sum of Mulliken charges =  -0.00000
 Mulliken charges with hydrogens summed into heavy atoms:
               1
     1  N   -0.311757
     2  S    0.454197
     3  C   -0.116588
     4  C    0.004729
     5  C   -0.104133
     6  C    0.235493
     7  O   -0.345509
     8  C    0.276987
     9  C   -0.007569
    10  C    0.051405
    11  C    0.171725
    12  N   -0.308981
 Electronic spatial extent (au):  <R**2>=           2956.3076
 Charge=              0.0000 electrons
 Dipole moment (field-independent basis, Debye):
    X=             -4.2417    Y=             -2.1440    Z=              2.3036  Tot=              5.2816
 Quadrupole moment (field-independent basis, Debye-Ang):
   XX=            -78.5199   YY=            -76.3558   ZZ=            -78.7664
   XY=              3.9170   XZ=              6.0408   YZ=             -2.4666
 Traceless Quadrupole moment (field-independent basis, Debye-Ang):
   XX=             -0.6392   YY=              1.5249   ZZ=             -0.8857
   XY=              3.9170   XZ=              6.0408   YZ=             -2.4666
 Octapole moment (field-independent basis, Debye-Ang**2):
  XXX=            -99.4398  YYY=             -9.7935  ZZZ=              0.6906  XYY=            -15.5797
  XXY=            -20.3669  XXZ=             16.9141  XZZ=              8.6691  YZZ=              5.0501
  YYZ=              3.4381  XYZ=             -8.1200
 Hexadecapole moment (field-independent basis, Debye-Ang**3):
 XXXX=          -2869.8809 YYYY=           -471.1932 ZZZZ=           -271.9060 XXXY=             99.9130
 XXXZ=             39.8196 YYYX=            -35.3441 YYYZ=             -0.1614 ZZZX=             -5.5668
 ZZZY=            -10.5606 XXYY=           -629.4698 XXZZ=           -533.4303 YYZZ=           -136.1518
 XXYZ=            -31.9298 YYXZ=              9.3498 ZZXY=             19.2928
 N-N= 8.127858235632D+02 E-N=-3.722899085812D+03  KE= 8.882648585393D+02
   1 Symmetry operations used in ECPInt.
 ECPInt:  NShTT=    6105 NPrTT=   22357 LenC2=    5760 LenP2D=   15783.
 LDataN:  DoStor=T MaxTD1= 5 Len=  102
 Calling FoFJK, ICntrl=      2127 FMM=F ISym2X=0 I1Cent= 0 IOpClX= 0 NMat=1 NMatS=1 NMatT=0.
 ***** Axes restored to original set *****
 -------------------------------------------------------------------
 Center     Atomic                   Forces (Hartrees/Bohr)
 Number     Number              X              Y              Z
 -------------------------------------------------------------------
      1        7          -0.002972247    0.000557832   -0.005437602
      2       16          -0.004416340   -0.002126336    0.009481610
      3        6          -0.012779168    0.002902281   -0.001179240
      4        6          -0.001395157    0.000654001    0.000200129
      5        6           0.003088647    0.000619165    0.000293483
      6        6           0.013479171   -0.006432648    0.000230918
      7        8          -0.008791945    0.005276860   -0.000249191
      8        6          -0.006728384   -0.009250384   -0.000235052
      9        6           0.002071512    0.003506233    0.000423610
     10        6           0.001493204   -0.001696979   -0.000295003
     11        6           0.004333809    0.001732518   -0.017086466
     12        7           0.002056728   -0.016948753    0.016292548
     13        1           0.006117823    0.009829574    0.005480130
     14        1          -0.003288086    0.008922780   -0.000445588
     15        1           0.005268243    0.007024789    0.000162472
     16        1          -0.000515790    0.003768328    0.004685410
     17        1          -0.000370001    0.004008290   -0.004560524
     18        1           0.005941019   -0.000725197    0.000085631
     19        1           0.004397349   -0.008552100   -0.000377668
     20        1          -0.005584091   -0.008776422   -0.001263609
     21        1           0.003578016   -0.009651577    0.003337232
     22        1           0.005957791    0.007035089    0.003830547
     23        1          -0.010528788    0.001455055   -0.002266670
     24        1          -0.000413314    0.006867601   -0.011107108
 -------------------------------------------------------------------
 Cartesian Forces:  Max     0.017086466 RMS     0.006279494

 GradGradGradGradGradGradGradGradGradGradGradGradGradGradGradGradGradGrad
 Berny optimization.
 FormGI is forming the generalized inverse of G from B-inverse, IUseBI=4.
 Internal  Forces:  Max     0.012697709 RMS     0.004646627
 Search for a local minimum.
 Step number   1 out of a maximum of  123
 All quantities printed in internal units (Hartrees-Bohrs-Radians)
 Mixed Optimization -- RFO/linear search
 Second derivative matrix not updated -- first step.
 ITU=  0
     Eigenvalues ---    0.00230   0.00230   0.01497   0.01585   0.02153
     Eigenvalues ---    0.02193   0.02230   0.02253   0.02258   0.02296
     Eigenvalues ---    0.02318   0.02338   0.02355   0.03528   0.03632
     Eigenvalues ---    0.05858   0.06113   0.07019   0.07506   0.09544
     Eigenvalues ---    0.10083   0.10736   0.15985   0.15999   0.16000
     Eigenvalues ---    0.16000   0.16000   0.16000   0.16000   0.16000
     Eigenvalues ---    0.16000   0.16000   0.16000   0.16000   0.16000
     Eigenvalues ---    0.19472   0.22000   0.22978   0.23366   0.24000
     Eigenvalues ---    0.24121   0.25000   0.25000   0.25000   0.34281
     Eigenvalues ---    0.34300   0.34963   0.35514   0.35579   0.35781
     Eigenvalues ---    0.35960   0.36110   0.36181   0.36201   0.42932
     Eigenvalues ---    0.43490   0.44314   0.46588   0.46822   0.46892
     Eigenvalues ---    0.47756   0.48684   0.49331   0.53525   0.67185
     Eigenvalues ---    0.69419
 RFO step:  Lambda=-8.18170225D-03 EMin= 2.30000000D-03
 Linear search not attempted -- first point.
 Iteration  1 RMS(Cart)=  0.04598425 RMS(Int)=  0.00099099
 Iteration  2 RMS(Cart)=  0.00126385 RMS(Int)=  0.00010393
 Iteration  3 RMS(Cart)=  0.00000124 RMS(Int)=  0.00010392
 Iteration  4 RMS(Cart)=  0.00000000 RMS(Int)=  0.00010392
 Variable       Old X    -DE/DX   Delta X   Delta X   Delta X     New X
                                 (Linear)    (Quad)   (Total)
    R1        2.89370   0.00756   0.00000   0.01111   0.01111   2.90481
    R2        1.90174   0.01270   0.00000   0.02678   0.02678   1.92852
    R3        3.45197  -0.00379   0.00000  -0.01521  -0.01521   3.43675
    R4        3.47253  -0.01254   0.00000  -0.05184  -0.05184   3.42069
    R5        2.87882   0.00597   0.00000   0.00850   0.00850   2.88732
    R6        2.60470   0.01004   0.00000   0.02047   0.02048   2.62517
    R7        2.61626   0.01205   0.00000   0.02503   0.02504   2.64129
    R8        2.61923   0.00886   0.00000   0.01813   0.01813   2.63736
    R9        2.04144   0.00947   0.00000   0.02575   0.02575   2.06719
   R10        2.63105   0.00736   0.00000   0.01490   0.01489   2.64595
   R11        2.03799   0.00877   0.00000   0.02370   0.02370   2.06169
   R12        2.56467  -0.01084   0.00000  -0.01995  -0.01995   2.54473
   R13        2.64426   0.00516   0.00000   0.01056   0.01055   2.65481
   R14        2.66081  -0.00276   0.00000  -0.00612  -0.00612   2.65469
   R15        2.06859   0.00600   0.00000   0.01710   0.01710   2.08569
   R16        2.06827   0.00605   0.00000   0.01723   0.01723   2.08550
   R17        2.05736   0.00575   0.00000   0.01608   0.01608   2.07344
   R18        2.60212   0.00899   0.00000   0.01782   0.01782   2.61994
   R19        2.03769   0.00962   0.00000   0.02599   0.02599   2.06368
   R20        2.03910   0.01043   0.00000   0.02823   0.02823   2.06734
   R21        2.04425   0.01078   0.00000   0.02945   0.02945   2.07370
   R22        2.04849   0.00993   0.00000   0.02734   0.02734   2.07583
   R23        2.04744   0.01001   0.00000   0.02751   0.02751   2.07495
   R24        1.89915   0.01102   0.00000   0.02313   0.02313   1.92227
    A1        2.00457  -0.00319   0.00000  -0.01897  -0.01897   1.98561
    A2        1.99152  -0.00579   0.00000  -0.04293  -0.04296   1.94856
    A3        2.00321  -0.00215   0.00000  -0.01262  -0.01305   1.99016
    A4        2.00481   0.00722   0.00000   0.05509   0.05520   2.06001
    A5        1.69830   0.00485   0.00000   0.00905   0.00873   1.70703
    A6        1.92385  -0.00148   0.00000  -0.00751  -0.00727   1.91658
    A7        1.81164  -0.00306   0.00000  -0.00663  -0.00668   1.80496
    A8        2.13006  -0.00276   0.00000  -0.01173  -0.01179   2.11827
    A9        2.05076   0.00255   0.00000   0.00884   0.00878   2.05954
   A10        2.10236   0.00021   0.00000   0.00297   0.00293   2.10529
   A11        2.09844  -0.00078   0.00000  -0.00210  -0.00210   2.09634
   A12        2.09646   0.00119   0.00000   0.00578   0.00576   2.10222
   A13        2.08826  -0.00041   0.00000  -0.00372  -0.00373   2.08453
   A14        2.08993  -0.00073   0.00000  -0.00408  -0.00408   2.08585
   A15        2.07887   0.00086   0.00000   0.00497   0.00496   2.08383
   A16        2.11438  -0.00013   0.00000  -0.00091  -0.00092   2.11347
   A17        2.17932  -0.00421   0.00000  -0.01544  -0.01545   2.16388
   A18        2.08521   0.00281   0.00000   0.00919   0.00918   2.09439
   A19        2.01865   0.00139   0.00000   0.00624   0.00623   2.02489
   A20        2.07469  -0.00235   0.00000  -0.00912  -0.00912   2.06558
   A21        1.94713   0.00024   0.00000   0.00090   0.00088   1.94801
   A22        1.94652   0.00026   0.00000   0.00104   0.00102   1.94754
   A23        1.84356   0.00244   0.00000   0.01548   0.01545   1.85901
   A24        1.91104  -0.00099   0.00000  -0.00756  -0.00757   1.90348
   A25        1.90677  -0.00096   0.00000  -0.00473  -0.00476   1.90200
   A26        1.90723  -0.00095   0.00000  -0.00468  -0.00471   1.90252
   A27        2.09866  -0.00017   0.00000  -0.00155  -0.00156   2.09710
   A28        2.06455  -0.00005   0.00000  -0.00007  -0.00007   2.06448
   A29        2.11996   0.00023   0.00000   0.00160   0.00159   2.12155
   A30        2.09174  -0.00134   0.00000  -0.00451  -0.00451   2.08723
   A31        2.06677   0.00148   0.00000   0.00707   0.00705   2.07382
   A32        2.12461  -0.00015   0.00000  -0.00265  -0.00267   2.12194
   A33        1.86184   0.00197   0.00000   0.01375   0.01378   1.87562
   A34        1.90612  -0.00065   0.00000  -0.00370  -0.00384   1.90228
   A35        1.88645  -0.00633   0.00000  -0.03983  -0.03992   1.84652
   A36        1.93989  -0.00002   0.00000   0.00447   0.00445   1.94433
   A37        1.92928   0.00184   0.00000   0.01050   0.01059   1.93987
   A38        1.93778   0.00290   0.00000   0.01317   0.01288   1.95066
   A39        1.98141  -0.01227   0.00000  -0.07293  -0.07293   1.90848
    D1       -0.87540  -0.00052   0.00000   0.01030   0.00975  -0.86565
    D2        1.06359   0.00043   0.00000  -0.01503  -0.01485   1.04875
    D3       -3.12120   0.00033   0.00000   0.01006   0.01043  -3.11077
    D4        0.49068  -0.00187   0.00000  -0.00423  -0.00425   0.48643
    D5       -2.65536  -0.00145   0.00000   0.01400   0.01396  -2.64140
    D6       -1.62722   0.00019   0.00000   0.02328   0.02322  -1.60400
    D7        1.50992   0.00061   0.00000   0.04152   0.04143   1.55135
    D8        2.77679   0.00183   0.00000   0.02857   0.02868   2.80547
    D9       -0.36925   0.00225   0.00000   0.04680   0.04689  -0.32237
   D10        2.99051   0.00342   0.00000   0.05745   0.05736   3.04787
   D11       -1.19457   0.00418   0.00000   0.06870   0.06857  -1.12601
   D12        0.91550   0.00350   0.00000   0.05852   0.05857   0.97408
   D13       -1.18358  -0.00135   0.00000   0.00697   0.00691  -1.17667
   D14        0.91452  -0.00059   0.00000   0.01822   0.01812   0.93264
   D15        3.02460  -0.00127   0.00000   0.00804   0.00812   3.03272
   D16        0.78832  -0.00210   0.00000   0.00031   0.00036   0.78869
   D17        2.88643  -0.00134   0.00000   0.01156   0.01157   2.89799
   D18       -1.28668  -0.00202   0.00000   0.00138   0.00157  -1.28511
   D19        0.38084   0.00068   0.00000   0.02485   0.02469   0.40553
   D20       -1.89826   0.00385   0.00000   0.04381   0.04376  -1.85450
   D21        2.58201   0.00026   0.00000   0.03913   0.03934   2.62135
   D22        3.12970   0.00017   0.00000   0.00782   0.00774   3.13744
   D23       -0.01989  -0.00006   0.00000   0.00087   0.00079  -0.01910
   D24       -0.00731  -0.00027   0.00000  -0.01095  -0.01096  -0.01827
   D25        3.12628  -0.00050   0.00000  -0.01791  -0.01791   3.10837
   D26       -3.12800  -0.00015   0.00000  -0.00731  -0.00744  -3.13544
   D27        0.02631   0.00013   0.00000   0.00103   0.00096   0.02727
   D28        0.00922   0.00026   0.00000   0.01058   0.01059   0.01980
   D29       -3.11965   0.00053   0.00000   0.01892   0.01898  -3.10067
   D30        0.00024   0.00011   0.00000   0.00435   0.00434   0.00457
   D31        3.13857  -0.00008   0.00000  -0.00212  -0.00211   3.13646
   D32       -3.13340   0.00033   0.00000   0.01122   0.01117  -3.12222
   D33        0.00494   0.00014   0.00000   0.00476   0.00472   0.00966
   D34       -3.13861  -0.00014   0.00000  -0.00471  -0.00466   3.13992
   D35        0.00484   0.00006   0.00000   0.00253   0.00254   0.00738
   D36        0.00631   0.00006   0.00000   0.00188   0.00189   0.00820
   D37       -3.13343   0.00026   0.00000   0.00912   0.00909  -3.12434
   D38       -0.01452   0.00017   0.00000   0.00585   0.00583  -0.00870
   D39        3.12528  -0.00002   0.00000  -0.00113  -0.00111   3.12417
   D40       -0.00294  -0.00007   0.00000  -0.00287  -0.00286  -0.00580
   D41        3.13487  -0.00026   0.00000  -0.00931  -0.00933   3.12554
   D42        3.14035   0.00012   0.00000   0.00375   0.00380  -3.13904
   D43       -0.00503  -0.00007   0.00000  -0.00270  -0.00266  -0.00769
   D44        1.07835  -0.00046   0.00000  -0.00419  -0.00421   1.07414
   D45       -1.06480   0.00046   0.00000   0.00420   0.00422  -1.06058
   D46       -3.13493  -0.00001   0.00000  -0.00006  -0.00006  -3.13499
   D47       -0.00405  -0.00009   0.00000  -0.00364  -0.00364  -0.00770
   D48        3.12438  -0.00036   0.00000  -0.01219  -0.01220   3.11218
   D49        3.14145   0.00011   0.00000   0.00303   0.00304  -3.13870
   D50       -0.01331  -0.00017   0.00000  -0.00553  -0.00552  -0.01882
         Item               Value     Threshold  Converged?
 Maximum Force            0.012698     0.000450     NO 
 RMS     Force            0.004647     0.000300     NO 
 Maximum Displacement     0.231788     0.001800     NO 
 RMS     Displacement     0.046079     0.001200     NO 
 Predicted change in Energy=-4.295349D-03
 GradGradGradGradGradGradGradGradGradGradGradGradGradGradGradGradGradGrad

                          Input orientation:                          
 ---------------------------------------------------------------------
 Center     Atomic      Atomic             Coordinates (Angstroms)
 Number     Number       Type             X           Y           Z
 ---------------------------------------------------------------------
      1          7           0       -2.768458    1.399202   -0.695890
      2         16           0       -2.280717    0.080466   -0.074681
      3          6           0       -0.464995   -0.020957   -0.055719
      4          6           0        0.322540    1.122037    0.000666
      5          6           0        1.713822    1.013495    0.018965
      6          6           0        2.307385   -0.253862   -0.025468
      7          8           0        3.637649   -0.462750   -0.014340
      8          6           0        4.487917    0.654440    0.034629
      9          6           0        1.503593   -1.403848   -0.096911
     10          6           0        0.122182   -1.287886   -0.116656
     11          6           0       -2.552207   -0.037873    1.711081
     12          7           0       -2.866762   -1.225231   -0.609659
     13          1           0       -2.314556    2.228026   -0.310527
     14          1           0       -0.139598    2.113402    0.016988
     15          1           0        2.321102    1.918993    0.058485
     16          1           0        4.332550    1.243528    0.954951
     17          1           0        4.346965    1.310643   -0.841418
     18          1           0        5.514023    0.265913    0.028656
     19          1           0        1.996150   -2.377290   -0.145643
     20          1           0       -0.525287   -2.165820   -0.199270
     21          1           0       -2.257807   -1.048016    2.022739
     22          1           0       -1.949252    0.729078    2.215950
     23          1           0       -3.627553    0.125426    1.861432
     24          1           0       -3.216145   -1.076141   -1.553293
 ---------------------------------------------------------------------
                    Distance matrix (angstroms):
                    1          2          3          4          5
     1  N    0.000000
     2  S    1.537159   0.000000
     3  C    2.780758   1.818651   0.000000
     4  C    3.180610   2.804905   1.389182   0.000000
     5  C    4.555285   4.103127   2.413071   1.395630   0.000000
     6  C    5.380174   4.600530   2.782311   2.415242   1.400174
     7  O    6.705937   5.943550   4.126571   3.674470   2.425185
     8  C    7.330984   6.793807   4.999567   4.191679   2.797280
     9  C    5.144539   4.065056   2.406122   2.790072   2.429232
    10  C    3.988954   2.765515   1.397712   2.421082   2.801440
    11  C    2.811665   1.810153   2.734651   3.540491   4.708251
    12  N    2.627689   1.527905   2.743284   4.006720   5.137004
    13  H    1.020530   2.160736   2.922965   2.876513   4.220364
    14  H    2.815880   2.953916   2.160245   1.093911   2.155218
    15  H    5.171353   4.957283   3.396879   2.152379   1.090998
    16  H    7.292039   6.793243   5.063281   4.123785   2.790470
    17  H    7.117463   6.784349   5.054250   4.115906   2.786037
    18  H    8.390996   7.797631   5.986491   5.261676   3.873048
    19  H    6.104601   4.933274   3.408464   3.881709   3.406498
    20  H    4.241207   2.853570   2.150507   3.401292   3.894776
    21  H    3.693317   2.381841   2.930701   3.931424   4.902935
    22  H    3.098222   2.403654   2.815324   3.197332   4.280858
    23  H    2.983362   2.358924   3.701171   4.478718   5.719584
    24  H    2.657610   2.097394   3.305294   4.446243   5.580605
                    6          7          8          9         10
     6  C    0.000000
     7  O    1.346611   0.000000
     8  C    2.362911   1.404801   0.000000
     9  C    1.404867   2.333812   3.627677   0.000000
    10  C    2.419221   3.612455   4.780707   1.386410   0.000000
    11  C    5.165064   6.439869   7.270016   4.645883   3.472104
    12  N    5.296851   6.575952   7.618371   4.403954   3.029977
    13  H    5.253891   6.538864   6.990633   5.273936   4.282162
    14  H    3.404918   4.572214   4.852091   3.883825   3.413963
    15  H    2.174520   2.722370   2.508935   3.425455   3.892299
    16  H    2.702719   2.081777   1.103701   4.014724   5.028279
    17  H    2.696913   2.081372   1.103598   4.000940   5.012627
    18  H    3.248942   2.013350   1.097215   4.345966   5.613142
    19  H    2.149478   2.525317   3.928459   1.092052   2.167809
    20  H    3.421961   4.501631   5.756804   2.169662   1.093988
    21  H    5.066242   6.264873   7.235726   4.332165   3.209189
    22  H    4.910100   6.132545   6.797123   4.671277   3.714839
    23  H    6.239210   7.526463   8.335342   5.701092   4.468870
    24  H    5.789627   7.051179   8.054129   4.950189   3.640493
                   11         12         13         14         15
    11  C    0.000000
    12  N    2.625756   0.000000
    13  H    3.045927   3.509900   0.000000
    14  H    3.649467   4.356211   2.202464   0.000000
    15  H    5.505410   6.102990   4.660579   2.468717   0.000000
    16  H    7.043692   7.769997   6.837740   4.651512   2.303438
    17  H    7.478791   7.649982   6.745317   4.637945   2.298703
    18  H    8.245417   8.536305   8.077845   5.947839   3.595595
    19  H    5.441309   5.019010   6.310175   4.975357   4.313387
    20  H    3.505140   2.556488   4.745497   4.302007   4.985385
    21  H    1.097356   2.707720   4.022412   4.301675   5.798952
    22  H    1.098481   3.556010   2.960300   3.166486   4.930160
    23  H    1.098017   2.917083   3.295799   4.418128   6.469467
    24  H    3.489263   1.017223   3.643468   4.701501   6.498444
                   16         17         18         19         20
    16  H    0.000000
    17  H    1.797680   0.000000
    18  H    1.791544   1.791791   0.000000
    19  H    4.447515   4.428463   4.403673   0.000000
    20  H    6.046028   6.019717   6.514487   2.530857   0.000000
    21  H    7.058622   7.575597   8.130444   4.956308   3.031243
    22  H    6.427738   7.023394   7.790972   5.549129   4.030062
    23  H    8.089196   8.503122   9.324549   6.474409   4.372684
    24  H    8.285829   7.962672   8.973267   5.553602   3.203357
                   21         22         23         24
    21  H    0.000000
    22  H    1.814001   0.000000
    23  H    1.810854   1.818453   0.000000
    24  H    3.702325   4.367039   3.643264   0.000000
 Stoichiometry    C8H12N2OS
 Framework group  C1[X(C8H12N2OS)]
 Deg. of freedom    66
 Full point group                 C1      NOp   1
 Largest Abelian subgroup         C1      NOp   1
 Largest concise Abelian subgroup C1      NOp   1
                         Standard orientation:                         
 ---------------------------------------------------------------------
 Center     Atomic      Atomic             Coordinates (Angstroms)
 Number     Number       Type             X           Y           Z
 ---------------------------------------------------------------------
      1          7           0        2.765317   -1.398954   -0.803484
      2         16           0        2.301537   -0.096120   -0.132373
      3          6           0        0.487568    0.025922   -0.086407
      4          6           0       -0.313044   -1.108994   -0.057898
      5          6           0       -1.702560   -0.984798   -0.017883
      6          6           0       -2.281170    0.290219   -0.012323
      7          8           0       -3.608548    0.514221    0.023076
      8          6           0       -4.471663   -0.593922    0.045850
      9          6           0       -1.464409    1.432435   -0.055858
     10          6           0       -0.084870    1.300988   -0.097438
     11          6           0        2.596959   -0.040831    1.652655
     12          7           0        2.896631    1.219786   -0.631123
     13          1           0        2.306261   -2.234829   -0.440080
     14          1           0        0.137165   -2.105706   -0.080642
     15          1           0       -2.320268   -1.883918   -0.000660
     16          1           0       -4.311875   -1.215276    0.943928
     17          1           0       -4.349772   -1.222037   -0.853340
     18          1           0       -5.492958   -0.193393    0.066188
     19          1           0       -1.945659    2.412679   -0.065704
     20          1           0        0.572140    2.173533   -0.159169
     21          1           0        2.318829    0.961698    2.001611
     22          1           0        1.991134   -0.817123    2.139489
     23          1           0        3.672050   -0.221687    1.783469
     24          1           0        3.232239    1.098281   -1.583670
 ---------------------------------------------------------------------
 Rotational constants (GHZ):           2.2642850           0.4104390           0.3811939
 Standard basis: def2SVP (5D, 7F)
 There are   244 symmetry adapted cartesian basis functions of A   symmetry.
 There are   232 symmetry adapted basis functions of A   symmetry.
   232 basis functions,   396 primitive gaussians,   244 cartesian basis functions
    49 alpha electrons       49 beta electrons
       nuclear repulsion energy       812.8437062243 Hartrees.
 NAtoms=   24 NActive=   24 NUniq=   24 SFac= 1.00D+00 NAtFMM=   60 NAOKFM=F Big=F
 Integral buffers will be    131072 words long.
 Raffenetti 2 integral format.
 Two-electron integral symmetry is turned on.
 Nuclear repulsion after empirical dispersion term =      812.8182519059 Hartrees.
 One-electron integrals computed using PRISM.
   1 Symmetry operations used in ECPInt.
 ECPInt:  NShTT=    6105 NPrTT=   22357 LenC2=    5765 LenP2D=   15781.
 LDataN:  DoStor=T MaxTD1= 4 Len=   56
 NBasis=   232 RedAO= T EigKep=  2.51D-04  NBF=   232
 NBsUse=   232 1.00D-06 EigRej= -1.00D+00 NBFU=   232
 Initial guess from the checkpoint file:  "SDI0017_1.chk"
 B after Tr=    -0.000000   -0.000000   -0.000000
         Rot=    0.999938   -0.011012   -0.001407    0.000940 Ang=  -1.28 deg.
 ExpMin= 1.22D-01 ExpMax= 9.18D+03 ExpMxC= 1.38D+03 IAcc=3 IRadAn=         5 AccDes= 0.00D+00
 Harris functional with IExCor= 1009 and IRadAn=       5 diagonalized for initial guess.
 HarFok:  IExCor= 1009 AccDes= 0.00D+00 IRadAn=         5 IDoV= 1 UseB2=F ITyADJ=14
 ICtDFT=  3500011 ScaDFX=  1.000000  1.000000  1.000000  1.000000
 FoFCou: FMM=F IPFlag=           0 FMFlag=      100000 FMFlg1=           0
         NFxFlg=           0 DoJE=T BraDBF=F KetDBF=T FulRan=T
         wScrn=  0.000000 ICntrl=       500 IOpCl=  0 I1Cent=   200000004 NGrid=           0
         NMat0=    1 NMatS0=      1 NMatT0=    0 NMatD0=    1 NMtDS0=    0 NMtDT0=    0
 Petite list used in FoFCou.
 Requested convergence on RMS density matrix=1.00D-08 within 128 cycles.
 Requested convergence on MAX density matrix=1.00D-06.
 Requested convergence on             energy=1.00D-06.
 No special actions if energy rises.
 Integral accuracy reduced to 1.0D-05 until final iterations.
 Initial convergence to 1.0D-05 achieved.  Increase integral accuracy.
 SCF Done:  E(RPBE1PBE) =  -893.665351144     A.U. after   12 cycles
            NFock= 12  Conv=0.84D-08     -V/T= 2.0064
   1 Symmetry operations used in ECPInt.
 ECPInt:  NShTT=    6105 NPrTT=   22357 LenC2=    5765 LenP2D=   15781.
 LDataN:  DoStor=T MaxTD1= 5 Len=  102
 Calling FoFJK, ICntrl=      2127 FMM=F ISym2X=0 I1Cent= 0 IOpClX= 0 NMat=1 NMatS=1 NMatT=0.
 ***** Axes restored to original set *****
 -------------------------------------------------------------------
 Center     Atomic                   Forces (Hartrees/Bohr)
 Number     Number              X              Y              Z
 -------------------------------------------------------------------
      1        7          -0.003495408    0.001247939   -0.002572084
      2       16           0.007856618    0.005970660    0.010145993
      3        6          -0.000679464   -0.000068429   -0.001709781
      4        6           0.000798735   -0.001167415    0.000200259
      5        6          -0.001651113    0.001194108    0.000143535
      6        6           0.002203054   -0.002010565   -0.000169814
      7        8          -0.000629099    0.002968288    0.000083143
      8        6          -0.000416816   -0.002933059   -0.000059601
      9        6          -0.000829244    0.000759333   -0.000026761
     10        6           0.001406670    0.001157527   -0.000173196
     11        6           0.000644777   -0.000359479   -0.003982752
     12        7          -0.007535916   -0.006664328    0.000574567
     13        1           0.000749684   -0.001903978    0.000837013
     14        1           0.000521994   -0.000457605   -0.000218961
     15        1          -0.000595432   -0.000677325   -0.000062080
     16        1           0.000223481    0.000277018    0.000024748
     17        1           0.000271964    0.000263239   -0.000005039
     18        1          -0.000047932    0.000198611    0.000007363
     19        1          -0.000022759    0.000378099   -0.000053895
     20        1           0.000132039    0.000630049    0.000124530
     21        1          -0.000076931    0.000648019    0.001138448
     22        1          -0.000652057   -0.000091393   -0.000033375
     23        1          -0.000117065   -0.000315167   -0.000389899
     24        1           0.001940218    0.000955853   -0.003822361
 -------------------------------------------------------------------
 Cartesian Forces:  Max     0.010145993 RMS     0.002382274

 GradGradGradGradGradGradGradGradGradGradGradGradGradGradGradGradGradGrad
 Berny optimization.
 Using GEDIIS/GDIIS optimizer.
 FormGI is forming the generalized inverse of G from B-inverse, IUseBI=4.
 Internal  Forces:  Max     0.008162770 RMS     0.001285458
 Search for a local minimum.
 Step number   2 out of a maximum of  123
 All quantities printed in internal units (Hartrees-Bohrs-Radians)
 Mixed Optimization -- RFO/linear search
 Update second derivatives using D2CorX and points    1    2
 DE= -4.28D-03 DEPred=-4.30D-03 R= 9.96D-01
 TightC=F SS=  1.41D+00  RLast= 2.25D-01 DXNew= 5.0454D-01 6.7505D-01
 Trust test= 9.96D-01 RLast= 2.25D-01 DXMaxT set to 5.05D-01
 ITU=  1  0
 Use linear search instead of GDIIS.
     Eigenvalues ---    0.00229   0.00231   0.01500   0.01585   0.02153
     Eigenvalues ---    0.02192   0.02230   0.02254   0.02258   0.02296
     Eigenvalues ---    0.02318   0.02340   0.02356   0.03465   0.03528
     Eigenvalues ---    0.05922   0.06239   0.07304   0.07946   0.09620
     Eigenvalues ---    0.10090   0.10640   0.14410   0.15996   0.15998
     Eigenvalues ---    0.15999   0.15999   0.16000   0.16000   0.16000
     Eigenvalues ---    0.16000   0.16000   0.16000   0.16032   0.16339
     Eigenvalues ---    0.19191   0.21994   0.22574   0.22988   0.24072
     Eigenvalues ---    0.24252   0.24936   0.24999   0.25698   0.34282
     Eigenvalues ---    0.34302   0.34980   0.35541   0.35608   0.35816
     Eigenvalues ---    0.36010   0.36137   0.36186   0.37310   0.42961
     Eigenvalues ---    0.43562   0.44161   0.46042   0.46758   0.47042
     Eigenvalues ---    0.48468   0.48823   0.50125   0.53386   0.66894
     Eigenvalues ---    0.70081
 RFO step:  Lambda=-1.24102390D-03 EMin= 2.29352250D-03
 Quartic linear search produced a step of  0.04775.
 Iteration  1 RMS(Cart)=  0.03880216 RMS(Int)=  0.00115953
 Iteration  2 RMS(Cart)=  0.00124236 RMS(Int)=  0.00002860
 Iteration  3 RMS(Cart)=  0.00000151 RMS(Int)=  0.00002858
 Iteration  4 RMS(Cart)=  0.00000000 RMS(Int)=  0.00002858
 Variable       Old X    -DE/DX   Delta X   Delta X   Delta X     New X
                                 (Linear)    (Quad)   (Total)
    R1        2.90481   0.00101   0.00053   0.00247   0.00300   2.90781
    R2        1.92852  -0.00090   0.00128   0.00016   0.00144   1.92996
    R3        3.43675   0.00064  -0.00073   0.00152   0.00080   3.43755
    R4        3.42069  -0.00318  -0.00247  -0.01829  -0.02076   3.39993
    R5        2.88732   0.00816   0.00041   0.01294   0.01334   2.90067
    R6        2.62517  -0.00063   0.00098   0.00027   0.00124   2.62642
    R7        2.64129  -0.00122   0.00120  -0.00074   0.00046   2.64175
    R8        2.63736  -0.00080   0.00087  -0.00020   0.00066   2.63802
    R9        2.06719  -0.00064   0.00123   0.00023   0.00146   2.06865
   R10        2.64595   0.00066   0.00071   0.00282   0.00352   2.64947
   R11        2.06169  -0.00090   0.00113  -0.00067   0.00047   2.06215
   R12        2.54473  -0.00071  -0.00095  -0.00300  -0.00395   2.54077
   R13        2.65481  -0.00091   0.00050  -0.00114  -0.00064   2.65417
   R14        2.65469  -0.00173  -0.00029  -0.00455  -0.00484   2.64985
   R15        2.08569   0.00014   0.00082   0.00179   0.00261   2.08830
   R16        2.08550   0.00013   0.00082   0.00177   0.00259   2.08809
   R17        2.07344  -0.00012   0.00077   0.00095   0.00172   2.07515
   R18        2.61994  -0.00072   0.00085  -0.00014   0.00071   2.62065
   R19        2.06368  -0.00034   0.00124   0.00110   0.00234   2.06602
   R20        2.06734  -0.00059   0.00135   0.00057   0.00191   2.06925
   R21        2.07370  -0.00029   0.00141   0.00152   0.00293   2.07663
   R22        2.07583  -0.00044   0.00131   0.00092   0.00223   2.07806
   R23        2.07495   0.00001   0.00131   0.00226   0.00357   2.07852
   R24        1.92227   0.00302   0.00110   0.00858   0.00968   1.93196
    A1        1.98561  -0.00389  -0.00091  -0.02670  -0.02761   1.95800
    A2        1.94856  -0.00037  -0.00205  -0.00330  -0.00535   1.94322
    A3        1.99016  -0.00042  -0.00062  -0.00368  -0.00434   1.98582
    A4        2.06001  -0.00158   0.00264  -0.01794  -0.01531   2.04470
    A5        1.70703   0.00198   0.00042   0.02187   0.02221   1.72924
    A6        1.91658   0.00075  -0.00035   0.00809   0.00762   1.92420
    A7        1.80496   0.00036  -0.00032   0.00270   0.00221   1.80717
    A8        2.11827   0.00050  -0.00056   0.00143   0.00085   2.11912
    A9        2.05954   0.00083   0.00042   0.00445   0.00485   2.06439
   A10        2.10529  -0.00134   0.00014  -0.00597  -0.00584   2.09945
   A11        2.09634   0.00089  -0.00010   0.00379   0.00369   2.10003
   A12        2.10222  -0.00016   0.00028   0.00028   0.00055   2.10277
   A13        2.08453  -0.00073  -0.00018  -0.00412  -0.00431   2.08023
   A14        2.08585   0.00026  -0.00019   0.00111   0.00092   2.08676
   A15        2.08383  -0.00025   0.00024  -0.00112  -0.00089   2.08294
   A16        2.11347  -0.00001  -0.00004  -0.00002  -0.00007   2.11340
   A17        2.16388   0.00182  -0.00074   0.00624   0.00551   2.16939
   A18        2.09439  -0.00140   0.00044  -0.00491  -0.00448   2.08991
   A19        2.02489  -0.00042   0.00030  -0.00132  -0.00103   2.02386
   A20        2.06558   0.00397  -0.00044   0.01575   0.01531   2.08089
   A21        1.94801   0.00039   0.00004   0.00268   0.00272   1.95072
   A22        1.94754   0.00042   0.00005   0.00289   0.00294   1.95048
   A23        1.85901   0.00006   0.00074   0.00142   0.00215   1.86116
   A24        1.90348  -0.00032  -0.00036  -0.00230  -0.00267   1.90081
   A25        1.90200  -0.00027  -0.00023  -0.00232  -0.00255   1.89945
   A26        1.90252  -0.00030  -0.00022  -0.00253  -0.00276   1.89976
   A27        2.09710   0.00064  -0.00007   0.00261   0.00253   2.09964
   A28        2.06448  -0.00047  -0.00000  -0.00236  -0.00237   2.06212
   A29        2.12155  -0.00017   0.00008  -0.00025  -0.00017   2.12138
   A30        2.08723   0.00094  -0.00022   0.00333   0.00312   2.09034
   A31        2.07382  -0.00075   0.00034  -0.00309  -0.00275   2.07107
   A32        2.12194  -0.00019  -0.00013  -0.00026  -0.00039   2.12155
   A33        1.87562   0.00202   0.00066   0.01552   0.01618   1.89179
   A34        1.90228   0.00013  -0.00018   0.00053   0.00030   1.90257
   A35        1.84652  -0.00093  -0.00191  -0.01046  -0.01236   1.83416
   A36        1.94433  -0.00074   0.00021  -0.00179  -0.00163   1.94270
   A37        1.93987  -0.00043   0.00051  -0.00180  -0.00124   1.93864
   A38        1.95066   0.00004   0.00061  -0.00160  -0.00103   1.94963
   A39        1.90848  -0.00249  -0.00348  -0.02188  -0.02536   1.88312
    D1       -0.86565  -0.00087   0.00047  -0.00900  -0.00851  -0.87416
    D2        1.04875   0.00111  -0.00071   0.01394   0.01319   1.06194
    D3       -3.11077  -0.00011   0.00050  -0.00084  -0.00033  -3.11109
    D4        0.48643   0.00080  -0.00020   0.03234   0.03213   0.51856
    D5       -2.64140   0.00091   0.00067   0.04019   0.04088  -2.60053
    D6       -1.60400   0.00037   0.00111   0.02610   0.02725  -1.57675
    D7        1.55135   0.00048   0.00198   0.03395   0.03599   1.58734
    D8        2.80547  -0.00105   0.00137   0.01188   0.01318   2.81865
    D9       -0.32237  -0.00093   0.00224   0.01973   0.02192  -0.30044
   D10        3.04787  -0.00073   0.00274   0.05909   0.06179   3.10966
   D11       -1.12601  -0.00036   0.00327   0.06639   0.06965  -1.05635
   D12        0.97408  -0.00076   0.00280   0.05887   0.06169   1.03576
   D13       -1.17667  -0.00019   0.00033   0.06645   0.06672  -1.10995
   D14        0.93264   0.00019   0.00087   0.07374   0.07458   1.00722
   D15        3.03272  -0.00021   0.00039   0.06622   0.06662   3.09934
   D16        0.78869   0.00131   0.00002   0.08257   0.08258   0.87127
   D17        2.89799   0.00169   0.00055   0.08986   0.09045   2.98844
   D18       -1.28511   0.00129   0.00008   0.08234   0.08248  -1.20263
   D19        0.40553   0.00181   0.00118   0.05215   0.05330   0.45883
   D20       -1.85450   0.00304   0.00209   0.06519   0.06729  -1.78721
   D21        2.62135   0.00044   0.00188   0.03700   0.03890   2.66025
   D22        3.13744   0.00006   0.00037   0.00425   0.00459  -3.14115
   D23       -0.01910  -0.00003   0.00004   0.00022   0.00024  -0.01886
   D24       -0.01827  -0.00004  -0.00052  -0.00372  -0.00424  -0.02251
   D25        3.10837  -0.00013  -0.00086  -0.00775  -0.00860   3.09978
   D26       -3.13544  -0.00011  -0.00036  -0.00639  -0.00676   3.14099
   D27        0.02727  -0.00010   0.00005  -0.00534  -0.00530   0.02197
   D28        0.01980  -0.00001   0.00051   0.00134   0.00183   0.02164
   D29       -3.10067  -0.00000   0.00091   0.00239   0.00329  -3.09738
   D30        0.00457   0.00007   0.00021   0.00341   0.00362   0.00819
   D31        3.13646  -0.00001  -0.00010  -0.00016  -0.00025   3.13621
   D32       -3.12222   0.00015   0.00053   0.00735   0.00788  -3.11435
   D33        0.00966   0.00008   0.00023   0.00379   0.00401   0.01367
   D34        3.13992   0.00000  -0.00022   0.00008  -0.00014   3.13978
   D35        0.00738  -0.00002   0.00012  -0.00070  -0.00057   0.00681
   D36        0.00820   0.00008   0.00009   0.00371   0.00380   0.01200
   D37       -3.12434   0.00005   0.00043   0.00294   0.00337  -3.12097
   D38       -0.00870   0.00003   0.00028   0.00131   0.00158  -0.00711
   D39        3.12417   0.00004  -0.00005   0.00203   0.00198   3.12615
   D40       -0.00580  -0.00003  -0.00014  -0.00167  -0.00181  -0.00761
   D41        3.12554  -0.00002  -0.00045  -0.00189  -0.00233   3.12321
   D42       -3.13904  -0.00007   0.00018  -0.00243  -0.00224  -3.14128
   D43       -0.00769  -0.00006  -0.00013  -0.00264  -0.00277  -0.01046
   D44        1.07414   0.00005  -0.00020  -0.00125  -0.00145   1.07269
   D45       -1.06058  -0.00011   0.00020  -0.00228  -0.00207  -1.06266
   D46       -3.13499  -0.00002  -0.00000  -0.00169  -0.00170  -3.13669
   D47       -0.00770   0.00004  -0.00017   0.00132   0.00115  -0.00655
   D48        3.11218   0.00002  -0.00058   0.00021  -0.00038   3.11179
   D49       -3.13870   0.00003   0.00015   0.00155   0.00170  -3.13699
   D50       -0.01882   0.00002  -0.00026   0.00044   0.00017  -0.01865
         Item               Value     Threshold  Converged?
 Maximum Force            0.008163     0.000450     NO 
 RMS     Force            0.001285     0.000300     NO 
 Maximum Displacement     0.193494     0.001800     NO 
 RMS     Displacement     0.038826     0.001200     NO 
 Predicted change in Energy=-6.703752D-04
 GradGradGradGradGradGradGradGradGradGradGradGradGradGradGradGradGradGrad

                          Input orientation:                          
 ---------------------------------------------------------------------
[...]
 Alpha virt. eigenvalues --    2.72642   2.73760   2.74958   2.76831   2.77541
 Alpha virt. eigenvalues --    2.78549   2.79801   2.79939   2.80718   2.82448
 Alpha virt. eigenvalues --    2.83613   2.83966   2.85579   2.87785   2.89625
 Alpha virt. eigenvalues --    2.90859   2.93229   2.93897   2.95521   2.97456
 Alpha virt. eigenvalues --    2.99698   3.02197   3.03291   3.04938   3.06238
 Alpha virt. eigenvalues --    3.09109   3.11585   3.12106   3.12884   3.13235
 Alpha virt. eigenvalues --    3.15332   3.15872   3.16425   3.19210   3.19706
 Alpha virt. eigenvalues --    3.21660   3.23057   3.23333   3.25287   3.26314
 Alpha virt. eigenvalues --    3.27004   3.29446   3.30036   3.32373   3.33520
 Alpha virt. eigenvalues --    3.34245   3.35198   3.35883   3.37471   3.38987
 Alpha virt. eigenvalues --    3.39751   3.41809   3.43272   3.43885   3.45392
 Alpha virt. eigenvalues --    3.46657   3.47322   3.49091   3.50660   3.52299
 Alpha virt. eigenvalues --    3.52743   3.53501   3.53855   3.55564   3.58209
 Alpha virt. eigenvalues --    3.59012   3.60169   3.65161   3.66237   3.70431
 Alpha virt. eigenvalues --    3.73170   3.75395   3.76949   3.77598   3.80425
 Alpha virt. eigenvalues --    3.83412   3.89105   3.89346   3.96368   4.01287
 Alpha virt. eigenvalues --    4.02790   4.04449   4.05084   4.06350   4.07926
 Alpha virt. eigenvalues --    4.10017   4.14033   4.14112   4.16811   4.18147
 Alpha virt. eigenvalues --    4.19290   4.20202   4.21172   4.22123   4.23126
 Alpha virt. eigenvalues --    4.24421   4.26003   4.26820   4.29728   4.31541
 Alpha virt. eigenvalues --    4.34268   4.35239   4.36591   4.39664   4.44668
 Alpha virt. eigenvalues --    4.45302   4.47372   4.48939   4.53585   4.57468
 Alpha virt. eigenvalues --    4.59128   4.59543   4.61443   4.64433   4.69169
 Alpha virt. eigenvalues --    4.69617   4.71962   4.75867   4.78083   4.85913
 Alpha virt. eigenvalues --    4.87798   4.90179   4.91142   4.93433   4.95907
 Alpha virt. eigenvalues --    5.00283   5.03601   5.07086   5.14545   5.17150
 Alpha virt. eigenvalues --    5.19731   5.22935   5.25037   5.25272   5.35303
 Alpha virt. eigenvalues --    5.36471   5.42118   5.49140   5.57614   5.58854
 Alpha virt. eigenvalues --    5.60931   5.77532   5.93802   6.02580   6.37052
 Alpha virt. eigenvalues --    6.55660   6.64762   6.79037   6.87291   7.18086
 Alpha virt. eigenvalues --    7.41764   9.46450   9.55296   9.58746  21.78821
 Alpha virt. eigenvalues --   22.15944  22.33915  22.43958  22.72091  22.74158
 Alpha virt. eigenvalues --   22.77934  22.92762  23.33065  31.88008  31.94406
 Alpha virt. eigenvalues --   44.30550
          Condensed to atoms (all electrons):
               1          2          3          4          5          6
     1  N    7.030852   0.398927  -0.089387   0.020801   0.006128   0.001049
     2  S    0.398927  14.066666   0.238229  -0.016106   0.017562  -0.001045
     3  C   -0.089387   0.238229   5.797555   0.166916   0.060199  -0.222290
     4  C    0.020801  -0.016106   0.166916   5.408361   0.160737   0.166763
     5  C    0.006128   0.017562   0.060199   0.160737   5.587431   0.107443
     6  C    0.001049  -0.001045  -0.222290   0.166763   0.107443   4.960470
     7  O   -0.000000   0.000005  -0.001413   0.011433  -0.102237   0.425173
     8  C    0.000004   0.000001   0.000328  -0.007347   0.012401  -0.084707
     9  C   -0.002232   0.001891   0.161794  -0.131878   0.086187   0.323407
    10  C    0.021517  -0.027696   0.124707   0.022730  -0.141901   0.139597
    11  C   -0.048573   0.291951  -0.057189   0.032746  -0.001740   0.000206
    12  N   -0.084806   0.535375  -0.085155  -0.006178  -0.000079  -0.000265
    13  H    0.254048   0.036761  -0.017525   0.011855   0.003310  -0.000439
    14  H    0.029402  -0.005239  -0.110353   0.384128   0.008923   0.012839
    15  H   -0.000150  -0.000118   0.015102  -0.021653   0.423344  -0.074470
    16  H   -0.000000  -0.000003   0.000417  -0.000917   0.016024  -0.019248
    17  H   -0.000000   0.000001   0.000194  -0.000489   0.013765  -0.016669
    18  H    0.000000   0.000000  -0.000081   0.000173  -0.003379   0.007716
    19  H   -0.000002  -0.000222   0.020886  -0.007502   0.024159  -0.081952
    20  H    0.001724   0.002940  -0.097625   0.018296  -0.006971   0.019490
    21  H    0.005561  -0.010213   0.009237  -0.005464   0.000089  -0.000354
    22  H    0.000647  -0.013241  -0.001110  -0.003262   0.000179   0.000194
    23  H    0.003655  -0.018290   0.007470  -0.001032   0.000007  -0.000001
    24  H   -0.004366  -0.015600   0.005762   0.003172  -0.000038  -0.000104
               7          8          9         10         11         12
     1  N   -0.000000   0.000004  -0.002232   0.021517  -0.048573  -0.084806
     2  S    0.000005   0.000001   0.001891  -0.027696   0.291951   0.535375
     3  C   -0.001413   0.000328   0.161794   0.124707  -0.057189  -0.085155
     4  C    0.011433  -0.007347  -0.131878   0.022730   0.032746  -0.006178
     5  C   -0.102237   0.012401   0.086187  -0.141901  -0.001740  -0.000079
     6  C    0.425173  -0.084707   0.323407   0.139597   0.000206  -0.000265
     7  O    7.802784   0.259679  -0.064300   0.000762   0.000001  -0.000000
     8  C    0.259679   4.836354   0.002935  -0.000342   0.000001  -0.000000
     9  C   -0.064300   0.002935   5.163738   0.293435  -0.000094  -0.001317
    10  C    0.000762  -0.000342   0.293435   5.333612  -0.016751   0.013864
    11  C    0.000001   0.000001  -0.000094  -0.016751   5.120527  -0.096227
    12  N   -0.000000  -0.000000  -0.001317   0.013864  -0.096227   6.917833
    13  H   -0.000000   0.000000   0.000624  -0.006577  -0.012081   0.009488
    14  H   -0.000090   0.000226  -0.003022   0.015080   0.004735  -0.000950
    15  H   -0.007823   0.010251   0.005236  -0.001132  -0.000025   0.000024
    16  H   -0.041192   0.408508   0.000913  -0.000343  -0.000000  -0.000000
    17  H   -0.041161   0.409633   0.000500  -0.000178  -0.000000   0.000000
    18  H   -0.031257   0.400470  -0.000117   0.000136   0.000000   0.000000
    19  H    0.009105  -0.000405   0.450432  -0.071265   0.000132  -0.000045
    20  H   -0.000103   0.000039  -0.075456   0.464688  -0.001763   0.022320
    21  H   -0.000000  -0.000001   0.002475  -0.005702   0.363150   0.001286
    22  H   -0.000000   0.000000  -0.000679   0.005339   0.369305   0.007077
    23  H    0.000000  -0.000000   0.000052   0.000342   0.376415   0.006386
    24  H    0.000000   0.000000   0.000215  -0.008467   0.011250   0.306632
              13         14         15         16         17         18
     1  N    0.254048   0.029402  -0.000150  -0.000000  -0.000000   0.000000
     2  S    0.036761  -0.005239  -0.000118  -0.000003   0.000001   0.000000
     3  C   -0.017525  -0.110353   0.015102   0.000417   0.000194  -0.000081
     4  C    0.011855   0.384128  -0.021653  -0.000917  -0.000489   0.000173
     5  C    0.003310   0.008923   0.423344   0.016024   0.013765  -0.003379
     6  C   -0.000439   0.012839  -0.074470  -0.019248  -0.016669   0.007716
     7  O   -0.000000  -0.000090  -0.007823  -0.041192  -0.041161  -0.031257
     8  C    0.000000   0.000226   0.010251   0.408508   0.409633   0.400470
     9  C    0.000624  -0.003022   0.005236   0.000913   0.000500  -0.000117
    10  C   -0.006577   0.015080  -0.001132  -0.000343  -0.000178   0.000136
    11  C   -0.012081   0.004735  -0.000025  -0.000000  -0.000000   0.000000
    12  N    0.009488  -0.000950   0.000024  -0.000000   0.000000   0.000000
    13  H    0.518168  -0.004463   0.000041   0.000000  -0.000000  -0.000000
    14  H   -0.004463   0.559093  -0.008592  -0.000089  -0.000046   0.000008
    15  H    0.000041  -0.008592   0.526238   0.002212   0.002154  -0.000472
    16  H    0.000000  -0.000089   0.002212   0.576854  -0.054654  -0.021080
    17  H   -0.000000  -0.000046   0.002154  -0.054654   0.572869  -0.020753
    18  H   -0.000000   0.000008  -0.000472  -0.021080  -0.020753   0.517838
    19  H    0.000002   0.000066  -0.000055   0.000159   0.000126  -0.000209
    20  H   -0.000280   0.000108   0.000010  -0.000003  -0.000000   0.000001
    21  H    0.000468  -0.000576   0.000010   0.000000  -0.000000  -0.000000
    22  H    0.001395  -0.000050  -0.000003   0.000000  -0.000000   0.000000
    23  H    0.000540  -0.000171  -0.000000  -0.000000   0.000000  -0.000000
    24  H   -0.000104   0.000218  -0.000001   0.000000  -0.000000   0.000000
              19         20         21         22         23         24
     1  N   -0.000002   0.001724   0.005561   0.000647   0.003655  -0.004366
     2  S   -0.000222   0.002940  -0.010213  -0.013241  -0.018290  -0.015600
     3  C    0.020886  -0.097625   0.009237  -0.001110   0.007470   0.005762
     4  C   -0.007502   0.018296  -0.005464  -0.003262  -0.001032   0.003172
     5  C    0.024159  -0.006971   0.000089   0.000179   0.000007  -0.000038
     6  C   -0.081952   0.019490  -0.000354   0.000194  -0.000001  -0.000104
     7  O    0.009105  -0.000103  -0.000000  -0.000000   0.000000   0.000000
     8  C   -0.000405   0.000039  -0.000001   0.000000  -0.000000   0.000000
     9  C    0.450432  -0.075456   0.002475  -0.000679   0.000052   0.000215
    10  C   -0.071265   0.464688  -0.005702   0.005339   0.000342  -0.008467
    11  C    0.000132  -0.001763   0.363150   0.369305   0.376415   0.011250
    12  N   -0.000045   0.022320   0.001286   0.007077   0.006386   0.306632
    13  H    0.000002  -0.000280   0.000468   0.001395   0.000540  -0.000104
    14  H    0.000066   0.000108  -0.000576  -0.000050  -0.000171   0.000218
    15  H   -0.000055   0.000010   0.000010  -0.000003  -0.000000  -0.000001
    16  H    0.000159  -0.000003   0.000000   0.000000  -0.000000   0.000000
    17  H    0.000126  -0.000000  -0.000000  -0.000000   0.000000  -0.000000
    18  H   -0.000209   0.000001  -0.000000   0.000000  -0.000000   0.000000
    19  H    0.545128  -0.010078  -0.000013  -0.000011  -0.000002   0.000018
    20  H   -0.010078   0.513882  -0.001936   0.000590  -0.000203  -0.001899
    21  H   -0.000013  -0.001936   0.521978  -0.019396  -0.010370  -0.000466
    22  H   -0.000011   0.000590  -0.019396   0.531932  -0.014076  -0.000584
    23  H   -0.000002  -0.000203  -0.010370  -0.014076   0.488628  -0.000557
    24  H    0.000018  -0.001899  -0.000466  -0.000584  -0.000557   0.484067
 Mulliken charges:
               1
     1  N   -0.544797
     2  S    0.517463
     3  C    0.073333
     4  C   -0.206282
     5  C   -0.271541
     6  C    0.337198
     7  O   -0.219364
     8  C   -0.248028
     9  C   -0.214739
    10  C   -0.155454
    11  C   -0.335975
    12  N   -0.545263
    13  H    0.204770
    14  H    0.118816
    15  H    0.129875
    16  H    0.132440
    17  H    0.134709
    18  H    0.151006
    19  H    0.121549
    20  H    0.152232
    21  H    0.150237
    22  H    0.135755
    23  H    0.161207
    24  H    0.220852
 Sum of Mulliken charges =  -0.00000
 Mulliken charges with hydrogens summed into heavy atoms:
               1
     1  N   -0.340028
     2  S    0.517463
     3  C    0.073333
     4  C   -0.087466
     5  C   -0.141666
     6  C    0.337198
     7  O   -0.219364
     8  C    0.170127
     9  C   -0.093189
    10  C   -0.003222
    11  C    0.111224
    12  N   -0.324411
 Electronic spatial extent (au):  <R**2>=           2957.9119
 Charge=             -0.0000 electrons
 Dipole moment (field-independent basis, Debye):
    X=             -4.8560    Y=             -0.7295    Z=              2.6184  Tot=              5.5650
 Quadrupole moment (field-independent basis, Debye-Ang):
   XX=            -81.5300   YY=            -77.9770   ZZ=            -77.8269
   XY=              6.6783   XZ=              8.1041   YZ=             -1.2583
 Traceless Quadrupole moment (field-independent basis, Debye-Ang):
   XX=             -2.4187   YY=              1.1343   ZZ=              1.2844
   XY=              6.6783   XZ=              8.1041   YZ=             -1.2583
 Octapole moment (field-independent basis, Debye-Ang**2):
  XXX=           -115.6126  YYY=              0.7485  ZZZ=             -4.3036  XYY=            -21.5737
  XXY=            -11.7311  XXZ=             26.7585  XZZ=             10.4847  YZZ=              0.9695
  YYZ=              9.4033  XYZ=             -0.9707
 Hexadecapole moment (field-independent basis, Debye-Ang**3):
 XXXX=          -2963.5944 YYYY=           -504.1624 ZZZZ=           -244.0496 XXXY=            101.9203
 XXXZ=             82.8551 YYYX=             -8.4640 YYYZ=             -9.3986 ZZZX=            -14.6842
 ZZZY=             -7.2603 XXYY=           -658.2944 XXZZ=           -542.2704 YYZZ=           -143.5834
 XXYZ=             -0.8172 YYXZ=             26.9622 ZZXY=              5.4213
 N-N= 8.122673800183D+02 E-N=-3.726179727878D+03  KE= 8.911197714717D+02
 Breneman (CHELPG) radii used.
 Read replacement radii for each type of atom:
 Atom Element Radius
    1     7    1.70
    2    16    2.00
    3     6    1.50
    4     6    1.50
    5     6    1.50
    6     6    1.50
    7     8    1.70
    8     6    1.50
    9     6    1.50
   10     6    1.50
   11     6    1.50
   12     7    1.70
   13     1    1.45
   14     1    1.45
   15     1    1.45
   16     1    1.45
   17     1    1.45
   18     1    1.45
   19     1    1.45
   20     1    1.45
   21     1    1.45
   22     1    1.45
   23     1    1.45
   24     1    1.45
 Generate Potential Derived Charges using the Breneman model, NDens= 1.
 Grid spacing= 0.300 Box extension= 2.800
 NStep X,Y,Z=   51     36     34   Total possible points=       62424
 Number of Points to Fit=   15469

 **********************************************************************

            Electrostatic Properties Using The SCF Density.

 **********************************************************************

       Atomic Center    1 is at   2.709122 -1.616309 -0.330802
       Atomic Center    2 is at   2.293636 -0.143523 -0.122414
       Atomic Center    3 is at   0.485694  0.004517 -0.041994
       Atomic Center    4 is at  -0.324257 -1.122018 -0.006860
       Atomic Center    5 is at  -1.713022 -0.990970  0.015121
       Atomic Center    6 is at  -2.287996  0.285569 -0.008553
       Atomic Center    7 is at  -3.610567  0.520221  0.011596
       Atomic Center    8 is at  -4.494265 -0.566671  0.057063
       Atomic Center    9 is at  -1.461679  1.420858 -0.071428
       Atomic Center   10 is at  -0.085180  1.280268 -0.098123
       Atomic Center   11 is at   2.747139  0.494885  1.490173
       Atomic Center   12 is at   2.896872  0.915737 -1.063685
       Atomic Center   13 is at   2.256118 -2.223896  0.355595
       Atomic Center   14 is at   0.128774 -2.116012 -0.023049
       Atomic Center   15 is at  -2.333563 -1.886819  0.038743
       Atomic Center   16 is at  -4.349570 -1.174027  0.967653
       Atomic Center   17 is at  -4.387095 -1.218523 -0.827486
       Atomic Center   18 is at  -5.507664 -0.146652  0.067780
       Atomic Center   19 is at  -1.936816  2.402665 -0.114186
       Atomic Center   20 is at   0.565356  2.154096 -0.189712
       Atomic Center   21 is at   2.394263  1.527345  1.599930
       Atomic Center   22 is at   2.309397 -0.159676  2.254770
       Atomic Center   23 is at   3.843859  0.452302  1.509174
       Atomic Center   24 is at   2.762733  0.589176 -2.024340
   15469 points will be used for fitting atomic charges
 Fitting point charges to electrostatic potential
 Charges from ESP fit, RMS=   0.00317 RRMS=   0.16811:
 ESP charges:
               1
     1  N   -0.784225
     2  S    0.801516
     3  C   -0.091468
     4  C   -0.073670
     5  C   -0.263363
     6  C    0.417900
     7  O   -0.347401
     8  C    0.094474
     9  C   -0.278346
    10  C   -0.027443
    11  C   -0.355328
    12  N   -0.755937
    13  H    0.331993
    14  H    0.096034
    15  H    0.142278
    16  H    0.017460
    17  H    0.026676
    18  H    0.071407
    19  H    0.142648
    20  H    0.105400
    21  H    0.136875
    22  H    0.089171
    23  H    0.169054
    24  H    0.334296
 Sum of ESP charges =  -0.00000
 ESP charges with hydrogens summed into heavy atoms:
               1
     1  N   -0.452232
     2  S    0.801516
     3  C   -0.091468
     4  C    0.022364
     5  C   -0.121085
     6  C    0.417900
     7  O   -0.347401
     8  C    0.210017
     9  C   -0.135699
    10  C    0.077957
    11  C    0.039773
    12  N   -0.421641
 Charge=  -0.00000 Dipole=    -4.8288    -0.7365     2.5928 Tot=     5.5301
 -----------------------------------------------------------------

              Electrostatic Properties (Atomic Units)

 -----------------------------------------------------------------
    Center     Electric         -------- Electric Field --------
               Potential          X             Y             Z
 -----------------------------------------------------------------
    1 Atom    -18.431161
    2 Atom    -59.077958
    3 Atom    -14.738763
    4 Atom    -14.739599
    5 Atom    -14.746054
    6 Atom    -14.682700
    7 Atom    -22.293222
    8 Atom    -14.695542
    9 Atom    -14.750550
   10 Atom    -14.742894
   11 Atom    -14.738149
   12 Atom    -18.434010
   13 Atom     -1.049005
   14 Atom     -1.082910
   15 Atom     -1.078966
   16 Atom     -1.087713
   17 Atom     -1.087889
   18 Atom     -1.086648
   19 Atom     -1.086554
   20 Atom     -1.087472
   21 Atom     -1.078182
   22 Atom     -1.076288
   23 Atom     -1.079525
   24 Atom     -1.058111
 -----------------------------------------------------------------
 Unable to Open any file for archive entry.
 1\1\GINC-NOTCH206\SP\RPBE1PBE\def2TZVP\C8H12N2O1S1\U1414944\10-Feb-202
 5\0\\#N Guess=Read Geom=Check Integral(Ultrafine) Density Pop=(ChelpG,
 ReadRadii) NMR pbe1pbe EmpiricalDispersion=GD3BJ def2TZVP\\SDI0017_1\\
 0,1\N,0,-2.7054933271,1.5905075281,-0.443356739\S,0,-2.2768118758,0.16
 23843396,-0.0410504246\C,0,-0.4666796331,0.0317474324,0.0171853704\C,0
 ,0.3372784277,1.1542442082,-0.1241981562\C,0,1.72692526,1.0311739609,-
 0.1164368417\C,0,2.3086474089,-0.234643739,0.0250283095\O,0,3.63268095
 63,-0.4607300866,0.0469844767\C,0,4.5108304036,0.6241490767,-0.0803487
 401\C,0,1.4877505741,-1.3697281636,0.1405531193\C,0,0.1102032994,-1.23
 78361113,0.126508013\C,0,-2.689918843,-0.2455764962,1.6549969204\N,0,-
 2.8950423702,-1.0195926065,-0.8108804501\H,0,-2.2405978758,2.289235161
 3,0.1407384937\H,0,-0.1217904366,2.1350375348,-0.2685027302\H,0,2.3426
 095594,1.9231468744,-0.232595004\H,0,4.3832738733,1.3524218364,0.73961
 50441\H,0,4.3798412625,1.1457058986,-1.0445289782\H,0,5.5266442845,0.2
 123921064,-0.0346521122\H,0,1.9675121236,-2.3466347167,0.2242886432\H,
 0,-0.5371357749,-2.1175802736,0.1730053257\H,0,-2.3286323393,-1.251643
 1571,1.8996289906\H,0,-2.2387820804,0.5105528873,2.3102994404\H,0,-3.7
 861558615,-0.2036146275,1.6933678432\H,0,-2.7846171,-0.8301407436,-1.8
 105842065\\Version=ES64L-G16RevC.01\State=1-A\HF=-894.3882363\RMSD=4.8
 67e-09\Dipole=1.9316524,0.4331309,0.9352623\Quadrupole=-2.1279287,1.12
 56146,1.0023141,4.0865104,-6.5966681,0.802217\PG=C01 [X(C8H12N2O1S1)]\
 \@
 The archive entry for this job was punched.


 WE HAVE SEEN THAT MAN ON THE AVERAGE DOES NOT LIVE ABOVE
 TWO-AND-TWENTY YEARS.  DURING THESE TWO AND TWENTY
 YEARS HE IS LIABLE TO TWO AND TWENTY THOUSAND EVILS,
 MANY OF WHICH ARE INCURABLE.  YET EVEN IN THIS DREADFUL STATE
 MEN STILL STRUT AND POSE ON THE STAGE OF LIFE.
 THEY MAKE LOVE AT THE RISK OF DESTRUCTION,
 INTRIGUE, CARRY ON WAR, AND FORM PROJECTS, JUST AS IF THEY
 WERE TO LIVE IN LUXURY AND HAPPINESS FOR A THOUSAND
 AGES.

                                              -- VOLTAIRE
 Job cpu time:       0 days  0 hours 19 minutes 26.6 seconds.
 Elapsed time:       0 days  0 hours  1 minutes 19.6 seconds.
 File lengths (MBytes):  RWF=    130 Int=      0 D2E=      0 Chk=     20 Scr=      2
 Normal termination of Gaussian 16 at Mon Feb 10 19:52:21 2025.
