 Entering Gaussian System, Link 0=g16
 Input=SDI1953_1.com
 Output=SDI1953_1.log
 Initial command:
 /uufs/chpc.utah.edu/sys/installdir/gaussian16/C01/AVX/g16/l1.exe "/scratch/general/vast/u1414944/4689606-notchpeak.peaks/Gau-3084446.inp" -scrdir="/scratch/general/vast/u1414944/4689606-notchpeak.peaks/"
 Entering Link 1 = /uufs/chpc.utah.edu/sys/installdir/gaussian16/C01/AVX/g16/l1.exe PID=   3084447.
  
 Copyright (c) 1988-2019, Gaussian, Inc.  All Rights Reserved.
  
 This is part of the Gaussian(R) 16 program.  It is based on
 the Gaussian(R) 09 system (copyright 2009, Gaussian, Inc.),
 the Gaussian(R) 03 system (copyright 2003, Gaussian, Inc.),
 the Gaussian(R) 98 system (copyright 1998, Gaussian, Inc.),
 the Gaussian(R) 94 system (copyright 1995, Gaussian, Inc.),
 the Gaussian 92(TM) system (copyright 1992, Gaussian, Inc.),
 the Gaussian 90(TM) system (copyright 1990, Gaussian, Inc.),
 the Gaussian 88(TM) system (copyright 1988, Gaussian, Inc.),
 the Gaussian 86(TM) system (copyright 1986, Carnegie Mellon
 University), and the Gaussian 82(TM) system (copyright 1983,
 Carnegie Mellon University). Gaussian is a federally registered
 trademark of Gaussian, Inc.
  
 This software contains proprietary and confidential information,
 including trade secrets, belonging to Gaussian, Inc.
  
 This software is provided under written license and may be
 used, copied, transmitted, or stored only in accord with that
 written license.
  
 The following legend is applicable only to US Government
 contracts under FAR:
  
                    RESTRICTED RIGHTS LEGEND
  
 Use, reproduction and disclosure by the US Government is
 subject to restrictions as set forth in subparagraphs (a)
 and (c) of the Commercial Computer Software - Restricted
 Rights clause in FAR 52.227-19.
  
 Gaussian, Inc.
 340 Quinnipiac St., Bldg. 40, Wallingford CT 06492
  
  
 ---------------------------------------------------------------
 Warning -- This program may not be used in any manner that
 competes with the business of Gaussian, Inc. or will provide
 assistance to any competitor of Gaussian, Inc.  The licensee
 of this program is prohibited from giving any competitor of
 Gaussian, Inc. access to this program.  By using this program,
 the user acknowledges that Gaussian, Inc. is engaged in the
 business of creating and licensing software in the field of
 computational chemistry and represents and warrants to the
 licensee that it is not a competitor of Gaussian, Inc. and that
 it will not use this program in any manner prohibited above.
 ---------------------------------------------------------------
  

 Cite this work as:
 Gaussian 16, Revision C.01,
 M. J. Frisch, G. W. Trucks, H. B. Schlegel, G. E. Scuseria, 
 M. A. Robb, J. R. Cheeseman, G. Scalmani, V. Barone, 
 G. A. Petersson, H. Nakatsuji, X. Li, M. Caricato, A. V. Marenich, 
 J. Bloino, B. G. Janesko, R. Gomperts, B. Mennucci, H. P. Hratchian, 
 J. V. Ortiz, A. F. Izmaylov, J. L. Sonnenberg, D. Williams-Young, 
 F. Ding, F. Lipparini, F. Egidi, J. Goings, B. Peng, A. Petrone, 
 T. Henderson, D. Ranasinghe, V. G. Zakrzewski, J. Gao, N. Rega, 
 G. Zheng, W. Liang, M. Hada, M. Ehara, K. Toyota, R. Fukuda, 
 J. Hasegawa, M. Ishida, T. Nakajima, Y. Honda, O. Kitao, H. Nakai, 
 T. Vreven, K. Throssell, J. A. Montgomery, Jr., J. E. Peralta, 
 F. Ogliaro, M. J. Bearpark, J. J. Heyd, E. N. Brothers, K. N. Kudin, 
 V. N. Staroverov, T. A. Keith, R. Kobayashi, J. Normand, 
 K. Raghavachari, A. P. Rendell, J. C. Burant, S. S. Iyengar, 
 J. Tomasi, M. Cossi, J. M. Millam, M. Klene, C. Adamo, R. Cammi, 
 J. W. Ochterski, R. L. Martin, K. Morokuma, O. Farkas, 
 J. B. Foresman, and D. J. Fox, Gaussian, Inc., Wallingford CT, 2019.
 
 ******************************************
 Gaussian 16:  ES64L-G16RevC.01  3-Jul-2019
                 6-Jun-2025 
 ******************************************
 %NProcShared=16
 Will use up to   16 processors via shared memory.
 %Mem=40GB
 %chk=SDI1953_1.chk
 ----------------------------------------------------------------------
 #N OPT FREQ=NORAMAN Integral(Ultrafine) pbe1pbe EmpiricalDispersion=GD
 3BJ def2SVP
 ----------------------------------------------------------------------
 1/18=20,19=15,26=4,38=1/1,3;
 2/9=110,12=2,17=6,18=5,40=1/2;
 3/5=43,7=101,11=2,25=1,30=1,71=1,74=-13,75=-5,124=41/1,2,3;
 4//1;
 5/5=2,38=5/2;
 6/7=2,8=2,9=2,10=2,28=1/1;
 7//1,2,3,16;
 1/18=20,19=15,26=4/3(2);
 2/9=110/2;
 99//99;
 2/9=110/2;
 3/5=43,7=101,11=2,25=1,30=1,71=1,74=-13,75=-5,124=41/1,2,3;
 4/5=5,16=3,69=1/1;
 5/5=2,38=5/2;
 7//1,2,3,16;
 1/18=20,19=15,26=4/3(-5);
 2/9=110/2;
 6/7=2,8=2,9=2,10=2,19=2,28=1/1;
 99/9=1/99;
 ---------
 SDI1953_1
 ---------
 Symbolic Z-matrix:
 Charge =  0 Multiplicity = 1
 N                    -3.91042  -1.27959   0.44103 
 S                    -3.37483   0.11958   0.10184 
 C                    -1.58498  -0.16553   0.06055 
 C                    -1.08669  -1.45186  -0.03066 
 C                     0.28029  -1.64748  -0.0608 
 C                     1.12974  -0.54881   0.00454 
 O                     2.4976   -0.86536  -0.03766 
 C                     3.41081   0.08382  -0.00843 
 F                     4.61268  -0.47576  -0.08188 
 F                     3.39946   0.83054   1.1097 
 F                     3.32928   0.96036  -1.02594 
 C                     0.63416   0.74088   0.10869 
 C                    -0.74035   0.92283   0.13793 
 C                    -3.61056   0.59849  -1.64711 
 N                    -3.7668    1.41834   0.82048 
 H                    -4.86106  -1.29132   0.77059 
 H                    -1.78375  -2.27315  -0.06262 
 H                     0.71027  -2.63296  -0.13174 
 H                     1.28324   1.59946   0.17073 
 H                    -1.16447   1.91077   0.23366 
 H                    -4.66817   0.76859  -1.80956 
 H                    -3.05728   1.51347  -1.81088 
 H                    -3.24734  -0.20639  -2.27463 
 H                    -3.91873   1.31663   1.81049 
 

 GradGradGradGradGradGradGradGradGradGradGradGradGradGradGradGradGradGrad
 Berny optimization.
 Initialization pass.
                           ----------------------------
                           !    Initial Parameters    !
                           ! (Angstroms and Degrees)  !
 --------------------------                            --------------------------
 ! Name  Definition              Value          Derivative Info.                !
 --------------------------------------------------------------------------------
 ! R1    R(1,2)                  1.5361         estimate D2E/DX2                !
 ! R2    R(1,16)                 1.0062         estimate D2E/DX2                !
 ! R3    R(2,3)                  1.8129         estimate D2E/DX2                !
 ! R4    R(2,14)                 1.8286         estimate D2E/DX2                !
 ! R5    R(2,15)                 1.5352         estimate D2E/DX2                !
 ! R6    R(3,4)                  1.3825         estimate D2E/DX2                !
 ! R7    R(3,13)                 1.3798         estimate D2E/DX2                !
 ! R8    R(4,5)                  1.3812         estimate D2E/DX2                !
 ! R9    R(4,17)                 1.0777         estimate D2E/DX2                !
 ! R10   R(5,6)                  1.3903         estimate D2E/DX2                !
 ! R11   R(5,18)                 1.0775         estimate D2E/DX2                !
 ! R12   R(6,7)                  1.4046         estimate D2E/DX2                !
 ! R13   R(6,12)                 1.3856         estimate D2E/DX2                !
 ! R14   R(7,8)                  1.3175         estimate D2E/DX2                !
 ! R15   R(8,9)                  1.3278         estimate D2E/DX2                !
 ! R16   R(8,10)                 1.3446         estimate D2E/DX2                !
 ! R17   R(8,11)                 1.3455         estimate D2E/DX2                !
 ! R18   R(12,13)                1.3868         estimate D2E/DX2                !
 ! R19   R(12,19)                1.0781         estimate D2E/DX2                !
 ! R20   R(13,20)                1.0794         estimate D2E/DX2                !
 ! R21   R(14,21)                1.0835         estimate D2E/DX2                !
 ! R22   R(14,22)                1.0817         estimate D2E/DX2                !
 ! R23   R(14,23)                1.0833         estimate D2E/DX2                !
 ! R24   R(15,24)                1.0067         estimate D2E/DX2                !
 ! A1    A(2,1,16)             114.3527         estimate D2E/DX2                !
 ! A2    A(1,2,3)              101.8889         estimate D2E/DX2                !
 ! A3    A(1,2,14)             113.8792         estimate D2E/DX2                !
 ! A4    A(1,2,15)             125.3234         estimate D2E/DX2                !
 ! A5    A(3,2,14)              98.4344         estimate D2E/DX2                !
 ! A6    A(3,2,15)             113.3147         estimate D2E/DX2                !
 ! A7    A(14,2,15)            101.1419         estimate D2E/DX2                !
 ! A8    A(2,3,4)              120.2441         estimate D2E/DX2                !
 ! A9    A(2,3,13)             118.6215         estimate D2E/DX2                !
 ! A10   A(4,3,13)             121.1299         estimate D2E/DX2                !
 ! A11   A(3,4,5)              119.3358         estimate D2E/DX2                !
 ! A12   A(3,4,17)             118.5485         estimate D2E/DX2                !
 ! A13   A(5,4,17)             122.1105         estimate D2E/DX2                !
 ! A14   A(4,5,6)              119.4549         estimate D2E/DX2                !
 ! A15   A(4,5,18)             121.7278         estimate D2E/DX2                !
 ! A16   A(6,5,18)             118.8172         estimate D2E/DX2                !
 ! A17   A(5,6,7)              114.5501         estimate D2E/DX2                !
 ! A18   A(5,6,12)             121.3703         estimate D2E/DX2                !
 ! A19   A(7,6,12)             124.079          estimate D2E/DX2                !
 ! A20   A(6,7,8)              120.7953         estimate D2E/DX2                !
 ! A21   A(7,8,9)              108.8179         estimate D2E/DX2                !
 ! A22   A(7,8,10)             114.3747         estimate D2E/DX2                !
 ! A23   A(7,8,11)             114.2409         estimate D2E/DX2                !
 ! A24   A(9,8,10)             106.7198         estimate D2E/DX2                !
 ! A25   A(9,8,11)             106.7127         estimate D2E/DX2                !
 ! A26   A(10,8,11)            105.4601         estimate D2E/DX2                !
 ! A27   A(6,12,13)            118.5687         estimate D2E/DX2                !
 ! A28   A(6,12,19)            122.0232         estimate D2E/DX2                !
 ! A29   A(13,12,19)           119.4076         estimate D2E/DX2                !
 ! A30   A(3,13,12)            120.1343         estimate D2E/DX2                !
 ! A31   A(3,13,20)            119.1046         estimate D2E/DX2                !
 ! A32   A(12,13,20)           120.7565         estimate D2E/DX2                !
 ! A33   A(2,14,21)            108.0812         estimate D2E/DX2                !
 ! A34   A(2,14,22)            107.4816         estimate D2E/DX2                !
 ! A35   A(2,14,23)            108.4346         estimate D2E/DX2                !
 ! A36   A(21,14,22)           110.1072         estimate D2E/DX2                !
 ! A37   A(21,14,23)           110.9214         estimate D2E/DX2                !
 ! A38   A(22,14,23)           111.6707         estimate D2E/DX2                !
 ! A39   A(2,15,24)            114.4174         estimate D2E/DX2                !
 ! D1    D(16,1,2,3)           163.2017         estimate D2E/DX2                !
 ! D2    D(16,1,2,14)          -91.8987         estimate D2E/DX2                !
 ! D3    D(16,1,2,15)           33.0426         estimate D2E/DX2                !
 ! D4    D(1,2,3,4)             16.3811         estimate D2E/DX2                !
 ! D5    D(1,2,3,13)          -162.859          estimate D2E/DX2                !
 ! D6    D(14,2,3,4)          -100.3257         estimate D2E/DX2                !
 ! D7    D(14,2,3,13)           80.4343         estimate D2E/DX2                !
 ! D8    D(15,2,3,4)           153.6153         estimate D2E/DX2                !
 ! D9    D(15,2,3,13)          -25.6247         estimate D2E/DX2                !
 ! D10   D(1,2,14,21)           70.5199         estimate D2E/DX2                !
 ! D11   D(1,2,14,22)         -170.6658         estimate D2E/DX2                !
 ! D12   D(1,2,14,23)          -49.7969         estimate D2E/DX2                !
 ! D13   D(3,2,14,21)          177.582          estimate D2E/DX2                !
 ! D14   D(3,2,14,22)          -63.6037         estimate D2E/DX2                !
 ! D15   D(3,2,14,23)           57.2651         estimate D2E/DX2                !
 ! D16   D(15,2,14,21)         -66.5054         estimate D2E/DX2                !
 ! D17   D(15,2,14,22)          52.3089         estimate D2E/DX2                !
 ! D18   D(15,2,14,23)         173.1777         estimate D2E/DX2                !
 ! D19   D(1,2,15,24)           36.0312         estimate D2E/DX2                !
 ! D20   D(3,2,15,24)          -89.4447         estimate D2E/DX2                !
 ! D21   D(14,2,15,24)         166.2158         estimate D2E/DX2                !
 ! D22   D(2,3,4,5)            179.9969         estimate D2E/DX2                !
 ! D23   D(2,3,4,17)            -0.8171         estimate D2E/DX2                !
 ! D24   D(13,3,4,5)            -0.7825         estimate D2E/DX2                !
 ! D25   D(13,3,4,17)          178.4036         estimate D2E/DX2                !
 ! D26   D(2,3,13,12)         -179.9781         estimate D2E/DX2                !
 ! D27   D(2,3,13,20)            0.79           estimate D2E/DX2                !
 ! D28   D(4,3,13,12)            0.7888         estimate D2E/DX2                !
 ! D29   D(4,3,13,20)         -178.4431         estimate D2E/DX2                !
 ! D30   D(3,4,5,6)              0.1652         estimate D2E/DX2                !
 ! D31   D(3,4,5,18)          -179.9711         estimate D2E/DX2                !
 ! D32   D(17,4,5,6)          -178.9907         estimate D2E/DX2                !
 ! D33   D(17,4,5,18)            0.8731         estimate D2E/DX2                !
 ! D34   D(4,5,6,7)           -179.8337         estimate D2E/DX2                !
 ! D35   D(4,5,6,12)             0.4479         estimate D2E/DX2                !
 ! D36   D(18,5,6,7)             0.2985         estimate D2E/DX2                !
 ! D37   D(18,5,6,12)         -179.4199         estimate D2E/DX2                !
 ! D38   D(5,6,7,8)            178.7571         estimate D2E/DX2                !
 ! D39   D(12,6,7,8)            -1.5332         estimate D2E/DX2                !
 ! D40   D(5,6,12,13)           -0.4438         estimate D2E/DX2                !
 ! D41   D(5,6,12,19)          179.3305         estimate D2E/DX2                !
 ! D42   D(7,6,12,13)          179.8654         estimate D2E/DX2                !
 ! D43   D(7,6,12,19)           -0.3603         estimate D2E/DX2                !
 ! D44   D(6,7,8,9)           -178.9777         estimate D2E/DX2                !
 ! D45   D(6,7,8,10)            61.8077         estimate D2E/DX2                !
 ! D46   D(6,7,8,11)           -59.8582         estimate D2E/DX2                !
 ! D47   D(6,12,13,3)           -0.1704         estimate D2E/DX2                !
 ! D48   D(6,12,13,20)         179.0486         estimate D2E/DX2                !
 ! D49   D(19,12,13,3)        -179.9508         estimate D2E/DX2                !
 ! D50   D(19,12,13,20)         -0.7318         estimate D2E/DX2                !
 --------------------------------------------------------------------------------
 Trust Radius=3.00D-01 FncErr=1.00D-07 GrdErr=1.00D-06 EigMax=2.50D+02 EigMin=1.00D-04
 Number of steps in this run=    123 maximum allowed number of steps=    144.
 GradGradGradGradGradGradGradGradGradGradGradGradGradGradGradGradGradGrad

                          Input orientation:                          
 ---------------------------------------------------------------------
 Center     Atomic      Atomic             Coordinates (Angstroms)
 Number     Number       Type             X           Y           Z
 ---------------------------------------------------------------------
      1          7           0       -3.910417   -1.279586    0.441033
      2         16           0       -3.374834    0.119581    0.101839
      3          6           0       -1.584977   -0.165532    0.060549
      4          6           0       -1.086689   -1.451859   -0.030657
      5          6           0        0.280289   -1.647477   -0.060796
      6          6           0        1.129736   -0.548814    0.004537
      7          8           0        2.497600   -0.865362   -0.037661
      8          6           0        3.410809    0.083818   -0.008429
      9          9           0        4.612679   -0.475764   -0.081882
     10          9           0        3.399456    0.830538    1.109700
     11          9           0        3.329277    0.960363   -1.025943
     12          6           0        0.634156    0.740878    0.108694
     13          6           0       -0.740353    0.922827    0.137931
     14          6           0       -3.610557    0.598492   -1.647109
     15          7           0       -3.766798    1.418340    0.820477
     16          1           0       -4.861056   -1.291318    0.770594
     17          1           0       -1.783753   -2.273151   -0.062620
     18          1           0        0.710268   -2.632956   -0.131742
     19          1           0        1.283236    1.599456    0.170732
     20          1           0       -1.164467    1.910775    0.233662
     21          1           0       -4.668173    0.768594   -1.809564
     22          1           0       -3.057284    1.513473   -1.810877
     23          1           0       -3.247336   -0.206390   -2.274626
     24          1           0       -3.918730    1.316626    1.810485
 ---------------------------------------------------------------------
                    Distance matrix (angstroms):
                    1          2          3          4          5
     1  N    0.000000
     2  S    1.536089   0.000000
     3  C    2.606445   1.812893   0.000000
     4  C    2.868032   2.778954   1.382478   0.000000
     5  C    4.236649   4.063111   2.385395   1.381233   0.000000
     6  C    5.111527   4.554929   2.742210   2.393589   1.390284
     7  O    6.439209   5.956094   4.143289   3.631963   2.351320
     8  C    7.460646   6.786634   5.002481   4.752504   3.577748
     9  F    8.576872   8.011776   6.207050   5.782575   4.488090
    10  F    7.637669   6.885656   5.190130   5.160935   4.152087
    11  F    7.718974   6.850103   5.157325   5.129344   4.126580
    12  C    4.984563   4.056854   2.397593   2.790846   2.420370
    13  C    3.871925   2.754450   1.379820   2.405723   2.772665
    14  C    2.824435   1.828590   2.757318   3.631358   4.764394
    15  N    2.728261   1.535204   2.801157   4.018140   5.153134
    16  H    1.006211   2.155626   3.536134   3.861815   5.220296
    17  H    2.400737   2.878151   2.120552   1.077702   2.156790
    18  H    4.848754   4.931438   3.375397   2.152734   1.077535
    19  H    5.944408   4.887985   3.369565   3.868801   3.406183
    20  H    4.214457   2.848066   2.125523   3.373902   3.851647
    21  H    3.135988   2.397374   3.725051   4.574051   5.777791
    22  H    3.687834   2.387940   2.913586   3.980656   4.918718
    23  H    2.994367   2.402104   2.866732   3.354845   4.407031
    24  H    2.935266   2.155971   3.271921   4.367467   5.469860
                    6          7          8          9         10
     6  C    0.000000
     7  O    1.404647   0.000000
     8  C    2.367210   1.317478   0.000000
     9  F    3.484780   2.151116   1.327787   0.000000
    10  F    2.876739   2.237378   1.344593   2.144342   0.000000
    11  F    2.859630   2.236439   1.345479   2.144955   2.140736
    12  C    1.385552   2.464518   2.855740   4.164754   2.942267
    13  C    2.383434   3.703079   4.237630   5.537087   4.253337
    14  C    5.149235   6.484040   7.228398   8.439524   7.536188
    15  N    5.339616   6.722676   7.347522   8.638143   7.196135
    16  H    6.085043   7.415155   8.421498   9.546910   8.535416
    17  H    3.386188   4.506937   5.704535   6.644194   6.154095
    18  H    2.130298   2.515510   3.832622   4.459234   4.557269
    19  H    2.160150   2.755619   2.618363   3.931353   2.439525
    20  H    3.371267   4.603399   4.932497   6.258638   4.771137
    21  H    6.216291   7.560274   8.305598   9.521949   8.579777
    22  H    5.007983   6.297609   6.865054   8.110167   7.119386
    23  H    4.946777   6.200205   7.039231   8.164589   7.530520
    24  H    5.677000   7.024671   7.651824   8.920687   7.367716
                   11         12         13         14         15
    11  F    0.000000
    12  C    2.932448   0.000000
    13  C    4.232954   1.386808   0.000000
    14  C    6.976969   4.595727   3.395530   0.000000
    15  N    7.346651   4.509322   3.141778   2.604907   0.000000
    16  H    8.682117   5.896209   4.720476   3.313671   2.922693
    17  H    6.125903   3.867817   3.367964   3.754218   4.282456
    18  H    4.535498   3.383247   3.849756   5.604295   6.112596
    19  H    2.454945   1.078104   2.133967   5.315608   5.094881
    20  H    4.762733   2.149260   1.079387   3.353020   2.712742
    21  H    8.038037   5.638721   4.386831   1.083456   2.855129
    22  H    6.458344   4.231830   3.084620   1.081721   2.726992
    23  H    6.795025   4.652259   3.657940   1.083302   3.534013
    24  H    7.791396   4.894522   3.613114   3.544805   1.006750
                   16         17         18         19         20
    16  H    0.000000
    17  H    3.335871   0.000000
    18  H    5.801194   2.520789   0.000000
    19  H    6.816798   4.945499   4.281716   0.000000
    20  H    4.920006   4.239875   4.928858   2.468224   0.000000
    21  H    3.307212   4.541354   6.581280   6.327019   4.213704
    22  H    4.217160   4.360827   5.848659   4.772241   2.814382
    23  H    3.613105   3.362521   5.113003   5.455909   3.887447
    24  H    2.961541   4.577461   6.387415   5.461615   3.228831
                   21         22         23         24
    21  H    0.000000
    22  H    1.774770   0.000000
    23  H    1.784840   1.791399   0.000000
    24  H    3.737212   3.727613   4.411177   0.000000
 Stoichiometry    C8H9F3N2OS
 Framework group  C1[X(C8H9F3N2OS)]
 Deg. of freedom    66
 Full point group                 C1      NOp   1
 Largest Abelian subgroup         C1      NOp   1
 Largest concise Abelian subgroup C1      NOp   1
                         Standard orientation:                         
 ---------------------------------------------------------------------
 Center     Atomic      Atomic             Coordinates (Angstroms)
 Number     Number       Type             X           Y           Z
 ---------------------------------------------------------------------
      1          7           0       -3.773353    1.297041   -0.460149
      2         16           0       -3.245243   -0.107360   -0.131017
      3          6           0       -1.454432    0.169828   -0.078635
      4          6           0       -0.951229    1.453174    0.026521
      5          6           0        0.416393    1.642754    0.064932
      6          6           0        1.261556    0.541154   -0.006241
      7          8           0        2.630509    0.851546    0.045321
      8          6           0        3.539883   -0.101172    0.011896
      9          9           0        4.743708    0.452661    0.096109
     10          9           0        3.530786   -0.837763   -1.112952
     11          9           0        3.449812   -0.986470    1.021077
     12          6           0        0.761109   -0.745452   -0.124365
     13          6           0       -0.613991   -0.921340   -0.161787
     14          6           0       -3.491356   -0.600966    1.612405
     15          7           0       -3.639162   -1.397949   -0.863177
     16          1           0       -4.722341    1.315736   -0.794116
     17          1           0       -1.645008    2.277075    0.062555
     18          1           0        0.850130    2.625736    0.146795
     19          1           0        1.406894   -1.606164   -0.191037
     20          1           0       -1.041755   -1.906592   -0.268428
     21          1           0       -4.550439   -0.768063    1.768282
     22          1           0       -2.942695   -1.519703    1.770564
     23          1           0       -3.127800    0.196710    2.248867
     24          1           0       -3.785913   -1.286708   -1.852942
 ---------------------------------------------------------------------
 Rotational constants (GHZ):           1.6241692           0.2224353           0.2129317
 Standard basis: def2SVP (5D, 7F)
 There are   274 symmetry adapted cartesian basis functions of A   symmetry.
 There are   259 symmetry adapted basis functions of A   symmetry.
   259 basis functions,   450 primitive gaussians,   274 cartesian basis functions
    61 alpha electrons       61 beta electrons
       nuclear repulsion energy      1166.1927916958 Hartrees.
 NAtoms=   24 NActive=   24 NUniq=   24 SFac= 1.00D+00 NAtFMM=   60 NAOKFM=F Big=F
 Integral buffers will be    131072 words long.
 Raffenetti 2 integral format.
 Two-electron integral symmetry is turned on.
 Nuclear repulsion after empirical dispersion term =     1166.1667387137 Hartrees.
 One-electron integrals computed using PRISM.
   1 Symmetry operations used in ECPInt.
 ECPInt:  NShTT=    7140 NPrTT=   27028 LenC2=    6450 LenP2D=   17503.
 LDataN:  DoStor=T MaxTD1= 4 Len=   56
 NBasis=   259 RedAO= T EigKep=  2.38D-04  NBF=   259
 NBsUse=   259 1.00D-06 EigRej= -1.00D+00 NBFU=   259
 ExpMin= 1.22D-01 ExpMax= 9.18D+03 ExpMxC= 1.38D+03 IAcc=3 IRadAn=         5 AccDes= 0.00D+00
 Harris functional with IExCor= 1009 and IRadAn=       5 diagonalized for initial guess.
 HarFok:  IExCor= 1009 AccDes= 0.00D+00 IRadAn=         5 IDoV= 1 UseB2=F ITyADJ=14
 ICtDFT=  3500011 ScaDFX=  1.000000  1.000000  1.000000  1.000000
 FoFCou: FMM=F IPFlag=           0 FMFlag=      100000 FMFlg1=           0
         NFxFlg=           0 DoJE=T BraDBF=F KetDBF=T FulRan=T
         wScrn=  0.000000 ICntrl=       500 IOpCl=  0 I1Cent=   200000004 NGrid=           0
         NMat0=    1 NMatS0=      1 NMatT0=    0 NMatD0=    1 NMtDS0=    0 NMtDT0=    0
 Petite list used in FoFCou.
 Requested convergence on RMS density matrix=1.00D-08 within 128 cycles.
 Requested convergence on MAX density matrix=1.00D-06.
 Requested convergence on             energy=1.00D-06.
 No special actions if energy rises.
 Integral accuracy reduced to 1.0D-05 until final iterations.
 Initial convergence to 1.0D-05 achieved.  Increase integral accuracy.
 SCF Done:  E(RPBE1PBE) =  -1190.91834788     A.U. after   14 cycles
            NFock= 14  Conv=0.59D-08     -V/T= 2.0057

 **********************************************************************

            Population analysis using the SCF Density.

 **********************************************************************

 Orbital symmetries:
       Occupied  (A) (A) (A) (A) (A) (A) (A) (A) (A) (A) (A) (A)
                 (A) (A) (A) (A) (A) (A) (A) (A) (A) (A) (A) (A)
                 (A) (A) (A) (A) (A) (A) (A) (A) (A) (A) (A) (A)
                 (A) (A) (A) (A) (A) (A) (A) (A) (A) (A) (A) (A)
                 (A) (A) (A) (A) (A) (A) (A) (A) (A) (A) (A) (A)
                 (A)
       Virtual   (A) (A) (A) (A) (A) (A) (A) (A) (A) (A) (A) (A)
                 (A) (A) (A) (A) (A) (A) (A) (A) (A) (A) (A) (A)
                 (A) (A) (A) (A) (A) (A) (A) (A) (A) (A) (A) (A)
                 (A) (A) (A) (A) (A) (A) (A) (A) (A) (A) (A) (A)
                 (A) (A) (A) (A) (A) (A) (A) (A) (A) (A) (A) (A)
                 (A) (A) (A) (A) (A) (A) (A) (A) (A) (A) (A) (A)
                 (A) (A) (A) (A) (A) (A) (A) (A) (A) (A) (A) (A)
                 (A) (A) (A) (A) (A) (A) (A) (A) (A) (A) (A) (A)
                 (A) (A) (A) (A) (A) (A) (A) (A) (A) (A) (A) (A)
                 (A) (A) (A) (A) (A) (A) (A) (A) (A) (A) (A) (A)
                 (A) (A) (A) (A) (A) (A) (A) (A) (A) (A) (A) (A)
                 (A) (A) (A) (A) (A) (A) (A) (A) (A) (A) (A) (A)
                 (A) (A) (A) (A) (A) (A) (A) (A) (A) (A) (A) (A)
                 (A) (A) (A) (A) (A) (A) (A) (A) (A) (A) (A) (A)
                 (A) (A) (A) (A) (A) (A) (A) (A) (A) (A) (A) (A)
                 (A) (A) (A) (A) (A) (A) (A) (A) (A) (A) (A) (A)
                 (A) (A) (A) (A) (A) (A)
 The electronic state is 1-A.
 Alpha  occ. eigenvalues --  -89.18947 -24.81675 -24.81655 -24.81639 -19.30288
 Alpha  occ. eigenvalues --  -14.35099 -14.35073 -10.53954 -10.33802 -10.27195
 Alpha  occ. eigenvalues --  -10.26957 -10.26797 -10.26445 -10.26395 -10.26225
 Alpha  occ. eigenvalues --   -8.16349  -6.10484  -6.10386  -6.10355  -1.36137
 Alpha  occ. eigenvalues --   -1.25550  -1.25105  -1.15580  -1.01193  -0.91538
 Alpha  occ. eigenvalues --   -0.85980  -0.82252  -0.79983  -0.77155  -0.73697
 Alpha  occ. eigenvalues --   -0.68808  -0.67200  -0.64502  -0.63903  -0.62794
 Alpha  occ. eigenvalues --   -0.60770  -0.55457  -0.54329  -0.51600  -0.50737
 Alpha  occ. eigenvalues --   -0.50423  -0.49426  -0.48454  -0.47964  -0.47456
 Alpha  occ. eigenvalues --   -0.46982  -0.45726  -0.45313  -0.44468  -0.44070
 Alpha  occ. eigenvalues --   -0.43654  -0.43245  -0.41594  -0.39259  -0.38587
 Alpha  occ. eigenvalues --   -0.35392  -0.29963  -0.28797  -0.27405  -0.26356
 Alpha  occ. eigenvalues --   -0.24891
 Alpha virt. eigenvalues --   -0.03814  -0.03210   0.05651   0.07217   0.07581
 Alpha virt. eigenvalues --    0.08784   0.09441   0.10423   0.10848   0.11722
 Alpha virt. eigenvalues --    0.13075   0.14068   0.14441   0.14941   0.16789
 Alpha virt. eigenvalues --    0.18217   0.18430   0.19544   0.20209   0.23745
 Alpha virt. eigenvalues --    0.26504   0.27481   0.29073   0.30684   0.31587
 Alpha virt. eigenvalues --    0.34097   0.35824   0.37695   0.39819   0.41145
 Alpha virt. eigenvalues --    0.41567   0.42947   0.43727   0.44593   0.46447
 Alpha virt. eigenvalues --    0.47053   0.47987   0.49456   0.49816   0.52723
 Alpha virt. eigenvalues --    0.53389   0.53767   0.57635   0.58158   0.60130
 Alpha virt. eigenvalues --    0.60259   0.62437   0.64240   0.64396   0.65313
 Alpha virt. eigenvalues --    0.66810   0.67000   0.68177   0.68758   0.68825
 Alpha virt. eigenvalues --    0.70920   0.71645   0.72275   0.72650   0.74337
 Alpha virt. eigenvalues --    0.76343   0.77975   0.79638   0.81802   0.82548
 Alpha virt. eigenvalues --    0.84361   0.85090   0.86740   0.88419   0.89873
 Alpha virt. eigenvalues --    0.94010   0.94560   0.96683   1.00252   1.01036
 Alpha virt. eigenvalues --    1.03208   1.04027   1.05722   1.08628   1.10409
 Alpha virt. eigenvalues --    1.11714   1.12413   1.14858   1.15728   1.16912
 Alpha virt. eigenvalues --    1.17852   1.19097   1.21293   1.21934   1.22506
 Alpha virt. eigenvalues --    1.24882   1.25233   1.28287   1.29658   1.31771
 Alpha virt. eigenvalues --    1.34232   1.34775   1.38190   1.39692   1.43226
 Alpha virt. eigenvalues --    1.44423   1.46869   1.47669   1.48847   1.49882
 Alpha virt. eigenvalues --    1.51267   1.51413   1.53488   1.55389   1.58888
 Alpha virt. eigenvalues --    1.65071   1.67449   1.69124   1.70718   1.72029
 Alpha virt. eigenvalues --    1.72197   1.74428   1.74954   1.75870   1.77191
 Alpha virt. eigenvalues --    1.77895   1.79630   1.80966   1.82841   1.83721
 Alpha virt. eigenvalues --    1.84164   1.89376   1.90295   1.93064   1.94099
 Alpha virt. eigenvalues --    1.94730   1.95663   1.97604   1.99742   2.00706
 Alpha virt. eigenvalues --    2.01534   2.05388   2.09093   2.11738   2.12626
 Alpha virt. eigenvalues --    2.15610   2.17320   2.18136   2.21710   2.25401
 Alpha virt. eigenvalues --    2.27469   2.27746   2.28362   2.32720   2.34848
 Alpha virt. eigenvalues --    2.35398   2.39527   2.40257   2.42951   2.45605
 Alpha virt. eigenvalues --    2.46672   2.54512   2.56998   2.58222   2.60092
 Alpha virt. eigenvalues --    2.61846   2.62514   2.63942   2.64826   2.73708
 Alpha virt. eigenvalues --    2.74249   2.75600   2.84023   2.86207   2.87011
 Alpha virt. eigenvalues --    2.87522   2.89881   2.90932   2.92436   2.94898
 Alpha virt. eigenvalues --    2.95710   3.00165   3.03247   3.03835   3.04609
 Alpha virt. eigenvalues --    3.05312   3.05893   3.07828   3.10213   3.15162
 Alpha virt. eigenvalues --    3.19179   3.23902   3.27414   3.31566   3.33107
 Alpha virt. eigenvalues --    3.35348   3.51021   3.55577   3.59611   3.68770
 Alpha virt. eigenvalues --    3.75685   3.85243   3.91255
          Condensed to atoms (all electrons):
               1          2          3          4          5          6
     1  N    6.865008   0.378478  -0.102823  -0.001950   0.001883  -0.000067
     2  S    0.378478  14.607224   0.119538  -0.030503   0.003301   0.000512
     3  C   -0.102823   0.119538   5.930314   0.238282   0.110609  -0.211584
     4  C   -0.001950  -0.030503   0.238282   5.081187   0.221408   0.141149
     5  C    0.001883   0.003301   0.110609   0.221408   5.209284   0.227788
     6  C   -0.000067   0.000512  -0.211584   0.141149   0.227788   5.159559
     7  O   -0.000000   0.000001   0.000061   0.003390  -0.067406   0.329650
     8  C    0.000000  -0.000000   0.000226  -0.000106   0.001646  -0.018964
     9  F   -0.000000  -0.000000   0.000000  -0.000000  -0.000128   0.000029
    10  F   -0.000000   0.000000  -0.000004   0.000005  -0.000455  -0.006033
    11  F   -0.000000   0.000000  -0.000003   0.000006  -0.000508  -0.005679
    12  C   -0.000036   0.001391   0.099522  -0.127536   0.037998   0.170705
    13  C    0.006998  -0.057625   0.200616   0.059461  -0.133181   0.140106
    14  C   -0.048322   0.286268  -0.120251  -0.005768  -0.000296  -0.000136
    15  N   -0.039459   0.354069  -0.068116   0.003394   0.000044  -0.000045
    16  H    0.336223  -0.018938   0.011538  -0.000313  -0.000050   0.000008
    17  H    0.031757  -0.012349  -0.059830   0.449052  -0.064159   0.013593
    18  H   -0.000015  -0.000085   0.016738  -0.070171   0.456096  -0.075051
    19  H    0.000001  -0.000107   0.016780  -0.002042   0.011540  -0.084159
    20  H    0.000695  -0.007533  -0.078868   0.011942  -0.001788   0.013966
    21  H    0.000692  -0.007629   0.007560   0.000002  -0.000000   0.000003
    22  H    0.003419  -0.005588   0.001048   0.000240  -0.000012   0.000014
    23  H    0.003697  -0.015108   0.005960   0.002167   0.000237   0.000000
    24  H   -0.001281  -0.012427  -0.001831  -0.000046  -0.000031  -0.000001
               7          8          9         10         11         12
     1  N   -0.000000   0.000000  -0.000000  -0.000000  -0.000000  -0.000036
     2  S    0.000001  -0.000000  -0.000000   0.000000   0.000000   0.001391
     3  C    0.000061   0.000226   0.000000  -0.000004  -0.000003   0.099522
     4  C    0.003390  -0.000106  -0.000000   0.000005   0.000006  -0.127536
     5  C   -0.067406   0.001646  -0.000128  -0.000455  -0.000508   0.037998
     6  C    0.329650  -0.018964   0.000029  -0.006033  -0.005679   0.170705
     7  O    7.871134   0.379845  -0.054564  -0.052259  -0.052547  -0.081836
     8  C    0.379845   3.940238   0.378273   0.354156   0.353358   0.003753
     9  F   -0.054564   0.378273   8.927197  -0.046784  -0.046650   0.000256
    10  F   -0.052259   0.354156  -0.046784   8.980842  -0.049856   0.004365
    11  F   -0.052547   0.353358  -0.046650  -0.049856   8.983652   0.004899
    12  C   -0.081836   0.003753   0.000256   0.004365   0.004899   5.259442
    13  C    0.004125  -0.000285   0.000001   0.000199   0.000107   0.243200
    14  C   -0.000000  -0.000000  -0.000000  -0.000000  -0.000000  -0.000718
    15  N   -0.000000   0.000000   0.000000   0.000000  -0.000000   0.001600
    16  H    0.000000  -0.000000  -0.000000   0.000000   0.000000  -0.000009
    17  H   -0.000056  -0.000000  -0.000000  -0.000000   0.000000  -0.002010
    18  H    0.000303  -0.000130  -0.000040   0.000016   0.000016   0.017614
    19  H   -0.005464   0.007040   0.000230   0.006156   0.005321   0.456834
    20  H   -0.000064  -0.000027  -0.000000  -0.000006  -0.000008  -0.044982
    21  H    0.000000   0.000000  -0.000000   0.000000   0.000000  -0.000000
    22  H   -0.000000   0.000000   0.000000  -0.000000   0.000000   0.000303
    23  H   -0.000000   0.000000   0.000000   0.000000  -0.000000   0.000033
    24  H   -0.000000  -0.000000  -0.000000   0.000000   0.000000  -0.000130
              13         14         15         16         17         18
     1  N    0.006998  -0.048322  -0.039459   0.336223   0.031757  -0.000015
     2  S   -0.057625   0.286268   0.354069  -0.018938  -0.012349  -0.000085
     3  C    0.200616  -0.120251  -0.068116   0.011538  -0.059830   0.016738
     4  C    0.059461  -0.005768   0.003394  -0.000313   0.449052  -0.070171
     5  C   -0.133181  -0.000296   0.000044  -0.000050  -0.064159   0.456096
     6  C    0.140106  -0.000136  -0.000045   0.000008   0.013593  -0.075051
     7  O    0.004125  -0.000000  -0.000000   0.000000  -0.000056   0.000303
     8  C   -0.000285  -0.000000   0.000000  -0.000000  -0.000000  -0.000130
     9  F    0.000001  -0.000000   0.000000  -0.000000  -0.000000  -0.000040
    10  F    0.000199  -0.000000   0.000000   0.000000  -0.000000   0.000016
    11  F    0.000107  -0.000000  -0.000000   0.000000   0.000000   0.000016
    12  C    0.243200  -0.000718   0.001600  -0.000009  -0.002010   0.017614
    13  C    5.132391  -0.003844   0.008214  -0.000322   0.013231  -0.002770
    14  C   -0.003844   4.948853  -0.097000  -0.004772   0.000867   0.000012
    15  N    0.008214  -0.097000   6.902452  -0.000684   0.000364   0.000001
    16  H   -0.000322  -0.004772  -0.000684   0.549026  -0.000973  -0.000002
    17  H    0.013231   0.000867   0.000364  -0.000973   0.594082  -0.010768
    18  H   -0.002770   0.000012   0.000001  -0.000002  -0.010768   0.636853
    19  H   -0.055454   0.000020  -0.000016  -0.000000   0.000019  -0.000185
    20  H    0.438766  -0.000123   0.022751  -0.000049  -0.000355   0.000032
    21  H    0.000098   0.363426   0.007088   0.001582  -0.000074  -0.000000
    22  H    0.003384   0.355775   0.003876  -0.000047  -0.000054   0.000000
    23  H   -0.001359   0.363241   0.005977  -0.000139   0.000320  -0.000008
    24  H   -0.001038   0.009041   0.328252   0.001482  -0.000009   0.000000
              19         20         21         22         23         24
     1  N    0.000001   0.000695   0.000692   0.003419   0.003697  -0.001281
     2  S   -0.000107  -0.007533  -0.007629  -0.005588  -0.015108  -0.012427
     3  C    0.016780  -0.078868   0.007560   0.001048   0.005960  -0.001831
     4  C   -0.002042   0.011942   0.000002   0.000240   0.002167  -0.000046
     5  C    0.011540  -0.001788  -0.000000  -0.000012   0.000237  -0.000031
     6  C   -0.084159   0.013966   0.000003   0.000014   0.000000  -0.000001
     7  O   -0.005464  -0.000064   0.000000  -0.000000  -0.000000  -0.000000
     8  C    0.007040  -0.000027   0.000000   0.000000   0.000000  -0.000000
     9  F    0.000230  -0.000000  -0.000000   0.000000   0.000000  -0.000000
    10  F    0.006156  -0.000006   0.000000  -0.000000   0.000000   0.000000
    11  F    0.005321  -0.000008   0.000000   0.000000  -0.000000   0.000000
    12  C    0.456834  -0.044982  -0.000000   0.000303   0.000033  -0.000130
    13  C   -0.055454   0.438766   0.000098   0.003384  -0.001359  -0.001038
    14  C    0.000020  -0.000123   0.363426   0.355775   0.363241   0.009041
    15  N   -0.000016   0.022751   0.007088   0.003876   0.005977   0.328252
    16  H   -0.000000  -0.000049   0.001582  -0.000047  -0.000139   0.001482
    17  H    0.000019  -0.000355  -0.000074  -0.000054   0.000320  -0.000009
    18  H   -0.000185   0.000032  -0.000000   0.000000  -0.000008   0.000000
    19  H    0.614831  -0.011811  -0.000001  -0.000009  -0.000001   0.000003
    20  H   -0.011811   0.620994  -0.000129   0.001390   0.000013  -0.000485
    21  H   -0.000001  -0.000129   0.556762  -0.006239  -0.010027  -0.000507
    22  H   -0.000009   0.001390  -0.006239   0.577762  -0.013626  -0.000752
    23  H   -0.000001   0.000013  -0.010027  -0.013626   0.585067  -0.000405
    24  H    0.000003  -0.000485  -0.000507  -0.000752  -0.000405   0.554091
 Mulliken charges:
               1
     1  N   -0.434900
     2  S    0.417110
     3  C   -0.115484
     4  C    0.026748
     5  C   -0.013820
     6  C    0.204635
     7  O   -0.274312
     8  C    0.600978
     9  F   -0.157820
    10  F   -0.190344
    11  F   -0.192110
    12  C   -0.044656
    13  C    0.004982
    14  C   -0.046275
    15  N   -0.432762
    16  H    0.126441
    17  H    0.047352
    18  H    0.031543
    19  H    0.040474
    20  H    0.035678
    21  H    0.087393
    22  H    0.079115
    23  H    0.073962
    24  H    0.126072
 Sum of Mulliken charges =  -0.00000
 Mulliken charges with hydrogens summed into heavy atoms:
               1
     1  N   -0.308459
     2  S    0.417110
     3  C   -0.115484
     4  C    0.074100
     5  C    0.017723
     6  C    0.204635
     7  O   -0.274312
     8  C    0.600978
     9  F   -0.157820
    10  F   -0.190344
    11  F   -0.192110
    12  C   -0.004182
    13  C    0.040660
    14  C    0.194195
    15  N   -0.306690
 Electronic spatial extent (au):  <R**2>=           4767.4678
 Charge=             -0.0000 electrons
 Dipole moment (field-independent basis, Debye):
    X=             -1.4329    Y=              0.1967    Z=              0.9827  Tot=              1.7486
 Quadrupole moment (field-independent basis, Debye-Ang):
   XX=            -97.1919   YY=            -93.9549   ZZ=            -89.5902
   XY=             -1.0167   XZ=             -2.6278   YZ=             -0.0328
 Traceless Quadrupole moment (field-independent basis, Debye-Ang):
   XX=             -3.6129   YY=             -0.3759   ZZ=              3.9888
   XY=             -1.0167   XZ=             -2.6278   YZ=             -0.0328
 Octapole moment (field-independent basis, Debye-Ang**2):
  XXX=              6.5028  YYY=              0.1159  ZZZ=             -4.0532  XYY=             47.6506
  XXY=              8.5157  XXZ=              2.6765  XZZ=              3.4586  YZZ=             -6.5575
  YYZ=              3.3223  XYZ=              3.4903
 Hexadecapole moment (field-independent basis, Debye-Ang**3):
 XXXX=          -4589.3491 YYYY=           -587.7819 ZZZZ=           -313.2967 XXXY=           -108.5560
 XXXZ=             14.5612 YYYX=            -35.3035 YYYZ=             -0.1318 ZZZX=             24.3220
 ZZZY=              9.9388 XXYY=           -972.5957 XXZZ=           -764.6344 YYZZ=           -155.8113
 XXYZ=            -20.6303 YYXZ=             -8.0726 ZZXY=             13.8694
 N-N= 1.166166738714D+03 E-N=-5.138624697092D+03  KE= 1.184214890103D+03
   1 Symmetry operations used in ECPInt.
 ECPInt:  NShTT=    7140 NPrTT=   27028 LenC2=    6450 LenP2D=   17503.
 LDataN:  DoStor=T MaxTD1= 5 Len=  102
 Calling FoFJK, ICntrl=      2127 FMM=F ISym2X=0 I1Cent= 0 IOpClX= 0 NMat=1 NMatS=1 NMatT=0.
 ***** Axes restored to original set *****
 -------------------------------------------------------------------
 Center     Atomic                   Forces (Hartrees/Bohr)
 Number     Number              X              Y              Z
 -------------------------------------------------------------------
      1        7           0.015594724   -0.009178307   -0.002324155
      2       16          -0.004107178    0.000543767   -0.005050232
      3        6          -0.010625446   -0.001849047    0.000377357
      4        6           0.002130499   -0.001595508   -0.000287088
      5        6           0.003458745    0.004847898    0.000157003
      6        6           0.015647309   -0.007387250   -0.000721471
      7        8          -0.025968099   -0.003266446    0.000589885
      8        6           0.033237453    0.025130646   -0.000121248
      9        9          -0.007274383   -0.003995684    0.000087225
     10        9          -0.006681327   -0.006669429   -0.001743554
     11        9          -0.006388620   -0.006997012    0.001658863
     12        6          -0.000196914    0.000876117   -0.000125138
     13        6          -0.000275203   -0.000022475   -0.000220327
     14        6           0.003079653   -0.002501313    0.015451029
     15        7          -0.002340682    0.013913200   -0.015221890
     16        1          -0.010829229    0.005406233   -0.000132513
     17        1          -0.005971113   -0.008291959   -0.000043117
     18        1           0.003741609   -0.009196703   -0.000589894
     19        1           0.005249971    0.005743474    0.000543025
     20        1          -0.003435811    0.009657027    0.001522887
     21        1          -0.010365239    0.000990874    0.001746573
     22        1           0.005311535    0.008873658   -0.002725366
     23        1           0.003914883   -0.007998608   -0.003898642
     24        1           0.003092863   -0.007033152    0.011070789
 -------------------------------------------------------------------
 Cartesian Forces:  Max     0.033237453 RMS     0.008511431

 GradGradGradGradGradGradGradGradGradGradGradGradGradGradGradGradGradGrad
 Berny optimization.
 FormGI is forming the generalized inverse of G from B-inverse, IUseBI=4.
 Internal  Forces:  Max     0.014314596 RMS     0.005078436
 Search for a local minimum.
 Step number   1 out of a maximum of  123
 All quantities printed in internal units (Hartrees-Bohrs-Radians)
 Mixed Optimization -- RFO/linear search
 Second derivative matrix not updated -- first step.
 ITU=  0
     Eigenvalues ---    0.00230   0.00230   0.01508   0.01630   0.02147
     Eigenvalues ---    0.02250   0.02272   0.02282   0.02299   0.02308
     Eigenvalues ---    0.02329   0.02337   0.02783   0.03464   0.03476
     Eigenvalues ---    0.05925   0.06048   0.06480   0.08527   0.09477
     Eigenvalues ---    0.15117   0.15635   0.15998   0.15999   0.16000
     Eigenvalues ---    0.16000   0.16000   0.16000   0.16000   0.16000
     Eigenvalues ---    0.16000   0.16036   0.19122   0.22000   0.22994
     Eigenvalues ---    0.23988   0.23999   0.24998   0.25000   0.25000
     Eigenvalues ---    0.25000   0.25000   0.25000   0.25127   0.35580
     Eigenvalues ---    0.35598   0.35787   0.36068   0.36224   0.36273
     Eigenvalues ---    0.36294   0.43574   0.43837   0.44859   0.46521
     Eigenvalues ---    0.46613   0.47688   0.48388   0.48409   0.48935
     Eigenvalues ---    0.55995   0.56188   0.60031   0.62564   0.65867
     Eigenvalues ---    0.66107
 RFO step:  Lambda=-9.66808917D-03 EMin= 2.30000000D-03
 Linear search not attempted -- first point.
 Iteration  1 RMS(Cart)=  0.03432453 RMS(Int)=  0.00091102
 Iteration  2 RMS(Cart)=  0.00103970 RMS(Int)=  0.00015332
 Iteration  3 RMS(Cart)=  0.00000116 RMS(Int)=  0.00015332
 Iteration  4 RMS(Cart)=  0.00000000 RMS(Int)=  0.00015332
 Variable       Old X    -DE/DX   Delta X   Delta X   Delta X     New X
                                 (Linear)    (Quad)   (Total)
    R1        2.90279   0.00123   0.00000   0.00184   0.00184   2.90463
    R2        1.90146   0.01012   0.00000   0.02128   0.02128   1.92274
    R3        3.42587  -0.00286   0.00000  -0.01096  -0.01096   3.41491
    R4        3.45553  -0.01053   0.00000  -0.04219  -0.04219   3.41334
    R5        2.90111   0.00369   0.00000   0.00549   0.00549   2.90661
    R6        2.61251   0.01095   0.00000   0.02255   0.02256   2.63506
    R7        2.60748   0.00909   0.00000   0.01862   0.01862   2.62610
    R8        2.61015   0.00790   0.00000   0.01586   0.01586   2.62601
    R9        2.03656   0.01018   0.00000   0.02734   0.02734   2.06390
   R10        2.62726   0.00370   0.00000   0.00718   0.00717   2.63443
   R11        2.03625   0.00994   0.00000   0.02668   0.02668   2.06293
   R12        2.65440  -0.01369   0.00000  -0.02988  -0.02988   2.62452
   R13        2.61831   0.00746   0.00000   0.01473   0.01472   2.63304
   R14        2.48967   0.01431   0.00000   0.02253   0.02253   2.51221
   R15        2.50915  -0.00491   0.00000  -0.00804  -0.00804   2.50111
   R16        2.54091  -0.00510   0.00000  -0.00892  -0.00892   2.53199
   R17        2.54259  -0.00543   0.00000  -0.00953  -0.00953   2.53306
   R18        2.62069   0.00691   0.00000   0.01415   0.01415   2.63484
   R19        2.03732   0.00777   0.00000   0.02088   0.02088   2.05820
   R20        2.03975   0.01032   0.00000   0.02788   0.02788   2.06762
   R21        2.04744   0.01001   0.00000   0.02739   0.02739   2.07483
   R22        2.04416   0.01064   0.00000   0.02894   0.02894   2.07309
   R23        2.04714   0.00951   0.00000   0.02602   0.02602   2.07316
   R24        1.90248   0.01113   0.00000   0.02344   0.02344   1.92592
    A1        1.99583  -0.01117   0.00000  -0.06585  -0.06585   1.92998
    A2        1.77830  -0.00196   0.00000  -0.01049  -0.01046   1.76784
    A3        1.98757  -0.00123   0.00000  -0.00691  -0.00687   1.98070
    A4        2.18731   0.00378   0.00000   0.02513   0.02512   2.21243
    A5        1.71800   0.00306   0.00000   0.01063   0.01060   1.72861
    A6        1.97772  -0.00133   0.00000  -0.00923  -0.00918   1.96854
    A7        1.76526  -0.00229   0.00000  -0.01173  -0.01170   1.75355
    A8        2.09866   0.00444   0.00000   0.01606   0.01604   2.11469
    A9        2.07034  -0.00508   0.00000  -0.02060  -0.02062   2.04972
   A10        2.11412   0.00063   0.00000   0.00443   0.00442   2.11854
   A11        2.08280  -0.00171   0.00000  -0.00614  -0.00613   2.07667
   A12        2.06906   0.00167   0.00000   0.00784   0.00783   2.07690
   A13        2.13123   0.00004   0.00000  -0.00175  -0.00176   2.12947
   A14        2.08488   0.00017   0.00000  -0.00000  -0.00001   2.08487
   A15        2.12455  -0.00034   0.00000  -0.00149  -0.00149   2.12306
   A16        2.07375   0.00017   0.00000   0.00148   0.00148   2.07523
   A17        1.99928  -0.00259   0.00000  -0.00918  -0.00919   1.99009
   A18        2.11831   0.00244   0.00000   0.00784   0.00784   2.12615
   A19        2.16559   0.00014   0.00000   0.00132   0.00132   2.16691
   A20        2.10827   0.00578   0.00000   0.02226   0.02226   2.13053
   A21        1.89923  -0.00619   0.00000  -0.02163  -0.02203   1.87720
   A22        1.99621  -0.01006   0.00000  -0.04000  -0.04064   1.95557
   A23        1.99388  -0.00959   0.00000  -0.03795  -0.03858   1.95530
   A24        1.86261   0.00953   0.00000   0.03845   0.03805   1.90067
   A25        1.86249   0.00954   0.00000   0.03894   0.03857   1.90105
   A26        1.84063   0.00958   0.00000   0.03328   0.03246   1.87309
   A27        2.06941  -0.00052   0.00000  -0.00306  -0.00306   2.06636
   A28        2.12971  -0.00047   0.00000  -0.00279  -0.00280   2.12691
   A29        2.08406   0.00099   0.00000   0.00583   0.00582   2.08988
   A30        2.09674  -0.00101   0.00000  -0.00314  -0.00314   2.09360
   A31        2.07877   0.00118   0.00000   0.00552   0.00550   2.08427
   A32        2.10760  -0.00018   0.00000  -0.00248  -0.00249   2.10511
   A33        1.88637  -0.00496   0.00000  -0.03098  -0.03111   1.85527
   A34        1.87591   0.00293   0.00000   0.01978   0.01988   1.89579
   A35        1.89254  -0.00255   0.00000  -0.01578  -0.01595   1.87659
   A36        1.92173   0.00114   0.00000   0.00839   0.00856   1.93029
   A37        1.93594   0.00285   0.00000   0.01161   0.01116   1.94710
   A38        1.94902   0.00031   0.00000   0.00544   0.00551   1.95453
   A39        1.99696  -0.01287   0.00000  -0.07583  -0.07583   1.92113
    D1        2.84841   0.00080   0.00000   0.03747   0.03744   2.88585
    D2       -1.60393   0.00287   0.00000   0.04192   0.04194  -1.56199
    D3        0.57670   0.00167   0.00000   0.04100   0.04101   0.61771
    D4        0.28590  -0.00103   0.00000   0.00024   0.00022   0.28613
    D5       -2.84243  -0.00080   0.00000   0.00996   0.00993  -2.83249
    D6       -1.75101  -0.00015   0.00000   0.00710   0.00710  -1.74391
    D7        1.40384   0.00009   0.00000   0.01682   0.01682   1.42066
    D8        2.68109   0.00130   0.00000   0.01763   0.01766   2.69875
    D9       -0.44724   0.00153   0.00000   0.02736   0.02737  -0.41987
   D10        1.23080   0.00070   0.00000   0.00620   0.00639   1.23720
   D11       -2.97868   0.00098   0.00000   0.01021   0.01019  -2.96849
   D12       -0.86912   0.00159   0.00000   0.01919   0.01905  -0.85007
   D13        3.09939  -0.00033   0.00000  -0.00227  -0.00209   3.09730
   D14       -1.11009  -0.00005   0.00000   0.00173   0.00171  -1.10838
   D15        0.99947   0.00057   0.00000   0.01071   0.01057   1.01003
   D16       -1.16074  -0.00143   0.00000  -0.01194  -0.01178  -1.17252
   D17        0.91296  -0.00115   0.00000  -0.00794  -0.00798   0.90498
   D18        3.02252  -0.00054   0.00000   0.00104   0.00088   3.02340
   D19        0.62886   0.00210   0.00000   0.04493   0.04494   0.67380
   D20       -1.56110   0.00290   0.00000   0.04663   0.04668  -1.51442
   D21        2.90101   0.00099   0.00000   0.04329   0.04324   2.94425
   D22        3.14154   0.00016   0.00000   0.00506   0.00517  -3.13648
   D23       -0.01426   0.00001   0.00000   0.00115   0.00123  -0.01303
   D24       -0.01366  -0.00013   0.00000  -0.00510  -0.00511  -0.01877
   D25        3.11373  -0.00027   0.00000  -0.00901  -0.00906   3.10467
   D26       -3.14121  -0.00009   0.00000  -0.00466  -0.00458   3.13740
   D27        0.01379   0.00019   0.00000   0.00366   0.00375   0.01754
   D28        0.01377   0.00012   0.00000   0.00507   0.00507   0.01883
   D29       -3.11442   0.00040   0.00000   0.01338   0.01339  -3.10103
   D30        0.00288   0.00006   0.00000   0.00208   0.00209   0.00498
   D31       -3.14109  -0.00006   0.00000  -0.00166  -0.00166   3.14044
   D32       -3.12398   0.00020   0.00000   0.00606   0.00608  -3.11790
   D33        0.01524   0.00008   0.00000   0.00231   0.00233   0.01757
   D34       -3.13869  -0.00012   0.00000  -0.00363  -0.00362   3.14087
   D35        0.00782   0.00002   0.00000   0.00095   0.00093   0.00875
   D36        0.00521   0.00000   0.00000   0.00001   0.00003   0.00524
   D37       -3.13147   0.00014   0.00000   0.00458   0.00459  -3.12688
   D38        3.11990  -0.00003   0.00000  -0.00133  -0.00134   3.11856
   D39       -0.02676  -0.00016   0.00000  -0.00602  -0.00600  -0.03276
   D40       -0.00775  -0.00003   0.00000  -0.00102  -0.00103  -0.00877
   D41        3.12991  -0.00021   0.00000  -0.00671  -0.00669   3.12322
   D42        3.13924   0.00012   0.00000   0.00403   0.00403  -3.13991
   D43       -0.00629  -0.00005   0.00000  -0.00167  -0.00163  -0.00792
   D44       -3.12375  -0.00021   0.00000  -0.00324  -0.00322  -3.12697
   D45        1.07875  -0.00146   0.00000  -0.01108  -0.01077   1.06798
   D46       -1.04472   0.00139   0.00000   0.00664   0.00631  -1.03842
   D47       -0.00297  -0.00005   0.00000  -0.00196  -0.00194  -0.00491
   D48        3.12499  -0.00032   0.00000  -0.01035  -0.01030   3.11469
   D49       -3.14073   0.00013   0.00000   0.00361   0.00362  -3.13711
   D50       -0.01277  -0.00015   0.00000  -0.00479  -0.00474  -0.01751
         Item               Value     Threshold  Converged?
 Maximum Force            0.014315     0.000450     NO 
 RMS     Force            0.005078     0.000300     NO 
 Maximum Displacement     0.178302     0.001800     NO 
 RMS     Displacement     0.034696     0.001200     NO 
 Predicted change in Energy=-5.061208D-03
 GradGradGradGradGradGradGradGradGradGradGradGradGradGradGradGradGradGrad

                          Input orientation:                          
 ---------------------------------------------------------------------
 Center     Atomic      Atomic             Coordinates (Angstroms)
 Number     Number       Type             X           Y           Z
 ---------------------------------------------------------------------
      1          7           0       -3.905664   -1.276857    0.435045
      2         16           0       -3.373543    0.124075    0.093282
      3          6           0       -1.592053   -0.175588    0.047579
      4          6           0       -1.080101   -1.469300   -0.045186
      5          6           0        0.297746   -1.648002   -0.070803
      6          6           0        1.134759   -0.535576    0.002508
      7          8           0        2.488617   -0.843440   -0.031373
      8          6           0        3.427456    0.097165    0.002614
      9          9           0        4.602290   -0.508894   -0.062143
     10          9           0        3.373874    0.820749    1.129032
     11          9           0        3.321428    0.950764   -1.025442
     12          6           0        0.629228    0.758227    0.111695
     13          6           0       -0.754273    0.929575    0.136654
     14          6           0       -3.627572    0.589087   -1.633512
     15          7           0       -3.737924    1.443594    0.794627
     16          1           0       -4.877494   -1.227609    0.732317
     17          1           0       -1.773899   -2.312149   -0.078183
     18          1           0        0.745213   -2.641225   -0.141480
     19          1           0        1.282627    1.626450    0.185959
     20          1           0       -1.190287    1.927041    0.246616
     21          1           0       -4.706079    0.757362   -1.751855
     22          1           0       -3.068767    1.511665   -1.833684
     23          1           0       -3.279124   -0.245186   -2.254911
     24          1           0       -3.824376    1.293624    1.798971
 ---------------------------------------------------------------------
                    Distance matrix (angstroms):
                    1          2          3          4          5
     1  N    0.000000
     2  S    1.537064   0.000000
     3  C    2.591470   1.807095   0.000000
     4  C    2.872536   2.796050   1.394415   0.000000
     5  C    4.249975   4.079895   2.398616   1.389623   0.000000
     6  C    5.112968   4.557210   2.750841   2.404105   1.394079
     7  O    6.425903   5.942772   4.135714   3.623209   2.334265
     8  C    7.473257   6.801656   5.027115   4.772229   3.584143
     9  F    8.556999   8.002419   6.204274   5.763006   4.452723
    10  F    7.607446   6.861907   5.179060   5.144026   4.122729
    11  F    7.702349   6.837952   5.153867   5.117722   4.099704
    12  C    4.981101   4.052735   2.410438   2.812169   2.435800
    13  C    3.858580   2.740672   1.389674   2.427721   2.791717
    14  C    2.799644   1.806262   2.748478   3.639965   4.780664
    15  N    2.749234   1.538111   2.790088   4.031657   5.156895
    16  H    1.017472   2.120680   3.517064   3.883699   5.254031
    17  H    2.424799   2.919494   2.147971   1.092171   2.175514
    18  H    4.881038   4.966502   3.402635   2.171279   1.091656
    19  H    5.950597   4.893428   3.395626   3.901229   3.428987
    20  H    4.204015   2.835631   2.149902   3.410634   3.885348
    21  H    3.092126   2.362464   3.715578   4.584589   5.800860
    22  H    3.690987   2.394053   2.926885   4.004956   4.942131
    23  H    2.948349   2.378924   2.855261   3.349186   4.419527
    24  H    2.911061   2.116712   3.195188   4.308795   5.398251
                    6          7          8          9         10
     6  C    0.000000
     7  O    1.388835   0.000000
     8  C    2.378407   1.329402   0.000000
     9  F    3.468236   2.140205   1.323531   0.000000
    10  F    2.849967   2.213536   1.339874   2.166991   0.000000
    11  F    2.836796   2.213801   1.340438   2.167753   2.159031
    12  C    1.393344   2.458278   2.877322   4.173851   2.927792
    13  C    2.394390   3.699750   4.265880   5.549908   4.247147
    14  C    5.159575   6.482804   7.258947   8.450170   7.530309
    15  N    5.318609   6.684506   7.333678   8.608451   7.146848
    16  H    6.095795   7.415551   8.441545   9.540127   8.511065
    17  H    3.409254   4.508697   5.732836   6.626294   6.145892
    18  H    2.146215   2.506714   3.835879   4.407967   4.528722
    19  H    2.174827   2.757172   2.640571   3.954922   2.431430
    20  H    3.395572   4.613803   4.973081   6.291507   4.778505
    21  H    6.234169   7.568770   8.346760   9.544855   8.578413
    22  H    5.023188   6.299155   6.897370   8.128107   7.124793
    23  H    4.966148   6.210384   7.084620   8.185014   7.539872
    24  H    5.582676   6.911663   7.566207   8.815981   7.244808
                   11         12         13         14         15
    11  F    0.000000
    12  C    2.928838   0.000000
    13  C    4.238191   1.394295   0.000000
    14  C    6.984923   4.603770   3.391940   0.000000
    15  N    7.306845   4.473046   3.098277   2.576474   0.000000
    16  H    8.663564   5.886655   4.691397   3.234167   2.904793
    17  H    6.124236   3.903624   3.405079   3.777872   4.327215
    18  H    4.507844   3.410839   3.882837   5.637580   6.136820
    19  H    2.465918   1.089154   2.153377   5.338225   5.060618
    20  H    4.788196   2.166787   1.094139   3.356391   2.650376
    21  H    8.062627   5.651400   4.383251   1.097952   2.809414
    22  H    6.465482   4.245861   3.094824   1.097034   2.713010
    23  H    6.819764   4.677914   3.670765   1.097071   3.515986
    24  H    7.691384   4.792509   3.510180   3.509564   1.019153
                   16         17         18         19         20
    16  H    0.000000
    17  H    3.386065   0.000000
    18  H    5.863161   2.541303   0.000000
    19  H    6.811113   4.992463   4.313824   0.000000
    20  H    4.876804   4.291484   4.976528   2.491855   0.000000
    21  H    3.184432   4.562976   6.622709   6.354136   4.209849
    22  H    4.166470   4.402274   5.886976   4.798621   2.833527
    23  H    3.527531   3.358003   5.138373   5.501859   3.916562
    24  H    2.933159   4.552995   6.334788   5.366011   3.122411
                   21         22         23         24
    21  H    0.000000
    22  H    1.804566   0.000000
    23  H    1.815039   1.818848   0.000000
    24  H    3.697749   3.716809   4.370263   0.000000
 Stoichiometry    C8H9F3N2OS
 Framework group  C1[X(C8H9F3N2OS)]
 Deg. of freedom    66
 Full point group                 C1      NOp   1
 Largest Abelian subgroup         C1      NOp   1
 Largest concise Abelian subgroup C1      NOp   1
                         Standard orientation:                         
 ---------------------------------------------------------------------
 Center     Atomic      Atomic             Coordinates (Angstroms)
 Number     Number       Type             X           Y           Z
 ---------------------------------------------------------------------
      1          7           0       -3.762976    1.296466   -0.482720
      2         16           0       -3.242351   -0.106576   -0.132023
      3          6           0       -1.459463    0.182217   -0.072842
      4          6           0       -0.940256    1.473044    0.019806
      5          6           0        0.438422    1.643308    0.056023
      6          6           0        1.269077    0.525488   -0.006814
      7          8           0        2.624502    0.825087    0.037046
      8          6           0        3.557726   -0.121413    0.013791
      9          9           0        4.735738    0.477583    0.086086
     10          9           0        3.508779   -0.848423   -1.110630
     11          9           0        3.438074   -0.970890    1.043765
     12          6           0        0.756422   -0.765523   -0.115830
     13          6           0       -0.627869   -0.928396   -0.151460
     14          6           0       -3.513244   -0.564217    1.594176
     15          7           0       -3.609226   -1.426160   -0.831944
     16          1           0       -4.732653    1.252232   -0.787711
     17          1           0       -1.629051    2.320272    0.044384
     18          1           0        0.891460    2.633976    0.127053
     19          1           0        1.404998   -1.638013   -0.181919
     20          1           0       -1.069163   -1.923511   -0.261666
     21          1           0       -4.593699   -0.725423    1.704311
     22          1           0       -2.961819   -1.489557    1.801926
     23          1           0       -3.164668    0.269963    2.215628
     24          1           0       -3.686605   -1.279026   -1.837447
 ---------------------------------------------------------------------
 Rotational constants (GHZ):           1.6215499           0.2232141           0.2134520
 Standard basis: def2SVP (5D, 7F)
 There are   274 symmetry adapted cartesian basis functions of A   symmetry.
 There are   259 symmetry adapted basis functions of A   symmetry.
   259 basis functions,   450 primitive gaussians,   274 cartesian basis functions
    61 alpha electrons       61 beta electrons
       nuclear repulsion energy      1166.4270402174 Hartrees.
 NAtoms=   24 NActive=   24 NUniq=   24 SFac= 1.00D+00 NAtFMM=   60 NAOKFM=F Big=F
 Integral buffers will be    131072 words long.
 Raffenetti 2 integral format.
 Two-electron integral symmetry is turned on.
 Nuclear repulsion after empirical dispersion term =     1166.4009445681 Hartrees.
 One-electron integrals computed using PRISM.
   1 Symmetry operations used in ECPInt.
 ECPInt:  NShTT=    7140 NPrTT=   27028 LenC2=    6449 LenP2D=   17514.
 LDataN:  DoStor=T MaxTD1= 4 Len=   56
 NBasis=   259 RedAO= T EigKep=  2.53D-04  NBF=   259
 NBsUse=   259 1.00D-06 EigRej= -1.00D+00 NBFU=   259
 Initial guess from the checkpoint file:  "SDI1953_1.chk"
 B after Tr=     0.000000   -0.000000   -0.000000
         Rot=    0.999978    0.006589    0.000560    0.000492 Ang=   0.76 deg.
 ExpMin= 1.22D-01 ExpMax= 9.18D+03 ExpMxC= 1.38D+03 IAcc=3 IRadAn=         5 AccDes= 0.00D+00
 Harris functional with IExCor= 1009 and IRadAn=       5 diagonalized for initial guess.
 HarFok:  IExCor= 1009 AccDes= 0.00D+00 IRadAn=         5 IDoV= 1 UseB2=F ITyADJ=14
 ICtDFT=  3500011 ScaDFX=  1.000000  1.000000  1.000000  1.000000
 FoFCou: FMM=F IPFlag=           0 FMFlag=      100000 FMFlg1=           0
         NFxFlg=           0 DoJE=T BraDBF=F KetDBF=T FulRan=T
         wScrn=  0.000000 ICntrl=       500 IOpCl=  0 I1Cent=   200000004 NGrid=           0
         NMat0=    1 NMatS0=      1 NMatT0=    0 NMatD0=    1 NMtDS0=    0 NMtDT0=    0
 Petite list used in FoFCou.
 Requested convergence on RMS density matrix=1.00D-08 within 128 cycles.
 Requested convergence on MAX density matrix=1.00D-06.
 Requested convergence on             energy=1.00D-06.
 No special actions if energy rises.
 Integral accuracy reduced to 1.0D-05 until final iterations.
 Initial convergence to 1.0D-05 achieved.  Increase integral accuracy.
 SCF Done:  E(RPBE1PBE) =  -1190.92373478     A.U. after   12 cycles
            NFock= 12  Conv=0.59D-08     -V/T= 2.0058
   1 Symmetry operations used in ECPInt.
 ECPInt:  NShTT=    7140 NPrTT=   27028 LenC2=    6449 LenP2D=   17514.
 LDataN:  DoStor=T MaxTD1= 5 Len=  102
 Calling FoFJK, ICntrl=      2127 FMM=F ISym2X=0 I1Cent= 0 IOpClX= 0 NMat=1 NMatS=1 NMatT=0.
 ***** Axes restored to original set *****
 -------------------------------------------------------------------
 Center     Atomic                   Forces (Hartrees/Bohr)
 Number     Number              X              Y              Z
 -------------------------------------------------------------------
      1        7           0.000386459   -0.007255232    0.004584878
      2       16           0.007425954    0.000505913   -0.009486095
      3        6          -0.001486019   -0.002024313    0.000906261
      4        6           0.000734396    0.000414434   -0.000107073
      5        6          -0.001997806    0.000558813    0.000014592
      6        6           0.008829980   -0.002537422   -0.000125710
      7        8          -0.014944772   -0.006892631   -0.000220804
      8        6           0.007601474    0.008286502    0.000038398
      9        9          -0.004712016    0.005218236    0.000431465
     10        9           0.003041159   -0.001799217   -0.004824212
     11        9           0.003201280   -0.002668209    0.004745072
     12        6          -0.002085112    0.000615435   -0.000015161
     13        6           0.000797602   -0.000172050    0.000035958
     14        6           0.000510000   -0.000207931    0.002884630
     15        7          -0.006372237    0.008441556    0.001377272
     16        1          -0.003191148    0.001538292   -0.002318185
     17        1           0.000382792    0.000526324    0.000076444
     18        1          -0.000044407    0.000457613    0.000059778
     19        1           0.000028968   -0.000548916   -0.000025585
     20        1          -0.000191120   -0.000580737    0.000087782
     21        1          -0.000043727   -0.000011502    0.000150931
     22        1          -0.000591685   -0.000347389   -0.001026293
     23        1          -0.000361005    0.000235068   -0.000125887
     24        1           0.003080990   -0.001752636    0.002881541
 -------------------------------------------------------------------
 Cartesian Forces:  Max     0.014944772 RMS     0.003741727

 GradGradGradGradGradGradGradGradGradGradGradGradGradGradGradGradGradGrad
 Berny optimization.
 Using GEDIIS/GDIIS optimizer.
 FormGI is forming the generalized inverse of G from B-inverse, IUseBI=4.
 Internal  Forces:  Max     0.012853611 RMS     0.002305421
 Search for a local minimum.
 Step number   2 out of a maximum of  123
 All quantities printed in internal units (Hartrees-Bohrs-Radians)
 Mixed Optimization -- RFO/linear search
 Update second derivatives using D2CorX and points    1    2
 DE= -5.39D-03 DEPred=-5.06D-03 R= 1.06D+00
 TightC=F SS=  1.41D+00  RLast= 2.18D-01 DXNew= 5.0454D-01 6.5322D-01
 Trust test= 1.06D+00 RLast= 2.18D-01 DXMaxT set to 5.05D-01
 ITU=  1  0
 Use linear search instead of GDIIS.
     Eigenvalues ---    0.00230   0.00230   0.01512   0.01630   0.02148
     Eigenvalues ---    0.02250   0.02272   0.02282   0.02299   0.02309
     Eigenvalues ---    0.02329   0.02337   0.02784   0.03165   0.03470
     Eigenvalues ---    0.05954   0.06190   0.06464   0.08679   0.09512
     Eigenvalues ---    0.13942   0.15695   0.15894   0.15996   0.15997
     Eigenvalues ---    0.15999   0.16000   0.16000   0.16000   0.16000
     Eigenvalues ---    0.16147   0.16467   0.19037   0.21984   0.22972
     Eigenvalues ---    0.23414   0.24046   0.24646   0.24996   0.24999
     Eigenvalues ---    0.25000   0.25000   0.25120   0.29191   0.35568
     Eigenvalues ---    0.35628   0.35852   0.36112   0.36237   0.36284
     Eigenvalues ---    0.36890   0.42908   0.43682   0.43989   0.46048
     Eigenvalues ---    0.46576   0.47733   0.48385   0.48721   0.48962
     Eigenvalues ---    0.56077   0.56446   0.60326   0.62283   0.65968
     Eigenvalues ---    0.68170
 RFO step:  Lambda=-2.34713520D-03 EMin= 2.29943548D-03
 Quartic linear search produced a step of  0.12187.
 Iteration  1 RMS(Cart)=  0.03541661 RMS(Int)=  0.00087911
 Iteration  2 RMS(Cart)=  0.00094846 RMS(Int)=  0.00003866
 Iteration  3 RMS(Cart)=  0.00000115 RMS(Int)=  0.00003865
 Iteration  4 RMS(Cart)=  0.00000000 RMS(Int)=  0.00003865
 Variable       Old X    -DE/DX   Delta X   Delta X   Delta X     New X
                                 (Linear)    (Quad)   (Total)
    R1        2.90463   0.00669   0.00022   0.01149   0.01171   2.91634
    R2        1.92274   0.00245   0.00259   0.00809   0.01069   1.93343
    R3        3.41491  -0.00067  -0.00134  -0.00408  -0.00541   3.40950
    R4        3.41334  -0.00182  -0.00514  -0.01273  -0.01787   3.39547
    R5        2.90661   0.00846   0.00067   0.01482   0.01549   2.92210
    R6        2.63506  -0.00111   0.00275  -0.00026   0.00249   2.63756
    R7        2.62610  -0.00039   0.00227   0.00100   0.00327   2.62937
    R8        2.62601  -0.00059   0.00193   0.00032   0.00226   2.62826
    R9        2.06390  -0.00065   0.00333   0.00090   0.00423   2.06813
   R10        2.63443   0.00048   0.00087   0.00200   0.00288   2.63731
   R11        2.06293  -0.00044   0.00325   0.00148   0.00473   2.06766
   R12        2.62452  -0.00615  -0.00364  -0.01839  -0.02204   2.60248
   R13        2.63304   0.00041   0.00179   0.00266   0.00445   2.63749
   R14        2.51221   0.01285   0.00275   0.02527   0.02801   2.54022
   R15        2.50111  -0.00659  -0.00098  -0.01307  -0.01405   2.48706
   R16        2.53199  -0.00515  -0.00109  -0.01114  -0.01223   2.51977
   R17        2.53306  -0.00559  -0.00116  -0.01212  -0.01328   2.51978
   R18        2.63484  -0.00057   0.00172   0.00021   0.00194   2.63677
   R19        2.05820  -0.00042   0.00254   0.00091   0.00346   2.06166
   R20        2.06762  -0.00044   0.00340   0.00158   0.00497   2.07260
   R21        2.07483   0.00002   0.00334   0.00297   0.00631   2.08114
   R22        2.07309  -0.00041   0.00353   0.00179   0.00532   2.07841
   R23        2.07316  -0.00022   0.00317   0.00205   0.00523   2.07839
   R24        1.92592   0.00284   0.00286   0.00927   0.01212   1.93804
    A1        1.92998  -0.00343  -0.00803  -0.03017  -0.03820   1.89178
    A2        1.76784   0.00038  -0.00127   0.00376   0.00253   1.77037
    A3        1.98070  -0.00071  -0.00084  -0.00598  -0.00688   1.97382
    A4        2.21243  -0.00120   0.00306  -0.01435  -0.01130   2.20112
    A5        1.72861   0.00142   0.00129   0.01799   0.01927   1.74788
    A6        1.96854  -0.00013  -0.00112   0.00065  -0.00057   1.96797
    A7        1.75355   0.00084  -0.00143   0.00572   0.00423   1.75778
    A8        2.11469   0.00179   0.00195   0.00989   0.01184   2.12654
    A9        2.04972  -0.00114  -0.00251  -0.00687  -0.00939   2.04033
   A10        2.11854  -0.00065   0.00054  -0.00308  -0.00254   2.11600
   A11        2.07667   0.00023  -0.00075  -0.00009  -0.00083   2.07583
   A12        2.07690  -0.00016   0.00095   0.00021   0.00117   2.07806
   A13        2.12947  -0.00007  -0.00021  -0.00015  -0.00037   2.12911
   A14        2.08487   0.00103  -0.00000   0.00508   0.00508   2.08995
   A15        2.12306  -0.00036  -0.00018  -0.00164  -0.00182   2.12124
   A16        2.07523  -0.00067   0.00018  -0.00345  -0.00327   2.07197
   A17        1.99009   0.00060  -0.00112   0.00160   0.00048   1.99057
   A18        2.12615  -0.00172   0.00095  -0.00657  -0.00562   2.12053
   A19        2.16691   0.00112   0.00016   0.00498   0.00514   2.17204
   A20        2.13053   0.00262   0.00271   0.01390   0.01661   2.14714
   A21        1.87720   0.00215  -0.00269   0.00544   0.00269   1.87989
   A22        1.95557   0.00400  -0.00495   0.01433   0.00925   1.96482
   A23        1.95530   0.00378  -0.00470   0.01353   0.00870   1.96400
   A24        1.90067  -0.00389   0.00464  -0.01497  -0.01039   1.89027
   A25        1.90105  -0.00383   0.00470  -0.01472  -0.01008   1.89098
   A26        1.87309  -0.00265   0.00396  -0.00528  -0.00150   1.87159
   A27        2.06636   0.00042  -0.00037   0.00189   0.00152   2.06788
   A28        2.12691  -0.00057  -0.00034  -0.00388  -0.00422   2.12269
   A29        2.08988   0.00015   0.00071   0.00197   0.00268   2.09256
   A30        2.09360   0.00069  -0.00038   0.00275   0.00237   2.09597
   A31        2.08427  -0.00077   0.00067  -0.00387  -0.00321   2.08106
   A32        2.10511   0.00007  -0.00030   0.00107   0.00076   2.10587
   A33        1.85527  -0.00063  -0.00379  -0.00868  -0.01248   1.84278
   A34        1.89579   0.00186   0.00242   0.01605   0.01849   1.91429
   A35        1.87659   0.00024  -0.00194   0.00002  -0.00200   1.87460
   A36        1.93029  -0.00051   0.00104  -0.00252  -0.00140   1.92889
   A37        1.94710  -0.00016   0.00136  -0.00284  -0.00160   1.94551
   A38        1.95453  -0.00070   0.00067  -0.00166  -0.00102   1.95351
   A39        1.92113  -0.00388  -0.00924  -0.03423  -0.04348   1.87765
    D1        2.88585   0.00097   0.00456   0.04682   0.05138   2.93723
    D2       -1.56199   0.00255   0.00511   0.06724   0.07230  -1.48969
    D3        0.61771   0.00180   0.00500   0.05424   0.05928   0.67700
    D4        0.28613   0.00047   0.00003   0.02636   0.02642   0.31255
    D5       -2.83249   0.00052   0.00121   0.02919   0.03044  -2.80205
    D6       -1.74391   0.00068   0.00087   0.02622   0.02706  -1.71685
    D7        1.42066   0.00073   0.00205   0.02905   0.03107   1.45173
    D8        2.69875  -0.00090   0.00215   0.01099   0.01314   2.71189
    D9       -0.41987  -0.00085   0.00334   0.01382   0.01715  -0.40271
   D10        1.23720  -0.00087   0.00078  -0.00115  -0.00030   1.23689
   D11       -2.96849  -0.00084   0.00124  -0.00050   0.00072  -2.96777
   D12       -0.85007  -0.00048   0.00232   0.00675   0.00907  -0.84100
   D13        3.09730   0.00006  -0.00025   0.01034   0.01010   3.10740
   D14       -1.10838   0.00009   0.00021   0.01099   0.01112  -1.09727
   D15        1.01003   0.00045   0.00129   0.01825   0.01947   1.02950
   D16       -1.17252   0.00054  -0.00144   0.01757   0.01622  -1.15630
   D17        0.90498   0.00057  -0.00097   0.01822   0.01724   0.92222
   D18        3.02340   0.00093   0.00011   0.02547   0.02559   3.04899
   D19        0.67380   0.00191   0.00548   0.05887   0.06436   0.73816
   D20       -1.51442   0.00270   0.00569   0.06696   0.07263  -1.44179
   D21        2.94425   0.00074   0.00527   0.04376   0.04903   2.99328
   D22       -3.13648   0.00004   0.00063   0.00189   0.00255  -3.13392
   D23       -0.01303   0.00001   0.00015   0.00040   0.00058  -0.01246
   D24       -0.01877  -0.00001  -0.00062  -0.00109  -0.00171  -0.02048
   D25        3.10467  -0.00005  -0.00110  -0.00258  -0.00369   3.10098
   D26        3.13740   0.00001  -0.00056  -0.00112  -0.00164   3.13576
   D27        0.01754   0.00006   0.00046   0.00172   0.00221   0.01974
   D28        0.01883   0.00002   0.00062   0.00154   0.00215   0.02098
   D29       -3.10103   0.00007   0.00163   0.00438   0.00600  -3.09503
   D30        0.00498   0.00001   0.00026   0.00042   0.00068   0.00566
   D31        3.14044  -0.00002  -0.00020  -0.00074  -0.00094   3.13950
   D32       -3.11790   0.00004   0.00074   0.00196   0.00271  -3.11519
   D33        0.01757   0.00002   0.00028   0.00080   0.00108   0.01865
   D34        3.14087   0.00002  -0.00044   0.00043  -0.00001   3.14086
   D35        0.00875  -0.00001   0.00011  -0.00019  -0.00008   0.00867
   D36        0.00524   0.00004   0.00000   0.00156   0.00157   0.00680
   D37       -3.12688   0.00001   0.00056   0.00093   0.00150  -3.12539
   D38        3.11856  -0.00002  -0.00016  -0.00108  -0.00125   3.11731
   D39       -0.03276  -0.00001  -0.00073  -0.00051  -0.00124  -0.03401
   D40       -0.00877   0.00001  -0.00013   0.00060   0.00047  -0.00830
   D41        3.12322  -0.00002  -0.00082  -0.00138  -0.00218   3.12103
   D42       -3.13991  -0.00001   0.00049  -0.00006   0.00043  -3.13948
   D43       -0.00792  -0.00004  -0.00020  -0.00204  -0.00223  -0.01015
   D44       -3.12697   0.00004  -0.00039   0.00075   0.00036  -3.12661
   D45        1.06798   0.00107  -0.00131   0.00715   0.00592   1.07389
   D46       -1.03842  -0.00104   0.00077  -0.00583  -0.00514  -1.04356
   D47       -0.00491  -0.00002  -0.00024  -0.00125  -0.00148  -0.00639
   D48        3.11469  -0.00008  -0.00126  -0.00418  -0.00543   3.10926
   D49       -3.13711   0.00002   0.00044   0.00072   0.00117  -3.13594
[...]
 Alpha virt. eigenvalues --    3.44968   3.45370   3.46404   3.46981   3.49606
 Alpha virt. eigenvalues --    3.49932   3.52677   3.53034   3.55204   3.56762
 Alpha virt. eigenvalues --    3.57308   3.58807   3.64547   3.66440   3.69772
 Alpha virt. eigenvalues --    3.70525   3.71355   3.72265   3.75545   3.78598
 Alpha virt. eigenvalues --    3.80509   3.81305   3.82462   3.84426   3.86649
 Alpha virt. eigenvalues --    3.87992   3.88179   3.90067   3.90751   3.91194
 Alpha virt. eigenvalues --    3.92884   3.98244   4.00917   4.02392   4.04335
 Alpha virt. eigenvalues --    4.05256   4.05519   4.09673   4.10485   4.11318
 Alpha virt. eigenvalues --    4.14637   4.16290   4.18121   4.18454   4.19455
 Alpha virt. eigenvalues --    4.20247   4.20640   4.22498   4.24300   4.25128
 Alpha virt. eigenvalues --    4.27209   4.29358   4.31644   4.32733   4.37224
 Alpha virt. eigenvalues --    4.41420   4.43193   4.44943   4.49159   4.51240
 Alpha virt. eigenvalues --    4.56684   4.58558   4.59735   4.62477   4.64725
 Alpha virt. eigenvalues --    4.68851   4.70391   4.71543   4.74283   4.75355
 Alpha virt. eigenvalues --    4.77749   4.86963   4.89179   4.90499   4.93206
 Alpha virt. eigenvalues --    4.94217   4.95913   5.04609   5.07137   5.09854
 Alpha virt. eigenvalues --    5.13270   5.14351   5.15106   5.18073   5.21929
 Alpha virt. eigenvalues --    5.22851   5.24168   5.25559   5.29295   5.36178
 Alpha virt. eigenvalues --    5.42250   5.47064   5.55016   5.58469   5.59826
 Alpha virt. eigenvalues --    5.71058   5.93046   5.96998   6.32988   6.47377
 Alpha virt. eigenvalues --    6.61841   6.71059   6.77092   6.78660   6.82736
 Alpha virt. eigenvalues --    6.82837   6.83320   6.83397   6.83617   6.85066
 Alpha virt. eigenvalues --    6.86867   6.91170   6.98566   6.99853   7.00234
 Alpha virt. eigenvalues --    7.06729   7.10705   7.11946   7.22842   7.39770
 Alpha virt. eigenvalues --    7.43609   7.49695   7.53067   7.54127   7.60922
 Alpha virt. eigenvalues --    7.65079   8.30258   8.31175   8.31456   8.45424
 Alpha virt. eigenvalues --    8.49250   8.56998   8.70456   8.77127   8.81619
 Alpha virt. eigenvalues --    8.88221   8.92815   8.98693   8.98769   9.06745
 Alpha virt. eigenvalues --    9.11190   9.45034   9.51908   9.63729  21.68696
 Alpha virt. eigenvalues --   22.13892  22.32542  22.71212  22.74183  22.74937
 Alpha virt. eigenvalues --   22.90514  23.21939  23.29779  31.90229  31.92315
 Alpha virt. eigenvalues --   44.42575  57.08702  57.22727  57.46427
          Condensed to atoms (all electrons):
               1          2          3          4          5          6
     1  N    6.934866   0.504658  -0.138801   0.018681  -0.001838   0.000830
     2  S    0.504658  14.109581   0.236544   0.009403   0.005288   0.000364
     3  C   -0.138801   0.236544   5.390639   0.318131   0.048721  -0.123519
     4  C    0.018681   0.009403   0.318131   5.170285   0.353190   0.060793
     5  C   -0.001838   0.005288   0.048721   0.353190   5.116542   0.391851
     6  C    0.000830   0.000364  -0.123519   0.060793   0.391851   4.801632
     7  O   -0.000000   0.000009   0.001065   0.001659  -0.045758   0.291827
     8  C   -0.000000  -0.000004   0.000247  -0.000881  -0.000998  -0.020270
     9  F   -0.000000   0.000000   0.000023  -0.000106   0.000251  -0.001013
    10  F   -0.000000  -0.000000   0.000018   0.000113  -0.000074  -0.007112
    11  F    0.000000   0.000000  -0.000042   0.000214  -0.000634  -0.006250
    12  C   -0.001795   0.007016   0.081927  -0.104445   0.046582   0.321147
    13  C    0.023144  -0.052772   0.302930  -0.070668  -0.087800   0.080736
    14  C   -0.051610   0.289104  -0.078361   0.011580  -0.000656   0.000008
    15  N   -0.076277   0.529116  -0.089956   0.014465  -0.000884   0.000283
    16  H    0.310501  -0.017537   0.017687  -0.003059   0.000068  -0.000022
    17  H    0.023604  -0.001896  -0.055213   0.441937  -0.069034   0.014840
    18  H   -0.000149  -0.000286   0.013928  -0.060230   0.446949  -0.070180
    19  H   -0.000005  -0.000219   0.010013   0.000142   0.004654  -0.052355
    20  H    0.002253  -0.001767  -0.063848   0.002218  -0.000317   0.008612
    21  H    0.000834  -0.014211   0.007802  -0.000698   0.000050  -0.000014
    22  H    0.004909  -0.012670   0.010965   0.001581   0.000017  -0.000113
    23  H    0.003065  -0.022547   0.006898  -0.007168   0.000109   0.000047
    24  H   -0.002300  -0.025040   0.002078   0.002281   0.000031  -0.000099
               7          8          9         10         11         12
     1  N   -0.000000  -0.000000  -0.000000  -0.000000   0.000000  -0.001795
     2  S    0.000009  -0.000004   0.000000  -0.000000   0.000000   0.007016
     3  C    0.001065   0.000247   0.000023   0.000018  -0.000042   0.081927
     4  C    0.001659  -0.000881  -0.000106   0.000113   0.000214  -0.104445
     5  C   -0.045758  -0.000998   0.000251  -0.000074  -0.000634   0.046582
     6  C    0.291827  -0.020270  -0.001013  -0.007112  -0.006250   0.321147
     7  O    7.798920   0.406915  -0.072119  -0.059996  -0.059551  -0.057140
     8  C    0.406915   3.985356   0.401179   0.360250   0.360947  -0.011721
     9  F   -0.072119   0.401179   8.916673  -0.054586  -0.054423   0.000360
    10  F   -0.059996   0.360250  -0.054586   8.963547  -0.058296   0.005397
    11  F   -0.059551   0.360947  -0.054423  -0.058296   8.963372   0.005949
    12  C   -0.057140  -0.011721   0.000360   0.005397   0.005949   5.242244
    13  C   -0.000142   0.000196  -0.000145  -0.000080  -0.000397   0.299327
    14  C    0.000000  -0.000000   0.000000  -0.000000   0.000000   0.000156
    15  N    0.000000  -0.000000  -0.000000   0.000000  -0.000000  -0.001541
    16  H   -0.000000   0.000000  -0.000000   0.000000   0.000000   0.000100
    17  H   -0.000099   0.000001  -0.000000  -0.000000   0.000000  -0.005517
    18  H    0.005808  -0.000160   0.000051   0.000029   0.000011   0.014954
    19  H   -0.001550   0.001092   0.000043   0.005748   0.004516   0.417138
    20  H   -0.000136  -0.000068  -0.000001  -0.000034  -0.000029  -0.048519
    21  H    0.000000   0.000000  -0.000000   0.000000   0.000000   0.000045
    22  H   -0.000000   0.000000  -0.000000  -0.000000   0.000000   0.000610
    23  H   -0.000000   0.000000   0.000000   0.000000  -0.000000  -0.000172
    24  H    0.000000  -0.000000   0.000000   0.000000  -0.000000  -0.000093
              13         14         15         16         17         18
     1  N    0.023144  -0.051610  -0.076277   0.310501   0.023604  -0.000149
     2  S   -0.052772   0.289104   0.529116  -0.017537  -0.001896  -0.000286
     3  C    0.302930  -0.078361  -0.089956   0.017687  -0.055213   0.013928
     4  C   -0.070668   0.011580   0.014465  -0.003059   0.441937  -0.060230
     5  C   -0.087800  -0.000656  -0.000884   0.000068  -0.069034   0.446949
     6  C    0.080736   0.000008   0.000283  -0.000022   0.014840  -0.070180
     7  O   -0.000142   0.000000   0.000000  -0.000000  -0.000099   0.005808
     8  C    0.000196  -0.000000  -0.000000   0.000000   0.000001  -0.000160
     9  F   -0.000145   0.000000  -0.000000  -0.000000  -0.000000   0.000051
    10  F   -0.000080  -0.000000   0.000000   0.000000  -0.000000   0.000029
    11  F   -0.000397   0.000000  -0.000000   0.000000   0.000000   0.000011
    12  C    0.299327   0.000156  -0.001541   0.000100  -0.005517   0.014954
    13  C    5.290010  -0.002895   0.005975  -0.001085   0.013238  -0.003587
    14  C   -0.002895   5.147353  -0.084219  -0.009705   0.001516   0.000008
    15  N    0.005975  -0.084219   6.914167  -0.000837   0.000873   0.000004
    16  H   -0.001085  -0.009705  -0.000837   0.487765  -0.001403  -0.000002
    17  H    0.013238   0.001516   0.000873  -0.001403   0.483837  -0.008408
    18  H   -0.003587   0.000008   0.000004  -0.000002  -0.008408   0.528600
    19  H   -0.027161   0.000031  -0.000005  -0.000000   0.000024  -0.000132
    20  H    0.433856  -0.002672   0.022288  -0.000077  -0.000282   0.000073
    21  H   -0.000088   0.372809   0.005016   0.002038  -0.000097  -0.000001
    22  H   -0.010349   0.360415   0.002803   0.000215  -0.000153   0.000003
    23  H    0.004706   0.376538   0.005532   0.000079   0.000263  -0.000009
    24  H   -0.005937   0.013409   0.312559  -0.000295   0.000015   0.000000
              19         20         21         22         23         24
     1  N   -0.000005   0.002253   0.000834   0.004909   0.003065  -0.002300
     2  S   -0.000219  -0.001767  -0.014211  -0.012670  -0.022547  -0.025040
     3  C    0.010013  -0.063848   0.007802   0.010965   0.006898   0.002078
     4  C    0.000142   0.002218  -0.000698   0.001581  -0.007168   0.002281
     5  C    0.004654  -0.000317   0.000050   0.000017   0.000109   0.000031
     6  C   -0.052355   0.008612  -0.000014  -0.000113   0.000047  -0.000099
     7  O   -0.001550  -0.000136   0.000000  -0.000000  -0.000000   0.000000
     8  C    0.001092  -0.000068   0.000000   0.000000   0.000000  -0.000000
     9  F    0.000043  -0.000001  -0.000000  -0.000000   0.000000   0.000000
    10  F    0.005748  -0.000034   0.000000  -0.000000   0.000000   0.000000
    11  F    0.004516  -0.000029   0.000000   0.000000  -0.000000  -0.000000
    12  C    0.417138  -0.048519   0.000045   0.000610  -0.000172  -0.000093
    13  C   -0.027161   0.433856  -0.000088  -0.010349   0.004706  -0.005937
    14  C    0.000031  -0.002672   0.372809   0.360415   0.376538   0.013409
    15  N   -0.000005   0.022288   0.005016   0.002803   0.005532   0.312559
    16  H   -0.000000  -0.000077   0.002038   0.000215   0.000079  -0.000295
    17  H    0.000024  -0.000282  -0.000097  -0.000153   0.000263   0.000015
    18  H   -0.000132   0.000073  -0.000001   0.000003  -0.000009   0.000000
    19  H    0.499630  -0.005941  -0.000001   0.000016  -0.000006   0.000020
    20  H   -0.005941   0.491365  -0.000095  -0.000564   0.000335  -0.003163
    21  H   -0.000001  -0.000095   0.501081  -0.010908  -0.014377  -0.000641
    22  H    0.000016  -0.000564  -0.010908   0.516647  -0.017106  -0.000821
    23  H   -0.000006   0.000335  -0.014377  -0.017106   0.511876  -0.000595
    24  H    0.000020  -0.003163  -0.000641  -0.000821  -0.000595   0.490329
 Mulliken charges:
               1
     1  N   -0.554572
     2  S    0.457867
     3  C    0.100128
     4  C   -0.159422
     5  C   -0.206309
     6  C    0.307976
     7  O   -0.209713
     8  C    0.517921
     9  F   -0.136188
    10  F   -0.154925
    11  F   -0.155387
    12  C   -0.212009
    13  C   -0.191014
    14  C   -0.342811
    15  N   -0.559361
    16  H    0.215569
    17  H    0.161957
    18  H    0.132723
    19  H    0.144305
    20  H    0.166512
    21  H    0.151456
    22  H    0.154503
    23  H    0.152531
    24  H    0.218263
 Sum of Mulliken charges =  -0.00000
 Mulliken charges with hydrogens summed into heavy atoms:
               1
     1  N   -0.339003
     2  S    0.457867
     3  C    0.100128
     4  C    0.002535
     5  C   -0.073586
     6  C    0.307976
     7  O   -0.209713
     8  C    0.517921
     9  F   -0.136188
    10  F   -0.154925
    11  F   -0.155387
    12  C   -0.067704
    13  C   -0.024502
    14  C    0.115679
    15  N   -0.341099
 Electronic spatial extent (au):  <R**2>=           4771.0508
 Charge=             -0.0000 electrons
 Dipole moment (field-independent basis, Debye):
    X=             -0.1434    Y=              0.1623    Z=              1.6135  Tot=              1.6280
 Quadrupole moment (field-independent basis, Debye-Ang):
   XX=            -97.5578   YY=            -94.1381   ZZ=            -90.9429
   XY=             -1.8174   XZ=             -6.1105   YZ=              0.7905
 Traceless Quadrupole moment (field-independent basis, Debye-Ang):
   XX=             -3.3449   YY=              0.0749   ZZ=              3.2700
   XY=             -1.8174   XZ=             -6.1105   YZ=              0.7905
 Octapole moment (field-independent basis, Debye-Ang**2):
  XXX=             36.9703  YYY=              2.0210  ZZZ=             -1.0884  XYY=             50.6239
  XXY=             10.1173  XXZ=             20.2127  XZZ=              9.7757  YZZ=             -8.5387
  YYZ=              4.3751  XYZ=              0.6056
 Hexadecapole moment (field-independent basis, Debye-Ang**3):
 XXXX=          -4636.8643 YYYY=           -604.4119 ZZZZ=           -321.3908 XXXY=           -125.5332
 XXXZ=            -66.6727 YYYX=            -37.4999 YYYZ=              1.4993 ZZZX=             10.6667
 ZZZY=             11.7455 XXYY=           -990.3485 XXZZ=           -800.7369 YYZZ=           -159.9987
 XXYZ=            -11.8072 YYXZ=            -13.5949 ZZXY=             17.6295
 N-N= 1.165800096774D+03 E-N=-5.143605827082D+03  KE= 1.187949653158D+03
 Breneman (CHELPG) radii used.
 Read replacement radii for each type of atom:
 Atom Element Radius
    1     7    1.70
    2    16    2.00
    3     6    1.50
    4     6    1.50
    5     6    1.50
    6     6    1.50
    7     8    1.70
    8     6    1.50
    9     9    1.70
   10     9    1.70
   11     9    1.70
   12     6    1.50
   13     6    1.50
   14     6    1.50
   15     7    1.70
   16     1    1.45
   17     1    1.45
   18     1    1.45
   19     1    1.45
   20     1    1.45
   21     1    1.45
   22     1    1.45
   23     1    1.45
   24     1    1.45
 Generate Potential Derived Charges using the Breneman model, NDens= 1.
 Grid spacing= 0.300 Box extension= 2.800
 NStep X,Y,Z=   52     35     33   Total possible points=       60060
 Number of Points to Fit=   15538

 **********************************************************************

            Electrostatic Properties Using The SCF Density.

 **********************************************************************

       Atomic Center    1 is at  -3.757589  1.273269 -0.567008
       Atomic Center    2 is at  -3.234272 -0.117291 -0.130299
       Atomic Center    3 is at  -1.463549  0.187652 -0.074798
       Atomic Center    4 is at  -0.942739  1.477557  0.011509
       Atomic Center    5 is at   0.434698  1.645991  0.044828
       Atomic Center    6 is at   1.273474  0.531354 -0.010855
       Atomic Center    7 is at   2.616011  0.828198  0.030367
       Atomic Center    8 is at   3.565919 -0.127093  0.019294
       Atomic Center    9 is at   4.733292  0.476519  0.088675
       Atomic Center   10 is at   3.531190 -0.860803 -1.091914
       Atomic Center   11 is at   3.454249 -0.960739  1.052067
       Atomic Center   12 is at   0.753453 -0.759545 -0.110597
       Atomic Center   13 is at  -0.629412 -0.921893 -0.145654
       Atomic Center   14 is at  -3.575267 -0.503063  1.592495
       Atomic Center   15 is at  -3.597898 -1.471349 -0.794528
       Atomic Center   16 is at  -4.773664  1.209821 -0.667311
       Atomic Center   17 is at  -1.628962  2.325695  0.030717
       Atomic Center   18 is at   0.886052  2.637496  0.108311
       Atomic Center   19 is at   1.401994 -1.632225 -0.170751
       Atomic Center   20 is at  -1.075626 -1.915089 -0.248339
       Atomic Center   21 is at  -4.655594 -0.692690  1.647875
       Atomic Center   22 is at  -3.018706 -1.399213  1.891884
       Atomic Center   23 is at  -3.293894  0.371931  2.190840
       Atomic Center   24 is at  -3.500956 -1.348639 -1.807418
   15538 points will be used for fitting atomic charges
 Fitting point charges to electrostatic potential
 Charges from ESP fit, RMS=   0.00280 RRMS=   0.22460:
 ESP charges:
               1
     1  N   -0.795491
     2  S    0.677173
     3  C    0.053073
     4  C   -0.067773
     5  C   -0.257734
     6  C    0.395475
     7  O   -0.384991
     8  C    0.771192
     9  F   -0.182083
    10  F   -0.215823
    11  F   -0.223913
    12  C   -0.278126
    13  C   -0.088382
    14  C   -0.303698
    15  N   -0.752554
    16  H    0.354225
    17  H    0.146391
    18  H    0.160154
    19  H    0.169684
    20  H    0.133572
    21  H    0.155870
    22  H    0.120156
    23  H    0.095585
    24  H    0.318019
 Sum of ESP charges =   0.00000
 ESP charges with hydrogens summed into heavy atoms:
               1
     1  N   -0.441267
     2  S    0.677173
     3  C    0.053073
     4  C    0.078618
     5  C   -0.097580
     6  C    0.395475
     7  O   -0.384991
     8  C    0.771192
     9  F   -0.182083
    10  F   -0.215823
    11  F   -0.223913
    12  C   -0.108442
    13  C    0.045190
    14  C    0.067913
    15  N   -0.434536
 Charge=   0.00000 Dipole=    -0.2313     0.2051     1.5821 Tot=     1.6120
 -----------------------------------------------------------------

              Electrostatic Properties (Atomic Units)

 -----------------------------------------------------------------
    Center     Electric         -------- Electric Field --------
               Potential          X             Y             Z
 -----------------------------------------------------------------
    1 Atom    -18.421559
    2 Atom    -59.070008
    3 Atom    -14.724545
    4 Atom    -14.734457
    5 Atom    -14.736823
    6 Atom    -14.661463
    7 Atom    -22.257968
    8 Atom    -14.439006
    9 Atom    -26.527295
   10 Atom    -26.530034
   11 Atom    -26.529744
   12 Atom    -14.733062
   13 Atom    -14.731972
   14 Atom    -14.732120
   15 Atom    -18.422522
   16 Atom     -1.045214
   17 Atom     -1.082937
   18 Atom     -1.073577
   19 Atom     -1.069945
   20 Atom     -1.076859
   21 Atom     -1.071603
   22 Atom     -1.073476
   23 Atom     -1.074393
   24 Atom     -1.048618
 -----------------------------------------------------------------
 Unable to Open any file for archive entry.
 1\1\GINC-NOTCH281\SP\RPBE1PBE\def2TZVP\C8H9F3N2O1S1\U1414944\06-Jun-20
 25\0\\#N Guess=Read Geom=Check Integral(Ultrafine) Density Pop=(ChelpG
 ,ReadRadii) NMR pbe1pbe EmpiricalDispersion=GD3BJ def2TZVP\\SDI1953_1\
 \0,1\N,0,-3.8963732822,-1.2638355139,0.4888964722\S,0,-3.3609490962,0.
 1334914219,0.0901087815\C,0,-1.5912593807,-0.1795225694,0.0482519559\C
 ,0,-1.0759943601,-1.469882641,-0.0613771286\C,0,0.3008701038,-1.644837
 5436,-0.0825188726\C,0,1.144554901,-0.5362305873,0.0083007301\O,0,2.48
 59664616,-0.8391950684,-0.0240730667\C,0,3.4404930128,0.1105319126,0.0
 198105515\F,0,4.6055350428,-0.4975450951,-0.0497411217\F,0,3.396428283
 7,0.8189646101,1.1469760502\F,0,3.3451657874,0.9680244484,-0.994920002
 \C,0,0.6299263982,0.7548142313,0.1313930385\C,0,-0.7524173492,0.923673
 5383,0.1540698186\C,0,-3.6797439762,0.5601373392,-1.6272897739\N,0,-3.
 7255018757,1.4740129668,0.7807606431\H,0,-4.9132229636,-1.1972822811,0
 .5788058647\H,0,-1.7662207512,-2.313703788,-0.1078866768\H,0,0.7479244
 51,-2.6370298312,-0.163336854\H,0,1.2821159916,1.622440436,0.218956058
 \H,0,-1.1947834637,1.9166373367,0.2741757015\H,0,-4.7583749861,0.75671
 6159,-1.690883145\H,0,-3.1151876828,1.4598897195,-1.8996856324\H,0,-3.
 3957897613,-0.3025111769,-2.2421141628\H,0,-3.6410780856,1.3277944021,
 1.7916485686\\Version=ES64L-G16RevC.01\State=1-A\HF=-1192.0062936\RMSD
 =2.196e-09\Dipole=-0.0492968,-0.0491189,-0.636695\Quadrupole=-2.579165
 8,0.016835,2.5623308,1.2548951,4.5168045,0.5234429\PG=C01 [X(C8H9F3N2O
 1S1)]\\@
 The archive entry for this job was punched.


 SATCHEL PAIGE'S GUIDE TO LONGEVITY

    1.  AVOID FRIED MEATS, WHICH ANGRY UP THE BLOOD.

    2.  IF YOUR STOMACH DISPUTES YOU, LIE DOWN AND PACIFY IT WITH COOL
        THOUGHTS.

    3.  KEEP THE JUICES FLOWING BY JANGLING AROUND GENTLY AS YOU MOVE.

    4.  GO VERY LIGHT ON THE VICES, SUCH AS CARRYING ON IN SOCIETY.
        THE SOCIAL RUMBLE AIN'T RESTFUL.

    5.  AVOID RUNNING AT ALL TIMES.

    6.  DON'T LOOK BACK.  SOMETHING MAY BE GAINING ON YOU.
 Job cpu time:       0 days  0 hours 27 minutes 41.5 seconds.
 Elapsed time:       0 days  0 hours  1 minutes 52.5 seconds.
 File lengths (MBytes):  RWF=    172 Int=      0 D2E=      0 Chk=     27 Scr=      2
 Normal termination of Gaussian 16 at Fri Jun  6 23:33:03 2025.
