 Entering Gaussian System, Link 0=g16
 Input=SDI0297_1.com
 Output=SDI0297_1.log
 Initial command:
 /uufs/chpc.utah.edu/sys/installdir/gaussian16/C01/AVX/g16/l1.exe "/scratch/general/vast/u1414944/3119882-notchpeak.peaks/Gau-750973.inp" -scrdir="/scratch/general/vast/u1414944/3119882-notchpeak.peaks/"
 Entering Link 1 = /uufs/chpc.utah.edu/sys/installdir/gaussian16/C01/AVX/g16/l1.exe PID=    750974.
  
 Copyright (c) 1988-2019, Gaussian, Inc.  All Rights Reserved.
  
 This is part of the Gaussian(R) 16 program.  It is based on
 the Gaussian(R) 09 system (copyright 2009, Gaussian, Inc.),
 the Gaussian(R) 03 system (copyright 2003, Gaussian, Inc.),
 the Gaussian(R) 98 system (copyright 1998, Gaussian, Inc.),
 the Gaussian(R) 94 system (copyright 1995, Gaussian, Inc.),
 the Gaussian 92(TM) system (copyright 1992, Gaussian, Inc.),
 the Gaussian 90(TM) system (copyright 1990, Gaussian, Inc.),
 the Gaussian 88(TM) system (copyright 1988, Gaussian, Inc.),
 the Gaussian 86(TM) system (copyright 1986, Carnegie Mellon
 University), and the Gaussian 82(TM) system (copyright 1983,
 Carnegie Mellon University). Gaussian is a federally registered
 trademark of Gaussian, Inc.
  
 This software contains proprietary and confidential information,
 including trade secrets, belonging to Gaussian, Inc.
  
 This software is provided under written license and may be
 used, copied, transmitted, or stored only in accord with that
 written license.
  
 The following legend is applicable only to US Government
 contracts under FAR:
  
                    RESTRICTED RIGHTS LEGEND
  
 Use, reproduction and disclosure by the US Government is
 subject to restrictions as set forth in subparagraphs (a)
 and (c) of the Commercial Computer Software - Restricted
 Rights clause in FAR 52.227-19.
  
 Gaussian, Inc.
 340 Quinnipiac St., Bldg. 40, Wallingford CT 06492
  
  
 ---------------------------------------------------------------
 Warning -- This program may not be used in any manner that
 competes with the business of Gaussian, Inc. or will provide
 assistance to any competitor of Gaussian, Inc.  The licensee
 of this program is prohibited from giving any competitor of
 Gaussian, Inc. access to this program.  By using this program,
 the user acknowledges that Gaussian, Inc. is engaged in the
 business of creating and licensing software in the field of
 computational chemistry and represents and warrants to the
 licensee that it is not a competitor of Gaussian, Inc. and that
 it will not use this program in any manner prohibited above.
 ---------------------------------------------------------------
  

 Cite this work as:
 Gaussian 16, Revision C.01,
 M. J. Frisch, G. W. Trucks, H. B. Schlegel, G. E. Scuseria, 
 M. A. Robb, J. R. Cheeseman, G. Scalmani, V. Barone, 
 G. A. Petersson, H. Nakatsuji, X. Li, M. Caricato, A. V. Marenich, 
 J. Bloino, B. G. Janesko, R. Gomperts, B. Mennucci, H. P. Hratchian, 
 J. V. Ortiz, A. F. Izmaylov, J. L. Sonnenberg, D. Williams-Young, 
 F. Ding, F. Lipparini, F. Egidi, J. Goings, B. Peng, A. Petrone, 
 T. Henderson, D. Ranasinghe, V. G. Zakrzewski, J. Gao, N. Rega, 
 G. Zheng, W. Liang, M. Hada, M. Ehara, K. Toyota, R. Fukuda, 
 J. Hasegawa, M. Ishida, T. Nakajima, Y. Honda, O. Kitao, H. Nakai, 
 T. Vreven, K. Throssell, J. A. Montgomery, Jr., J. E. Peralta, 
 F. Ogliaro, M. J. Bearpark, J. J. Heyd, E. N. Brothers, K. N. Kudin, 
 V. N. Staroverov, T. A. Keith, R. Kobayashi, J. Normand, 
 K. Raghavachari, A. P. Rendell, J. C. Burant, S. S. Iyengar, 
 J. Tomasi, M. Cossi, J. M. Millam, M. Klene, C. Adamo, R. Cammi, 
 J. W. Ochterski, R. L. Martin, K. Morokuma, O. Farkas, 
 J. B. Foresman, and D. J. Fox, Gaussian, Inc., Wallingford CT, 2019.
 
 ******************************************
 Gaussian 16:  ES64L-G16RevC.01  3-Jul-2019
                10-Feb-2025 
 ******************************************
 %NProcShared=16
 Will use up to   16 processors via shared memory.
 %Mem=40GB
 %chk=SDI0297_1.chk
 ----------------------------------------------------------------------
 #N OPT FREQ=NORAMAN Integral(Ultrafine) pbe1pbe EmpiricalDispersion=GD
 3BJ def2SVP
 ----------------------------------------------------------------------
 1/18=20,19=15,26=4,38=1/1,3;
 2/9=110,12=2,17=6,18=5,40=1/2;
 3/5=43,7=101,11=2,25=1,30=1,71=1,74=-13,75=-5,124=41/1,2,3;
 4//1;
 5/5=2,38=5/2;
 6/7=2,8=2,9=2,10=2,28=1/1;
 7//1,2,3,16;
 1/18=20,19=15,26=4/3(2);
 2/9=110/2;
 99//99;
 2/9=110/2;
 3/5=43,7=101,11=2,25=1,30=1,71=1,74=-13,75=-5,124=41/1,2,3;
 4/5=5,16=3,69=1/1;
 5/5=2,38=5/2;
 7//1,2,3,16;
 1/18=20,19=15,26=4/3(-5);
 2/9=110/2;
 6/7=2,8=2,9=2,10=2,19=2,28=1/1;
 99/9=1/99;
 ---------
 SDI0297_1
 ---------
 Symbolic Z-matrix:
 Charge =  0 Multiplicity = 1
 N                    -2.76457  -1.53434   0.5368 
 S                    -2.4898   -0.08623   0.10822 
 C                    -0.67272  -0.04633   0.06245 
 C                    -0.04917   1.18623   0.06136 
 C                     1.33646   1.22644   0.0238 
 Cl                    2.14969   2.74478   0.01834 
 C                     2.08205   0.0565   -0.00935 
 C                     1.42252  -1.16464   0.00236 
 Cl                    2.34525  -2.61746  -0.03128 
 C                     0.03729  -1.22895   0.03928 
 C                    -2.7989    0.23202  -1.66419 
 N                    -3.10679   1.16315   0.7503 
 H                    -3.69055  -1.69399   0.89611 
 H                    -0.64445   2.08499   0.10421 
 H                     3.15913   0.09581  -0.038 
 H                    -0.50053  -2.16215   0.06628 
 H                    -2.29216  -0.53131  -2.24205 
 H                    -2.4197    1.2201   -1.88778 
 H                    -3.86897   0.19675  -1.83064 
 H                    -3.23932   1.09912   1.74624 
 

 GradGradGradGradGradGradGradGradGradGradGradGradGradGradGradGradGradGrad
 Berny optimization.
 Initialization pass.
                           ----------------------------
                           !    Initial Parameters    !
                           ! (Angstroms and Degrees)  !
 --------------------------                            --------------------------
 ! Name  Definition              Value          Derivative Info.                !
 --------------------------------------------------------------------------------
 ! R1    R(1,2)                  1.535          estimate D2E/DX2                !
 ! R2    R(1,13)                 1.006          estimate D2E/DX2                !
 ! R3    R(2,3)                  1.8181         estimate D2E/DX2                !
 ! R4    R(2,11)                 1.8271         estimate D2E/DX2                !
 ! R5    R(2,12)                 1.5342         estimate D2E/DX2                !
 ! R6    R(3,4)                  1.3813         estimate D2E/DX2                !
 ! R7    R(3,10)                 1.3796         estimate D2E/DX2                !
 ! R8    R(4,5)                  1.3867         estimate D2E/DX2                !
 ! R9    R(4,14)                 1.0789         estimate D2E/DX2                !
 ! R10   R(5,6)                  1.7224         estimate D2E/DX2                !
 ! R11   R(5,7)                  1.3877         estimate D2E/DX2                !
 ! R12   R(7,8)                  1.3879         estimate D2E/DX2                !
 ! R13   R(7,15)                 1.0782         estimate D2E/DX2                !
 ! R14   R(8,9)                  1.7214         estimate D2E/DX2                !
 ! R15   R(8,10)                 1.3872         estimate D2E/DX2                !
 ! R16   R(10,16)                1.0774         estimate D2E/DX2                !
 ! R17   R(11,17)                1.0832         estimate D2E/DX2                !
 ! R18   R(11,18)                1.0817         estimate D2E/DX2                !
 ! R19   R(11,19)                1.0835         estimate D2E/DX2                !
 ! R20   R(12,20)                1.0068         estimate D2E/DX2                !
 ! A1    A(2,1,13)             114.47           estimate D2E/DX2                !
 ! A2    A(1,2,3)              101.9256         estimate D2E/DX2                !
 ! A3    A(1,2,11)             113.8841         estimate D2E/DX2                !
 ! A4    A(1,2,12)             125.4083         estimate D2E/DX2                !
 ! A5    A(3,2,11)              98.0967         estimate D2E/DX2                !
 ! A6    A(3,2,12)             113.2401         estimate D2E/DX2                !
 ! A7    A(11,2,12)            101.3092         estimate D2E/DX2                !
 ! A8    A(2,3,4)              118.0841         estimate D2E/DX2                !
 ! A9    A(2,3,10)             119.7341         estimate D2E/DX2                !
 ! A10   A(4,3,10)             122.1803         estimate D2E/DX2                !
 ! A11   A(3,4,5)              118.4868         estimate D2E/DX2                !
 ! A12   A(3,4,14)             119.6201         estimate D2E/DX2                !
 ! A13   A(5,4,14)             121.8867         estimate D2E/DX2                !
 ! A14   A(4,5,6)              119.8294         estimate D2E/DX2                !
 ! A15   A(4,5,7)              120.8679         estimate D2E/DX2                !
 ! A16   A(6,5,7)              119.3027         estimate D2E/DX2                !
 ! A17   A(5,7,8)              119.094          estimate D2E/DX2                !
 ! A18   A(5,7,15)             120.4396         estimate D2E/DX2                !
 ! A19   A(8,7,15)             120.4655         estimate D2E/DX2                !
 ! A20   A(7,8,9)              119.1876         estimate D2E/DX2                !
 ! A21   A(7,8,10)             121.033          estimate D2E/DX2                !
 ! A22   A(9,8,10)             119.7794         estimate D2E/DX2                !
 ! A23   A(3,10,8)             118.3349         estimate D2E/DX2                !
 ! A24   A(3,10,16)            119.0234         estimate D2E/DX2                !
 ! A25   A(8,10,16)            122.6343         estimate D2E/DX2                !
 ! A26   A(2,11,17)            108.398          estimate D2E/DX2                !
 ! A27   A(2,11,18)            107.4765         estimate D2E/DX2                !
 ! A28   A(2,11,19)            108.0856         estimate D2E/DX2                !
 ! A29   A(17,11,18)           111.6801         estimate D2E/DX2                !
 ! A30   A(17,11,19)           110.923          estimate D2E/DX2                !
 ! A31   A(18,11,19)           110.1319         estimate D2E/DX2                !
 ! A32   A(2,12,20)            114.5293         estimate D2E/DX2                !
 ! D1    D(13,1,2,3)           161.9738         estimate D2E/DX2                !
 ! D2    D(13,1,2,11)          -93.4922         estimate D2E/DX2                !
 ! D3    D(13,1,2,12)           31.8123         estimate D2E/DX2                !
 ! D4    D(1,2,3,4)           -163.0129         estimate D2E/DX2                !
 ! D5    D(1,2,3,10)            16.5532         estimate D2E/DX2                !
 ! D6    D(11,2,3,4)            80.3696         estimate D2E/DX2                !
 ! D7    D(11,2,3,10)         -100.0642         estimate D2E/DX2                !
 ! D8    D(12,2,3,4)           -25.6914         estimate D2E/DX2                !
 ! D9    D(12,2,3,10)          153.8747         estimate D2E/DX2                !
 ! D10   D(1,2,11,17)          -49.811          estimate D2E/DX2                !
 ! D11   D(1,2,11,18)         -170.6674         estimate D2E/DX2                !
 ! D12   D(1,2,11,19)           70.4894         estimate D2E/DX2                !
 ! D13   D(3,2,11,17)           57.1226         estimate D2E/DX2                !
 ! D14   D(3,2,11,18)          -63.7338         estimate D2E/DX2                !
 ! D15   D(3,2,11,19)          177.423          estimate D2E/DX2                !
 ! D16   D(12,2,11,17)         172.9016         estimate D2E/DX2                !
 ! D17   D(12,2,11,18)          52.0451         estimate D2E/DX2                !
 ! D18   D(12,2,11,19)         -66.7981         estimate D2E/DX2                !
 ! D19   D(1,2,12,20)           35.9425         estimate D2E/DX2                !
 ! D20   D(3,2,12,20)          -89.5922         estimate D2E/DX2                !
 ! D21   D(11,2,12,20)         166.3916         estimate D2E/DX2                !
 ! D22   D(2,3,4,5)           -179.8692         estimate D2E/DX2                !
 ! D23   D(2,3,4,14)             1.0334         estimate D2E/DX2                !
 ! D24   D(10,3,4,5)             0.5759         estimate D2E/DX2                !
 ! D25   D(10,3,4,14)         -178.5215         estimate D2E/DX2                !
 ! D26   D(2,3,10,8)           179.8977         estimate D2E/DX2                !
 ! D27   D(2,3,10,16)           -1.0659         estimate D2E/DX2                !
 ! D28   D(4,3,10,8)            -0.5545         estimate D2E/DX2                !
 ! D29   D(4,3,10,16)          178.4819         estimate D2E/DX2                !
 ! D30   D(3,4,5,6)            179.8896         estimate D2E/DX2                !
 ! D31   D(3,4,5,7)             -0.124          estimate D2E/DX2                !
 ! D32   D(14,4,5,6)            -1.0345         estimate D2E/DX2                !
 ! D33   D(14,4,5,7)           178.9519         estimate D2E/DX2                !
 ! D34   D(4,5,7,8)             -0.3249         estimate D2E/DX2                !
 ! D35   D(4,5,7,15)          -179.9715         estimate D2E/DX2                !
 ! D36   D(6,5,7,8)            179.6615         estimate D2E/DX2                !
 ! D37   D(6,5,7,15)             0.0149         estimate D2E/DX2                !
 ! D38   D(5,7,8,9)           -179.7169         estimate D2E/DX2                !
 ! D39   D(5,7,8,10)             0.3468         estimate D2E/DX2                !
 ! D40   D(15,7,8,9)            -0.0703         estimate D2E/DX2                !
 ! D41   D(15,7,8,10)          179.9933         estimate D2E/DX2                !
 ! D42   D(7,8,10,3)             0.082          estimate D2E/DX2                !
 ! D43   D(7,8,10,16)         -178.9174         estimate D2E/DX2                !
 ! D44   D(9,8,10,3)          -179.854          estimate D2E/DX2                !
 ! D45   D(9,8,10,16)            1.1466         estimate D2E/DX2                !
 --------------------------------------------------------------------------------
 Trust Radius=3.00D-01 FncErr=1.00D-07 GrdErr=1.00D-06 EigMax=2.50D+02 EigMin=1.00D-04
 Number of steps in this run=    107 maximum allowed number of steps=    120.
 GradGradGradGradGradGradGradGradGradGradGradGradGradGradGradGradGradGrad

                          Input orientation:                          
 ---------------------------------------------------------------------
 Center     Atomic      Atomic             Coordinates (Angstroms)
 Number     Number       Type             X           Y           Z
 ---------------------------------------------------------------------
      1          7           0       -2.764573   -1.534336    0.536795
      2         16           0       -2.489796   -0.086228    0.108215
      3          6           0       -0.672716   -0.046326    0.062451
      4          6           0       -0.049175    1.186227    0.061363
      5          6           0        1.336456    1.226437    0.023799
      6         17           0        2.149689    2.744777    0.018338
      7          6           0        2.082053    0.056500   -0.009351
      8          6           0        1.422519   -1.164640    0.002358
      9         17           0        2.345252   -2.617459   -0.031276
     10          6           0        0.037291   -1.228949    0.039276
     11          6           0       -2.798901    0.232016   -1.664189
     12          7           0       -3.106785    1.163147    0.750300
     13          1           0       -3.690553   -1.693993    0.896112
     14          1           0       -0.644448    2.084990    0.104210
     15          1           0        3.159126    0.095812   -0.038001
     16          1           0       -0.500527   -2.162155    0.066283
     17          1           0       -2.292161   -0.531306   -2.242052
     18          1           0       -2.419704    1.220098   -1.887781
     19          1           0       -3.868966    0.196748   -1.830643
     20          1           0       -3.239317    1.099121    1.746241
 ---------------------------------------------------------------------
                    Distance matrix (angstroms):
                    1          2          3          4          5
     1  N    0.000000
     2  S    1.534992   0.000000
     3  C    2.610564   1.818095   0.000000
     4  C    3.873098   2.752812   1.381301   0.000000
     5  C    4.970259   4.046038   2.378696   1.386723   0.000000
     6  Cl   6.536786   5.435760   3.969656   2.695539   1.722421
     7  C    5.130187   4.575587   2.757622   2.413175   1.387720
     8  C    4.237220   4.059604   2.375762   2.774155   2.392721
     9  Cl   5.254158   5.459330   3.965809   4.495541   3.974448
    10  C    2.862032   2.774299   1.379581   2.416824   2.777947
    11  C    2.822324   1.827086   2.753076   3.383644   4.575954
    12  N    2.727473   1.534238   2.803686   3.134350   4.502688
    13  H    1.006002   2.155808   3.537957   4.717215   5.878832
    14  H    4.216822   2.849476   2.131913   1.078870   2.160454
    15  H    6.170735   5.653746   3.835792   3.389995   2.145753
    16  H    2.396130   2.875487   2.122827   3.378669   3.854720
    17  H    2.991861   2.400189   2.858066   3.645082   4.624998
    18  H    3.685704   2.386504   2.908471   3.069156   4.214608
    19  H    3.133864   2.396112   3.722755   4.376021   5.620999
    20  H    2.936535   2.156377   3.276376   3.608796   4.890881
                    6          7          8          9         10
     6  Cl   0.000000
     7  C    2.689270   0.000000
     8  C    3.976502   1.387914   0.000000
     9  Cl   5.366030   2.686970   1.721410   0.000000
    10  C    4.500352   2.415739   1.387211   2.694369   0.000000
    11  C    5.799432   5.156841   4.748517   6.103132   3.616655
    12  N    5.537855   5.359643   5.147096   6.680460   4.014087
    13  H    7.387936   6.099760   5.217520   6.176066   3.853214
    14  H    2.872262   3.400217   3.852638   5.574019   3.383959
    15  H    2.835340   1.078171   2.146199   2.832714   3.392170
    16  H    5.577089   3.405564   2.167309   2.883623   1.077427
    17  H    5.964236   4.946132   4.386038   5.544832   3.334293
    18  H    5.180471   5.014805   4.901252   6.393611   3.968401
    19  H    6.792303   6.225062   5.763079   7.055068   4.559392
    20  H    5.893659   5.699661   5.467948   6.939737   4.366898
                   11         12         13         14         15
    11  C    0.000000
    12  N    2.606061   0.000000
    13  H    3.325613   2.919811   0.000000
    14  H    3.347002   2.707458   4.917986   0.000000
    15  H    6.177469   6.404862   7.141013   4.294674   0.000000
    16  H    3.742874   4.279964   3.329273   4.249752   4.301435
    17  H    1.083222   3.533971   3.627040   3.881354   5.913345
    18  H    1.081708   2.726682   4.225761   2.804925   5.984066
    19  H    1.083508   2.859390   3.322940   4.207925   7.253815
    20  H    3.546388   1.006758   2.954288   3.225143   6.717903
                   16         17         18         19         20
    16  H    0.000000
    17  H    3.346345   0.000000
    18  H    4.352153   1.791422   0.000000
    19  H    4.528701   1.784834   1.775069   0.000000
    20  H    4.578116   4.411561   3.727267   3.742303   0.000000
 Stoichiometry    C7H8Cl2N2S
 Framework group  C1[X(C7H8Cl2N2S)]
 Deg. of freedom    54
 Full point group                 C1      NOp   1
 Largest Abelian subgroup         C1      NOp   1
 Largest concise Abelian subgroup C1      NOp   1
                         Standard orientation:                         
 ---------------------------------------------------------------------
 Center     Atomic      Atomic             Coordinates (Angstroms)
 Number     Number       Type             X           Y           Z
 ---------------------------------------------------------------------
      1          7           0        2.675873   -1.532755   -0.566451
      2         16           0        2.402360   -0.084085   -0.138960
      3          6           0        0.585604   -0.046322   -0.080309
      4          6           0       -0.039447    1.185463   -0.077355
      5          6           0       -1.424824    1.224049   -0.029985
      6         17           0       -2.239885    2.741396   -0.021904
      7          6           0       -2.168708    0.053268    0.010942
      8          6           0       -1.507755   -1.167082   -0.002913
      9         17           0       -2.428416   -2.620960    0.040356
     10          6           0       -0.122747   -1.229765   -0.049584
     11          6           0        2.723709    0.238272    1.630521
     12          7           0        3.013195    1.164692   -0.788053
     13          1           0        3.599464   -1.692030   -0.932034
     14          1           0        0.554386    2.084866   -0.126337
     15          1           0       -3.245597    0.091316    0.047197
     16          1           0        0.416026   -2.162364   -0.078471
     17          1           0        2.222056   -0.524453    2.213587
     18          1           0        2.344887    1.226356    1.854741
     19          1           0        3.794977    0.204671    1.789405
     20          1           0        3.138696    1.098730   -1.784778
 ---------------------------------------------------------------------
 Rotational constants (GHZ):           0.7200379           0.4534773           0.2984969
 Standard basis: def2SVP (5D, 7F)
 There are   232 symmetry adapted cartesian basis functions of A   symmetry.
 There are   220 symmetry adapted basis functions of A   symmetry.
   220 basis functions,   392 primitive gaussians,   232 cartesian basis functions
    57 alpha electrons       57 beta electrons
       nuclear repulsion energy       989.5762614815 Hartrees.
 NAtoms=   20 NActive=   20 NUniq=   20 SFac= 1.00D+00 NAtFMM=   60 NAOKFM=F Big=F
 Integral buffers will be    131072 words long.
 Raffenetti 2 integral format.
 Two-electron integral symmetry is turned on.
 Nuclear repulsion after empirical dispersion term =      989.5505050584 Hartrees.
 One-electron integrals computed using PRISM.
   1 Symmetry operations used in ECPInt.
 ECPInt:  NShTT=    5253 NPrTT=   20713 LenC2=    4985 LenP2D=   14235.
 LDataN:  DoStor=T MaxTD1= 4 Len=   56
 NBasis=   220 RedAO= T EigKep=  2.43D-04  NBF=   220
 NBsUse=   220 1.00D-06 EigRej= -1.00D+00 NBFU=   220
 ExpMin= 1.22D-01 ExpMax= 1.04D+04 ExpMxC= 1.57D+03 IAcc=3 IRadAn=         5 AccDes= 0.00D+00
 Harris functional with IExCor= 1009 and IRadAn=       5 diagonalized for initial guess.
 HarFok:  IExCor= 1009 AccDes= 0.00D+00 IRadAn=         5 IDoV= 1 UseB2=F ITyADJ=14
 ICtDFT=  3500011 ScaDFX=  1.000000  1.000000  1.000000  1.000000
 FoFCou: FMM=F IPFlag=           0 FMFlag=      100000 FMFlg1=           0
         NFxFlg=           0 DoJE=T BraDBF=F KetDBF=T FulRan=T
         wScrn=  0.000000 ICntrl=       500 IOpCl=  0 I1Cent=   200000004 NGrid=           0
         NMat0=    1 NMatS0=      1 NMatT0=    0 NMatD0=    1 NMtDS0=    0 NMtDT0=    0
 Petite list used in FoFCou.
 Requested convergence on RMS density matrix=1.00D-08 within 128 cycles.
 Requested convergence on MAX density matrix=1.00D-06.
 Requested convergence on             energy=1.00D-06.
 No special actions if energy rises.
 Integral accuracy reduced to 1.0D-05 until final iterations.
 Initial convergence to 1.0D-05 achieved.  Increase integral accuracy.
 SCF Done:  E(RPBE1PBE) =  -1697.96826035     A.U. after   15 cycles
            NFock= 15  Conv=0.53D-08     -V/T= 2.0035

 **********************************************************************

            Population analysis using the SCF Density.

 **********************************************************************

 Orbital symmetries:
       Occupied  (A) (A) (A) (A) (A) (A) (A) (A) (A) (A) (A) (A)
                 (A) (A) (A) (A) (A) (A) (A) (A) (A) (A) (A) (A)
                 (A) (A) (A) (A) (A) (A) (A) (A) (A) (A) (A) (A)
                 (A) (A) (A) (A) (A) (A) (A) (A) (A) (A) (A) (A)
                 (A) (A) (A) (A) (A) (A) (A) (A) (A)
       Virtual   (A) (A) (A) (A) (A) (A) (A) (A) (A) (A) (A) (A)
                 (A) (A) (A) (A) (A) (A) (A) (A) (A) (A) (A) (A)
                 (A) (A) (A) (A) (A) (A) (A) (A) (A) (A) (A) (A)
                 (A) (A) (A) (A) (A) (A) (A) (A) (A) (A) (A) (A)
                 (A) (A) (A) (A) (A) (A) (A) (A) (A) (A) (A) (A)
                 (A) (A) (A) (A) (A) (A) (A) (A) (A) (A) (A) (A)
                 (A) (A) (A) (A) (A) (A) (A) (A) (A) (A) (A) (A)
                 (A) (A) (A) (A) (A) (A) (A) (A) (A) (A) (A) (A)
                 (A) (A) (A) (A) (A) (A) (A) (A) (A) (A) (A) (A)
                 (A) (A) (A) (A) (A) (A) (A) (A) (A) (A) (A) (A)
                 (A) (A) (A) (A) (A) (A) (A) (A) (A) (A) (A) (A)
                 (A) (A) (A) (A) (A) (A) (A) (A) (A) (A) (A) (A)
                 (A) (A) (A) (A) (A) (A) (A) (A) (A) (A) (A) (A)
                 (A) (A) (A) (A) (A) (A) (A)
 The electronic state is 1-A.
 Alpha  occ. eigenvalues -- -101.69580-101.69393 -89.19311 -14.35444 -14.35394
 Alpha  occ. eigenvalues --  -10.31775 -10.31610 -10.28082 -10.27122 -10.26925
 Alpha  occ. eigenvalues --  -10.26464 -10.26451  -9.54821  -9.54636  -8.16713
 Alpha  occ. eigenvalues --   -7.28956  -7.28770  -7.27970  -7.27928  -7.27787
 Alpha  occ. eigenvalues --   -7.27741  -6.10850  -6.10753  -6.10714  -1.01573
 Alpha  occ. eigenvalues --   -0.94866  -0.91360  -0.86758  -0.86266  -0.79541
 Alpha  occ. eigenvalues --   -0.76988  -0.76795  -0.68402  -0.63680  -0.61530
 Alpha  occ. eigenvalues --   -0.56186  -0.54822  -0.52340  -0.50085  -0.48193
 Alpha  occ. eigenvalues --   -0.48159  -0.46907  -0.45006  -0.44612  -0.44089
 Alpha  occ. eigenvalues --   -0.41367  -0.40548  -0.39215  -0.35756  -0.35051
 Alpha  occ. eigenvalues --   -0.34289  -0.33341  -0.29052  -0.27751  -0.27495
 Alpha  occ. eigenvalues --   -0.26464  -0.25246
 Alpha virt. eigenvalues --   -0.04668  -0.03348   0.02171   0.06637   0.07069
 Alpha virt. eigenvalues --    0.07328   0.08502   0.09411   0.10144   0.11228
 Alpha virt. eigenvalues --    0.12489   0.13483   0.13780   0.14008   0.17198
 Alpha virt. eigenvalues --    0.17797   0.19385   0.24100   0.26745   0.28740
 Alpha virt. eigenvalues --    0.30541   0.30877   0.35918   0.37113   0.39881
 Alpha virt. eigenvalues --    0.40861   0.41060   0.42173   0.43509   0.46020
 Alpha virt. eigenvalues --    0.46888   0.47792   0.49155   0.50406   0.53407
 Alpha virt. eigenvalues --    0.54739   0.55728   0.58718   0.59215   0.59856
 Alpha virt. eigenvalues --    0.60903   0.61386   0.62915   0.63715   0.64476
 Alpha virt. eigenvalues --    0.65233   0.66531   0.66716   0.67223   0.68389
 Alpha virt. eigenvalues --    0.68698   0.69655   0.71602   0.72197   0.73245
 Alpha virt. eigenvalues --    0.74129   0.76187   0.76674   0.77731   0.77916
 Alpha virt. eigenvalues --    0.78586   0.79851   0.80635   0.81559   0.82782
 Alpha virt. eigenvalues --    0.83331   0.84036   0.84974   0.86119   0.87970
 Alpha virt. eigenvalues --    0.89205   0.90326   0.91665   0.93767   0.95636
 Alpha virt. eigenvalues --    0.96348   0.97083   1.00891   1.03463   1.05452
 Alpha virt. eigenvalues --    1.07526   1.09251   1.13380   1.14035   1.15366
 Alpha virt. eigenvalues --    1.19806   1.20294   1.21451   1.23280   1.24696
 Alpha virt. eigenvalues --    1.25283   1.27105   1.27607   1.31021   1.35686
 Alpha virt. eigenvalues --    1.38711   1.40713   1.43086   1.45801   1.47075
 Alpha virt. eigenvalues --    1.50030   1.50587   1.51495   1.56128   1.56213
 Alpha virt. eigenvalues --    1.65988   1.68792   1.72477   1.73321   1.76466
 Alpha virt. eigenvalues --    1.76869   1.77611   1.78800   1.79492   1.82445
 Alpha virt. eigenvalues --    1.83252   1.83778   1.87903   1.88241   1.90015
 Alpha virt. eigenvalues --    1.99037   1.99676   2.04994   2.05780   2.10965
 Alpha virt. eigenvalues --    2.11556   2.14805   2.16207   2.17249   2.21461
 Alpha virt. eigenvalues --    2.24546   2.25002   2.28701   2.29770   2.32188
 Alpha virt. eigenvalues --    2.34158   2.37455   2.37784   2.40293   2.42675
 Alpha virt. eigenvalues --    2.45103   2.45597   2.54069   2.56774   2.58235
 Alpha virt. eigenvalues --    2.60151   2.62865   2.63450   2.63958   2.73570
 Alpha virt. eigenvalues --    2.79535   2.79764   2.83888   2.87504   2.89748
 Alpha virt. eigenvalues --    2.94616   2.94842   2.98307   3.00470   3.09033
 Alpha virt. eigenvalues --    3.27159   3.31624   3.48915
          Condensed to atoms (all electrons):
               1          2          3          4          5          6
     1  N    6.855147   0.381846  -0.107674   0.007330  -0.000110   0.000000
     2  S    0.381846  14.610660   0.128849  -0.062950   0.003095  -0.000039
     3  C   -0.107674   0.128849   5.934163   0.141864   0.165742   0.005561
     4  C    0.007330  -0.062950   0.141864   5.253833   0.172320  -0.066592
     5  C   -0.000110   0.003095   0.165742   0.172320   5.337417   0.242841
     6  Cl   0.000000  -0.000039   0.005561  -0.066592   0.242841  16.945995
     7  C    0.000031  -0.000755  -0.202556   0.132329   0.202447  -0.058865
     8  C    0.001875   0.006145   0.171257  -0.198459   0.170360   0.005470
     9  Cl  -0.000006  -0.000028   0.005585   0.000174   0.005636  -0.000026
    10  C    0.002380  -0.038725   0.193868   0.097935  -0.188366   0.000255
    11  C   -0.048950   0.284910  -0.120536  -0.003431  -0.000840   0.000008
    12  N   -0.039239   0.354761  -0.069510   0.009811   0.001665  -0.000000
    13  H    0.338368  -0.019365   0.011433  -0.000309  -0.000008  -0.000000
    14  H    0.000711  -0.008243  -0.066328   0.428733  -0.049692   0.001868
    15  H    0.000000   0.000023  -0.002409   0.015765  -0.060404   0.000570
    16  H    0.032397  -0.013108  -0.047670   0.013820  -0.002311   0.000011
    17  H    0.003555  -0.015075   0.005819  -0.001516   0.000029   0.000000
    18  H    0.003401  -0.005145   0.000624   0.003953   0.000260  -0.000018
    19  H    0.000831  -0.007478   0.007523   0.000066   0.000006  -0.000000
    20  H   -0.001425  -0.012319  -0.002127  -0.000867  -0.000136   0.000000
               7          8          9         10         11         12
     1  N    0.000031   0.001875  -0.000006   0.002380  -0.048950  -0.039239
     2  S   -0.000755   0.006145  -0.000028  -0.038725   0.284910   0.354761
     3  C   -0.202556   0.171257   0.005585   0.193868  -0.120536  -0.069510
     4  C    0.132329  -0.198459   0.000174   0.097935  -0.003431   0.009811
     5  C    0.202447   0.170360   0.005636  -0.188366  -0.000840   0.001665
     6  Cl  -0.058865   0.005470  -0.000026   0.000255   0.000008  -0.000000
     7  C    5.114833   0.201181  -0.060953   0.133714  -0.000154  -0.000015
     8  C    0.201181   5.408744   0.244480   0.117489  -0.000494   0.000019
     9  Cl  -0.060953   0.244480  16.945524  -0.066899   0.000003   0.000000
    10  C    0.133714   0.117489  -0.066899   5.209254  -0.005801   0.003633
    11  C   -0.000154  -0.000494   0.000003  -0.005801   4.948232  -0.095807
    12  N   -0.000015   0.000019   0.000000   0.003633  -0.095807   6.894551
    13  H    0.000006  -0.000050  -0.000001  -0.000400  -0.004391  -0.000918
    14  H    0.014153  -0.002263   0.000013   0.012710   0.000024   0.022780
    15  H    0.435133  -0.059578   0.000756   0.015336   0.000000  -0.000000
    16  H    0.013497  -0.065777   0.001811   0.435885   0.001002   0.000379
    17  H    0.000025   0.000246  -0.000006   0.002464   0.364284   0.005900
    18  H    0.000043  -0.000007   0.000000   0.000205   0.356110   0.003656
    19  H    0.000001   0.000006  -0.000000  -0.000011   0.364076   0.006846
    20  H    0.000000  -0.000036   0.000000  -0.000041   0.008895   0.329154
              13         14         15         16         17         18
     1  N    0.338368   0.000711   0.000000   0.032397   0.003555   0.003401
     2  S   -0.019365  -0.008243   0.000023  -0.013108  -0.015075  -0.005145
     3  C    0.011433  -0.066328  -0.002409  -0.047670   0.005819   0.000624
     4  C   -0.000309   0.428733   0.015765   0.013820  -0.001516   0.003953
     5  C   -0.000008  -0.049692  -0.060404  -0.002311   0.000029   0.000260
     6  Cl  -0.000000   0.001868   0.000570   0.000011   0.000000  -0.000018
     7  C    0.000006   0.014153   0.435133   0.013497   0.000025   0.000043
     8  C   -0.000050  -0.002263  -0.059578  -0.065777   0.000246  -0.000007
     9  Cl  -0.000001   0.000013   0.000756   0.001811  -0.000006   0.000000
    10  C   -0.000400   0.012710   0.015336   0.435885   0.002464   0.000205
    11  C   -0.004391   0.000024   0.000000   0.001002   0.364284   0.356110
    12  N   -0.000918   0.022780  -0.000000   0.000379   0.005900   0.003656
    13  H    0.545359  -0.000051   0.000000  -0.001003  -0.000152  -0.000050
    14  H   -0.000051   0.617428  -0.000234  -0.000295   0.000016   0.001323
    15  H    0.000000  -0.000234   0.635597  -0.000202  -0.000000  -0.000000
    16  H   -0.001003  -0.000295  -0.000202   0.591111   0.000296  -0.000054
    17  H   -0.000152   0.000016  -0.000000   0.000296   0.581314  -0.013567
    18  H   -0.000050   0.001323  -0.000000  -0.000054  -0.013567   0.574237
    19  H    0.001483  -0.000143   0.000000  -0.000085  -0.009824  -0.005916
    20  H    0.001557  -0.000441   0.000000  -0.000007  -0.000395  -0.000739
              19         20
     1  N    0.000831  -0.001425
     2  S   -0.007478  -0.012319
     3  C    0.007523  -0.002127
     4  C    0.000066  -0.000867
     5  C    0.000006  -0.000136
     6  Cl  -0.000000   0.000000
     7  C    0.000001   0.000000
     8  C    0.000006  -0.000036
     9  Cl  -0.000000   0.000000
    10  C   -0.000011  -0.000041
    11  C    0.364076   0.008895
    12  N    0.006846   0.329154
    13  H    0.001483   0.001557
    14  H   -0.000143  -0.000441
    15  H    0.000000   0.000000
    16  H   -0.000085  -0.000007
    17  H   -0.009824  -0.000395
    18  H   -0.005916  -0.000739
    19  H    0.553597  -0.000491
    20  H   -0.000491   0.551307
 Mulliken charges:
               1
     1  N   -0.430469
     2  S    0.412941
     3  C   -0.153478
     4  C    0.056192
     5  C    0.000050
     6  Cl  -0.077039
     7  C    0.075906
     8  C   -0.000610
     9  Cl  -0.076065
    10  C    0.075112
    11  C   -0.047142
    12  N   -0.427666
    13  H    0.128491
    14  H    0.027932
    15  H    0.019647
    16  H    0.040305
    17  H    0.076586
    18  H    0.081682
    19  H    0.089512
    20  H    0.128112
 Sum of Mulliken charges =  -0.00000
 Mulliken charges with hydrogens summed into heavy atoms:
               1
     1  N   -0.301978
     2  S    0.412941
     3  C   -0.153478
     4  C    0.084124
     5  C    0.000050
     6  Cl  -0.077039
     7  C    0.095554
     8  C   -0.000610
     9  Cl  -0.076065
    10  C    0.115417
    11  C    0.200638
    12  N   -0.299554
 Electronic spatial extent (au):  <R**2>=           3451.7437
 Charge=             -0.0000 electrons
 Dipole moment (field-independent basis, Debye):
    X=              0.5949    Y=              0.0654    Z=              0.9779  Tot=              1.1465
 Quadrupole moment (field-independent basis, Debye-Ang):
   XX=            -86.6508   YY=            -97.5441   ZZ=            -87.1670
   XY=             -2.7688   XZ=              1.3270   YZ=             -0.1422
 Traceless Quadrupole moment (field-independent basis, Debye-Ang):
   XX=              3.8031   YY=             -7.0901   ZZ=              3.2870
   XY=             -2.7688   XZ=              1.3270   YZ=             -0.1422
 Octapole moment (field-independent basis, Debye-Ang**2):
  XXX=              5.9663  YYY=              1.1405  ZZZ=             -4.0213  XYY=            -10.7535
  XXY=            -17.9805  XXZ=             -0.7427  XZZ=             17.4907  YZZ=              3.0599
  YYZ=              1.7310  XYZ=              1.8158
 Hexadecapole moment (field-independent basis, Debye-Ang**3):
 XXXX=          -2483.9719 YYYY=          -1516.1491 ZZZZ=           -257.1345 XXXY=            -94.1733
 XXXZ=            -19.2864 YYYX=             -4.8748 YYYZ=              1.3676 ZZZX=            -18.9644
 ZZZY=             -9.3355 XXYY=           -726.3704 XXZZ=           -432.5010 YYZZ=           -299.8612
 XXYZ=             12.8742 YYXZ=             -1.4528 ZZXY=              7.8297
 N-N= 9.895505050584D+02 E-N=-5.993337419365D+03  KE= 1.692041277222D+03
   1 Symmetry operations used in ECPInt.
 ECPInt:  NShTT=    5253 NPrTT=   20713 LenC2=    4985 LenP2D=   14235.
 LDataN:  DoStor=T MaxTD1= 5 Len=  102
 Calling FoFJK, ICntrl=      2127 FMM=F ISym2X=0 I1Cent= 0 IOpClX= 0 NMat=1 NMatS=1 NMatT=0.
 ***** Axes restored to original set *****
 -------------------------------------------------------------------
 Center     Atomic                   Forces (Hartrees/Bohr)
 Number     Number              X              Y              Z
 -------------------------------------------------------------------
      1        7           0.017306343   -0.006107872   -0.002450818
      2       16          -0.005892940   -0.000677534   -0.004755108
      3        6          -0.005883775   -0.003097479    0.000353818
      4        6          -0.002488418    0.001854922    0.000191801
      5        6           0.000814146    0.001739516   -0.000530769
      6       17           0.001483947    0.003192757    0.000118322
      7        6          -0.000340184    0.000200305    0.000277821
      8        6           0.000659775   -0.001406788   -0.000434880
      9       17           0.002062831   -0.003449939    0.000013845
     10        6           0.001609763   -0.002715965    0.000042126
     11        6           0.003563408   -0.000810003    0.015365699
     12        7          -0.004415306    0.012217662   -0.016075655
     13        1          -0.011578776    0.003260194   -0.000028464
     14        1          -0.004541223    0.009063011    0.000964697
     15        1           0.008683891    0.000331590   -0.000184002
     16        1          -0.003891978   -0.009233787    0.000578783
     17        1           0.005304745   -0.007444518   -0.003478905
     18        1           0.003644608    0.009518942   -0.003313498
     19        1          -0.010336574   -0.000851291    0.001872384
     20        1           0.004235719   -0.005583722    0.011472801
 -------------------------------------------------------------------
 Cartesian Forces:  Max     0.017306343 RMS     0.005921243

 GradGradGradGradGradGradGradGradGradGradGradGradGradGradGradGradGradGrad
 Berny optimization.
 FormGI is forming the generalized inverse of G from B-inverse, IUseBI=4.
 Internal  Forces:  Max     0.012709509 RMS     0.004368036
 Search for a local minimum.
 Step number   1 out of a maximum of  107
 All quantities printed in internal units (Hartrees-Bohrs-Radians)
 Mixed Optimization -- RFO/linear search
 Second derivative matrix not updated -- first step.
 ITU=  0
     Eigenvalues ---    0.00230   0.00230   0.01526   0.02250   0.02253
     Eigenvalues ---    0.02254   0.02258   0.02276   0.02299   0.02308
     Eigenvalues ---    0.02339   0.03479   0.03489   0.05930   0.06048
     Eigenvalues ---    0.06444   0.08554   0.09538   0.15599   0.15997
     Eigenvalues ---    0.15998   0.16000   0.16000   0.16000   0.16000
     Eigenvalues ---    0.16000   0.16000   0.19120   0.23495   0.23498
     Eigenvalues ---    0.23508   0.24094   0.24742   0.24999   0.25000
     Eigenvalues ---    0.25000   0.33322   0.33432   0.35574   0.35608
     Eigenvalues ---    0.35789   0.36131   0.36216   0.36307   0.43624
     Eigenvalues ---    0.43806   0.46520   0.46649   0.47728   0.47854
     Eigenvalues ---    0.48401   0.48895   0.66165   0.66370
 RFO step:  Lambda=-6.68215515D-03 EMin= 2.30000000D-03
 Linear search not attempted -- first point.
 Iteration  1 RMS(Cart)=  0.03594353 RMS(Int)=  0.00093684
 Iteration  2 RMS(Cart)=  0.00105654 RMS(Int)=  0.00008171
 Iteration  3 RMS(Cart)=  0.00000129 RMS(Int)=  0.00008170
 Iteration  4 RMS(Cart)=  0.00000000 RMS(Int)=  0.00008170
 Variable       Old X    -DE/DX   Delta X   Delta X   Delta X     New X
                                 (Linear)    (Quad)   (Total)
    R1        2.90071   0.00097   0.00000   0.00145   0.00145   2.90217
    R2        1.90107   0.01013   0.00000   0.02141   0.02141   1.92248
    R3        3.43570  -0.00194   0.00000  -0.00765  -0.00765   3.42806
    R4        3.45269  -0.01043   0.00000  -0.04212  -0.04212   3.41058
    R5        2.89929   0.00355   0.00000   0.00529   0.00529   2.90458
    R6        2.61028   0.00845   0.00000   0.01732   0.01732   2.62760
    R7        2.60703   0.01092   0.00000   0.02226   0.02227   2.62930
    R8        2.62053   0.00662   0.00000   0.01352   0.01352   2.63405
    R9        2.03877   0.01009   0.00000   0.02743   0.02743   2.06620
   R10        3.25490   0.00351   0.00000   0.01034   0.01034   3.26524
   R11        2.62241   0.00756   0.00000   0.01525   0.01525   2.63766
   R12        2.62278   0.00781   0.00000   0.01589   0.01589   2.63867
   R13        2.03745   0.00869   0.00000   0.02357   0.02357   2.06101
   R14        3.25299   0.00402   0.00000   0.01178   0.01178   3.26477
   R15        2.62145   0.00680   0.00000   0.01413   0.01413   2.63558
   R16        2.03604   0.00995   0.00000   0.02692   0.02692   2.06297
   R17        2.04699   0.00958   0.00000   0.02642   0.02642   2.07341
   R18        2.04413   0.01066   0.00000   0.02923   0.02923   2.07336
   R19        2.04753   0.00995   0.00000   0.02745   0.02745   2.07498
   R20        1.90250   0.01115   0.00000   0.02362   0.02362   1.92612
    A1        1.99788  -0.01087   0.00000  -0.06524  -0.06524   1.93264
    A2        1.77894  -0.00219   0.00000  -0.01301  -0.01297   1.76597
    A3        1.98765  -0.00122   0.00000  -0.00650  -0.00648   1.98118
    A4        2.18879   0.00402   0.00000   0.02786   0.02786   2.21664
    A5        1.71211   0.00309   0.00000   0.01000   0.00997   1.72208
    A6        1.97641  -0.00141   0.00000  -0.01047  -0.01041   1.96600
    A7        1.76818  -0.00232   0.00000  -0.01132  -0.01130   1.75687
    A8        2.06096  -0.00581   0.00000  -0.02341  -0.02343   2.03753
    A9        2.08975   0.00358   0.00000   0.01318   0.01316   2.10291
   A10        2.13245   0.00222   0.00000   0.01014   0.01013   2.14258
   A11        2.06798  -0.00203   0.00000  -0.00825  -0.00825   2.05973
   A12        2.08777   0.00224   0.00000   0.01147   0.01146   2.09922
   A13        2.12732  -0.00022   0.00000  -0.00331  -0.00332   2.12400
   A14        2.09142  -0.00088   0.00000  -0.00317  -0.00318   2.08824
   A15        2.10954   0.00111   0.00000   0.00375   0.00373   2.11328
   A16        2.08222  -0.00022   0.00000  -0.00058  -0.00059   2.08163
   A17        2.07858   0.00027   0.00000   0.00023   0.00023   2.07881
   A18        2.10207  -0.00015   0.00000  -0.00022  -0.00022   2.10185
   A19        2.10252  -0.00012   0.00000  -0.00003  -0.00003   2.10249
   A20        2.08022  -0.00028   0.00000  -0.00114  -0.00114   2.07907
   A21        2.11242   0.00092   0.00000   0.00367   0.00366   2.11609
   A22        2.09054  -0.00064   0.00000  -0.00253  -0.00253   2.08801
   A23        2.06533  -0.00250   0.00000  -0.00962  -0.00961   2.05572
   A24        2.07735   0.00250   0.00000   0.01230   0.01229   2.08964
   A25        2.14037  -0.00000   0.00000  -0.00273  -0.00273   2.13764
   A26        1.89190  -0.00246   0.00000  -0.01555  -0.01574   1.87616
   A27        1.87582   0.00297   0.00000   0.02059   0.02071   1.89653
   A28        1.88645  -0.00518   0.00000  -0.03310  -0.03324   1.85321
   A29        1.94919   0.00030   0.00000   0.00601   0.00607   1.95525
   A30        1.93597   0.00288   0.00000   0.01146   0.01096   1.94693
   A31        1.92216   0.00122   0.00000   0.00896   0.00915   1.93131
   A32        1.99891  -0.01271   0.00000  -0.07625  -0.07625   1.92266
    D1        2.82698   0.00076   0.00000   0.03973   0.03968   2.86665
    D2       -1.63175   0.00275   0.00000   0.04234   0.04235  -1.58939
    D3        0.55523   0.00178   0.00000   0.04554   0.04558   0.60081
    D4       -2.84511  -0.00084   0.00000   0.01332   0.01325  -2.83186
    D5        0.28891  -0.00109   0.00000   0.00161   0.00159   0.29050
    D6        1.40271   0.00008   0.00000   0.02055   0.02052   1.42324
    D7       -1.74645  -0.00017   0.00000   0.00884   0.00887  -1.73758
    D8       -0.44840   0.00156   0.00000   0.03121   0.03122  -0.41718
    D9        2.68562   0.00131   0.00000   0.01950   0.01956   2.70519
   D10       -0.86937   0.00181   0.00000   0.02412   0.02395  -0.84541
   D11       -2.97871   0.00114   0.00000   0.01388   0.01384  -2.96487
   D12        1.23027   0.00087   0.00000   0.00989   0.01008   1.24035
   D13        0.99698   0.00055   0.00000   0.01264   0.01248   1.00946
   D14       -1.11236  -0.00012   0.00000   0.00240   0.00236  -1.11000
   D15        3.09662  -0.00039   0.00000  -0.00159  -0.00139   3.09522
   D16        3.01770  -0.00062   0.00000   0.00166   0.00150   3.01920
   D17        0.90836  -0.00130   0.00000  -0.00858  -0.00862   0.89974
   D18       -1.16585  -0.00156   0.00000  -0.01257  -0.01238  -1.17822
   D19        0.62731   0.00195   0.00000   0.04570   0.04567   0.67298
   D20       -1.56368   0.00296   0.00000   0.05010   0.05016  -1.51351
   D21        2.90408   0.00105   0.00000   0.04763   0.04759   2.95167
   D22       -3.13931  -0.00002   0.00000  -0.00274  -0.00266   3.14122
   D23        0.01804   0.00019   0.00000   0.00398   0.00407   0.02211
   D24        0.01005   0.00023   0.00000   0.00927   0.00928   0.01933
   D25       -3.11579   0.00045   0.00000   0.01598   0.01601  -3.09978
   D26        3.13981   0.00007   0.00000   0.00312   0.00327  -3.14011
   D27       -0.01860  -0.00005   0.00000   0.00003   0.00013  -0.01848
   D28       -0.00968  -0.00023   0.00000  -0.00923  -0.00926  -0.01894
   D29        3.11510  -0.00035   0.00000  -0.01232  -0.01240   3.10270
   D30        3.13967   0.00012   0.00000   0.00365   0.00365  -3.13987
   D31       -0.00216  -0.00012   0.00000  -0.00499  -0.00495  -0.00711
   D32       -0.01806  -0.00008   0.00000  -0.00308  -0.00304  -0.02110
   D33        3.12330  -0.00032   0.00000  -0.01172  -0.01164   3.11166
   D34       -0.00567   0.00004   0.00000   0.00107   0.00108  -0.00459
   D35       -3.14110   0.00013   0.00000   0.00456   0.00455  -3.13655
   D36        3.13569  -0.00020   0.00000  -0.00752  -0.00749   3.12820
   D37        0.00026  -0.00011   0.00000  -0.00403  -0.00402  -0.00376
   D38       -3.13665   0.00015   0.00000   0.00575   0.00573  -3.13092
   D39        0.00605  -0.00004   0.00000  -0.00105  -0.00108   0.00497
   D40       -0.00123   0.00006   0.00000   0.00225   0.00226   0.00103
   D41        3.14148  -0.00013   0.00000  -0.00455  -0.00456   3.13692
   D42        0.00143   0.00013   0.00000   0.00494   0.00494   0.00637
   D43       -3.12270   0.00022   0.00000   0.00801   0.00802  -3.11468
   D44       -3.13904  -0.00007   0.00000  -0.00190  -0.00191  -3.14095
   D45        0.02001   0.00003   0.00000   0.00117   0.00117   0.02118
         Item               Value     Threshold  Converged?
 Maximum Force            0.012710     0.000450     NO 
 RMS     Force            0.004368     0.000300     NO 
 Maximum Displacement     0.183696     0.001800     NO 
 RMS     Displacement     0.036349     0.001200     NO 
 Predicted change in Energy=-3.475748D-03
 GradGradGradGradGradGradGradGradGradGradGradGradGradGradGradGradGradGrad

                          Input orientation:                          
 ---------------------------------------------------------------------
 Center     Atomic      Atomic             Coordinates (Angstroms)
 Number     Number       Type             X           Y           Z
 ---------------------------------------------------------------------
      1          7           0       -2.764214   -1.529168    0.528273
      2         16           0       -2.492576   -0.080422    0.097105
      3          6           0       -0.679177   -0.060699    0.052723
      4          6           0       -0.066492    1.187415    0.067754
      5          6           0        1.326237    1.233489    0.034877
      6         17           0        2.131561    2.762110    0.054536
      7          6           0        2.085254    0.062736   -0.003259
      8          6           0        1.431347   -1.171008   -0.002709
      9         17           0        2.370820   -2.620551   -0.033804
     10          6           0        0.039374   -1.251928    0.029203
     11          6           0       -2.810795    0.221503   -1.653573
     12          7           0       -3.083233    1.195693    0.717701
     13          1           0       -3.723727   -1.635513    0.849188
     14          1           0       -0.670185    2.097197    0.125579
     15          1           0        3.174622    0.111154   -0.024017
     16          1           0       -0.491956   -2.205224    0.055039
     17          1           0       -2.314872   -0.575757   -2.221278
     18          1           0       -2.423811    1.214425   -1.914625
     19          1           0       -3.901304    0.186082   -1.776914
     20          1           0       -3.142109    1.098945    1.730649
 ---------------------------------------------------------------------
                    Distance matrix (angstroms):
                    1          2          3          4          5
     1  N    0.000000
     2  S    1.535760   0.000000
     3  C    2.594211   1.814049   0.000000
     4  C    3.856113   2.737545   1.390466   0.000000
     5  C    4.960595   4.039005   2.386823   1.393879   0.000000
     6  Cl   6.527489   5.428115   3.983529   2.703937   1.727893
     7  C    5.131669   4.581167   2.767751   2.428983   1.395789
     8  C    4.244167   4.073881   2.385408   2.794754   2.407087
     9  Cl   5.279737   5.488352   3.982814   4.522324   3.993682
    10  C    2.861125   2.790664   1.391365   2.441944   2.798812
    11  C    2.797762   1.804799   2.744974   3.380406   4.581486
    12  N    2.750004   1.537038   2.792885   3.085972   4.462186
    13  H    1.017331   2.121243   3.519046   4.685609   5.864846
    14  H    4.206857   2.839708   2.159145   1.093386   2.177136
    15  H    6.185908   5.671728   3.858392   3.416370   2.163246
    16  H    2.417469   2.918738   2.152683   3.419237   3.889857
    17  H    2.944645   2.377359   2.848134   3.661100   4.649869
    18  H    3.689299   2.393411   2.922353   3.080179   4.226556
    19  H    3.090136   2.359553   3.713567   4.371641   5.630882
    20  H    2.914702   2.116899   3.197850   3.497494   4.781199
                    6          7          8          9         10
     6  Cl   0.000000
     7  C    2.700390   0.000000
     8  C    3.995371   1.396323   0.000000
     9  Cl   5.388699   2.698612   1.727643   0.000000
    10  C    4.526631   2.432081   1.394688   2.704208   0.000000
    11  C    5.813708   5.169143   4.760274   6.127810   3.623010
    12  N    5.485210   5.340097   5.147980   6.698894   4.026854
    13  H    7.365797   6.111872   5.245597   6.236464   3.870458
    14  H    2.880441   3.427547   3.887681   5.615182   3.424822
    15  H    2.849862   1.090641   2.164116   2.847525   3.419153
    16  H    5.617584   3.433519   2.184499   2.894111   1.091674
    17  H    6.007616   4.968741   4.394374   5.560749   3.326311
    18  H    5.198494   5.031041   4.920158   6.421294   3.991071
    19  H    6.810697   6.244994   5.781580   7.089088   4.567152
    20  H    5.778155   5.604060   5.392005   6.880431   4.306200
                   11         12         13         14         15
    11  C    0.000000
    12  N    2.578025   0.000000
    13  H    3.247426   2.905727   0.000000
    14  H    3.356459   2.643127   4.876562   0.000000
    15  H    6.204260   6.394304   7.169418   4.330045   0.000000
    16  H    3.766348   4.326670   3.376327   4.306689   4.337701
    17  H    1.097202   3.516534   3.540582   3.918854   5.952675
    18  H    1.097177   2.713730   4.177391   2.831417   6.011161
    19  H    1.098034   2.812767   3.200962   4.208559   7.290198
    20  H    3.511785   1.019259   2.931299   3.111778   6.629908
                   16         17         18         19         20
    16  H    0.000000
    17  H    3.340629   0.000000
    18  H    4.393818   1.819521   0.000000
    19  H    4.549511   1.815111   1.805392   0.000000
    20  H    4.555053   4.371118   3.717164   3.703065   0.000000
 Stoichiometry    C7H8Cl2N2S
 Framework group  C1[X(C7H8Cl2N2S)]
 Deg. of freedom    54
 Full point group                 C1      NOp   1
 Largest Abelian subgroup         C1      NOp   1
 Largest concise Abelian subgroup C1      NOp   1
                         Standard orientation:                         
 ---------------------------------------------------------------------
 Center     Atomic      Atomic             Coordinates (Angstroms)
 Number     Number       Type             X           Y           Z
 ---------------------------------------------------------------------
      1          7           0        2.658293   -1.550564   -0.585775
      2         16           0        2.404116   -0.102650   -0.141367
      3          6           0        0.591669   -0.068598   -0.073164
      4          6           0       -0.010956    1.184494   -0.071798
      5          6           0       -1.402717    1.241580   -0.020418
      6         17           0       -2.195731    2.776748   -0.019279
      7          6           0       -2.170700    0.076757    0.019761
      8          6           0       -1.526943   -1.162191    0.002375
      9         17           0       -2.477726   -2.604284    0.035998
     10          6           0       -0.136209   -1.254122   -0.048265
     11          6           0        2.747538    0.184737    1.606995
     12          7           0        2.997041    1.172864   -0.761035
     13          1           0        3.612650   -1.662456   -0.919907
     14          1           0        0.599336    2.089748   -0.131389
     15          1           0       -3.259274    0.133822    0.055076
     16          1           0        0.386945   -2.211476   -0.087448
     17          1           0        2.252555   -0.612352    2.175759
     18          1           0        2.372097    1.178944    1.879748
     19          1           0        3.839235    0.139675    1.715836
     20          1           0        3.041942    1.082561   -1.775293
 ---------------------------------------------------------------------
 Rotational constants (GHZ):           0.7156788           0.4536561           0.2972638
 Standard basis: def2SVP (5D, 7F)
 There are   232 symmetry adapted cartesian basis functions of A   symmetry.
 There are   220 symmetry adapted basis functions of A   symmetry.
   220 basis functions,   392 primitive gaussians,   232 cartesian basis functions
    57 alpha electrons       57 beta electrons
       nuclear repulsion energy       987.9311570883 Hartrees.
 NAtoms=   20 NActive=   20 NUniq=   20 SFac= 1.00D+00 NAtFMM=   60 NAOKFM=F Big=F
 Integral buffers will be    131072 words long.
 Raffenetti 2 integral format.
 Two-electron integral symmetry is turned on.
 Nuclear repulsion after empirical dispersion term =      987.9053664206 Hartrees.
 One-electron integrals computed using PRISM.
   1 Symmetry operations used in ECPInt.
 ECPInt:  NShTT=    5253 NPrTT=   20713 LenC2=    4985 LenP2D=   14224.
 LDataN:  DoStor=T MaxTD1= 4 Len=   56
 NBasis=   220 RedAO= T EigKep=  2.62D-04  NBF=   220
 NBsUse=   220 1.00D-06 EigRej= -1.00D+00 NBFU=   220
 Initial guess from the checkpoint file:  "SDI0297_1.chk"
 B after Tr=     0.000000   -0.000000    0.000000
         Rot=    0.999980   -0.002286   -0.001145    0.005720 Ang=  -0.72 deg.
 ExpMin= 1.22D-01 ExpMax= 1.04D+04 ExpMxC= 1.57D+03 IAcc=3 IRadAn=         5 AccDes= 0.00D+00
 Harris functional with IExCor= 1009 and IRadAn=       5 diagonalized for initial guess.
 HarFok:  IExCor= 1009 AccDes= 0.00D+00 IRadAn=         5 IDoV= 1 UseB2=F ITyADJ=14
 ICtDFT=  3500011 ScaDFX=  1.000000  1.000000  1.000000  1.000000
 FoFCou: FMM=F IPFlag=           0 FMFlag=      100000 FMFlg1=           0
         NFxFlg=           0 DoJE=T BraDBF=F KetDBF=T FulRan=T
         wScrn=  0.000000 ICntrl=       500 IOpCl=  0 I1Cent=   200000004 NGrid=           0
         NMat0=    1 NMatS0=      1 NMatT0=    0 NMatD0=    1 NMtDS0=    0 NMtDT0=    0
 Petite list used in FoFCou.
 Requested convergence on RMS density matrix=1.00D-08 within 128 cycles.
 Requested convergence on MAX density matrix=1.00D-06.
 Requested convergence on             energy=1.00D-06.
 No special actions if energy rises.
 Integral accuracy reduced to 1.0D-05 until final iterations.
 Initial convergence to 1.0D-05 achieved.  Increase integral accuracy.
 SCF Done:  E(RPBE1PBE) =  -1697.97212839     A.U. after   12 cycles
            NFock= 12  Conv=0.84D-08     -V/T= 2.0036
   1 Symmetry operations used in ECPInt.
 ECPInt:  NShTT=    5253 NPrTT=   20713 LenC2=    4985 LenP2D=   14224.
 LDataN:  DoStor=T MaxTD1= 5 Len=  102
 Calling FoFJK, ICntrl=      2127 FMM=F ISym2X=0 I1Cent= 0 IOpClX= 0 NMat=1 NMatS=1 NMatT=0.
 ***** Axes restored to original set *****
 -------------------------------------------------------------------
 Center     Atomic                   Forces (Hartrees/Bohr)
 Number     Number              X              Y              Z
 -------------------------------------------------------------------
      1        7           0.001665556   -0.006614537    0.005057928
      2       16           0.006132307    0.001259160   -0.009537747
      3        6           0.000748690   -0.001856381    0.001050501
      4        6          -0.000437326    0.000021298   -0.000012986
      5        6          -0.000061581   -0.001964868    0.000075302
      6       17           0.000237989    0.000293485   -0.000045539
      7        6          -0.000031469    0.000314622    0.000021547
      8        6          -0.001117073    0.001901344    0.000138724
      9       17           0.000254415   -0.000310424   -0.000029684
     10        6           0.000239178    0.000428303   -0.000235274
     11        6           0.000633161    0.000151462    0.002720817
     12        7          -0.007434704    0.006983010    0.001015037
     13        1          -0.003386327    0.000664764   -0.002306188
     14        1           0.000262684   -0.000611159    0.000075658
     15        1          -0.000406889   -0.000041881   -0.000012195
     16        1           0.000579180    0.000657486    0.000056203
     17        1          -0.000477027    0.000214119   -0.000125138
     18        1          -0.000565617   -0.000590842   -0.000971815
     19        1           0.000020099   -0.000004001    0.000136082
     20        1           0.003144754   -0.000894960    0.002928765
 -------------------------------------------------------------------
 Cartesian Forces:  Max     0.009537747 RMS     0.002482351

 GradGradGradGradGradGradGradGradGradGradGradGradGradGradGradGradGradGrad
 Berny optimization.
 Using GEDIIS/GDIIS optimizer.
 FormGI is forming the generalized inverse of G from B-inverse, IUseBI=4.
 Internal  Forces:  Max     0.008294922 RMS     0.001447736
 Search for a local minimum.
 Step number   2 out of a maximum of  107
 All quantities printed in internal units (Hartrees-Bohrs-Radians)
 Mixed Optimization -- RFO/linear search
 Update second derivatives using D2CorX and points    1    2
 DE= -3.87D-03 DEPred=-3.48D-03 R= 1.11D+00
 TightC=F SS=  1.41D+00  RLast= 2.01D-01 DXNew= 5.0454D-01 6.0394D-01
 Trust test= 1.11D+00 RLast= 2.01D-01 DXMaxT set to 5.05D-01
 ITU=  1  0
 Use linear search instead of GDIIS.
     Eigenvalues ---    0.00230   0.00230   0.01536   0.02250   0.02253
     Eigenvalues ---    0.02254   0.02259   0.02276   0.02299   0.02308
     Eigenvalues ---    0.02340   0.03018   0.03485   0.05947   0.06199
     Eigenvalues ---    0.06427   0.08810   0.09595   0.14071   0.15663
     Eigenvalues ---    0.15996   0.15997   0.15999   0.16000   0.16000
     Eigenvalues ---    0.16000   0.16206   0.19171   0.23400   0.23501
     Eigenvalues ---    0.23609   0.23873   0.24760   0.24829   0.24999
     Eigenvalues ---    0.25005   0.33302   0.33415   0.35579   0.35661
     Eigenvalues ---    0.35897   0.36175   0.36253   0.37729   0.43699
     Eigenvalues ---    0.43825   0.45375   0.46596   0.47729   0.47929
     Eigenvalues ---    0.48837   0.50747   0.66238   0.69332
 RFO step:  Lambda=-1.26031122D-03 EMin= 2.29882372D-03
 Quartic linear search produced a step of  0.18168.
 Iteration  1 RMS(Cart)=  0.03400962 RMS(Int)=  0.00088845
 Iteration  2 RMS(Cart)=  0.00093816 RMS(Int)=  0.00003220
 Iteration  3 RMS(Cart)=  0.00000114 RMS(Int)=  0.00003219
 Iteration  4 RMS(Cart)=  0.00000000 RMS(Int)=  0.00003219
 Variable       Old X    -DE/DX   Delta X   Delta X   Delta X     New X
                                 (Linear)    (Quad)   (Total)
    R1        2.90217   0.00669   0.00026   0.01187   0.01213   2.91430
    R2        1.92248   0.00240   0.00389   0.00584   0.00973   1.93221
    R3        3.42806   0.00023  -0.00139   0.00117  -0.00022   3.42784
    R4        3.41058  -0.00168  -0.00765  -0.00766  -0.01531   3.39527
    R5        2.90458   0.00829   0.00096   0.01464   0.01560   2.92018
    R6        2.62760  -0.00078   0.00315  -0.00201   0.00114   2.62874
    R7        2.62930  -0.00113   0.00405  -0.00289   0.00115   2.63045
    R8        2.63405  -0.00031   0.00246  -0.00086   0.00160   2.63565
    R9        2.06620  -0.00065   0.00498  -0.00237   0.00261   2.06881
   R10        3.26524   0.00037   0.00188   0.00120   0.00308   3.26832
   R11        2.63766  -0.00162   0.00277  -0.00413  -0.00137   2.63629
   R12        2.63867  -0.00117   0.00289  -0.00305  -0.00016   2.63851
   R13        2.06101  -0.00041   0.00428  -0.00155   0.00273   2.06375
   R14        3.26477   0.00040   0.00214   0.00128   0.00342   3.26820
   R15        2.63558  -0.00080   0.00257  -0.00212   0.00045   2.63603
   R16        2.06297  -0.00085   0.00489  -0.00302   0.00187   2.06484
   R17        2.07341  -0.00031   0.00480  -0.00127   0.00353   2.07695
   R18        2.07336  -0.00050   0.00531  -0.00193   0.00338   2.07674
   R19        2.07498  -0.00004   0.00499  -0.00038   0.00460   2.07959
   R20        1.92612   0.00281   0.00429   0.00689   0.01119   1.93731
    A1        1.93264  -0.00313  -0.01185  -0.02191  -0.03376   1.89888
    A2        1.76597   0.00036  -0.00236   0.00496   0.00263   1.76860
    A3        1.98118  -0.00058  -0.00118  -0.00439  -0.00563   1.97554
    A4        2.21664  -0.00125   0.00506  -0.01847  -0.01341   2.20323
    A5        1.72208   0.00131   0.00181   0.01707   0.01886   1.74093
    A6        1.96600  -0.00010  -0.00189   0.00181  -0.00019   1.96581
    A7        1.75687   0.00085  -0.00205   0.00767   0.00554   1.76241
    A8        2.03753  -0.00121  -0.00426  -0.00545  -0.00971   2.02782
    A9        2.10291   0.00165   0.00239   0.00752   0.00990   2.11281
   A10        2.14258  -0.00044   0.00184  -0.00207  -0.00023   2.14235
   A11        2.05973   0.00016  -0.00150   0.00109  -0.00041   2.05932
   A12        2.09922  -0.00020   0.00208  -0.00158   0.00050   2.09973
   A13        2.12400   0.00004  -0.00060   0.00045  -0.00016   2.12385
   A14        2.08824   0.00001  -0.00058   0.00006  -0.00052   2.08772
   A15        2.11328   0.00022   0.00068   0.00108   0.00175   2.11503
   A16        2.08163  -0.00023  -0.00011  -0.00112  -0.00123   2.08041
   A17        2.07881  -0.00052   0.00004  -0.00279  -0.00274   2.07606
   A18        2.10185   0.00028  -0.00004   0.00157   0.00153   2.10338
   A19        2.10249   0.00023  -0.00001   0.00122   0.00121   2.10370
   A20        2.07907  -0.00039  -0.00021  -0.00178  -0.00199   2.07708
   A21        2.11609   0.00063   0.00067   0.00286   0.00353   2.11962
   A22        2.08801  -0.00024  -0.00046  -0.00107  -0.00153   2.08648
   A23        2.05572  -0.00006  -0.00175  -0.00017  -0.00192   2.05380
   A24        2.08964   0.00022   0.00223   0.00135   0.00358   2.09322
   A25        2.13764  -0.00016  -0.00050  -0.00121  -0.00171   2.13593
   A26        1.87616   0.00029  -0.00286   0.00240  -0.00054   1.87562
   A27        1.89653   0.00185   0.00376   0.01466   0.01843   1.91496
   A28        1.85321  -0.00061  -0.00604  -0.00541  -0.01147   1.84174
   A29        1.95525  -0.00071   0.00110  -0.00219  -0.00114   1.95412
   A30        1.94693  -0.00020   0.00199  -0.00481  -0.00296   1.94398
   A31        1.93131  -0.00053   0.00166  -0.00395  -0.00220   1.92911
   A32        1.92266  -0.00357  -0.01385  -0.02493  -0.03878   1.88388
    D1        2.86665   0.00100   0.00721   0.04674   0.05394   2.92060
    D2       -1.58939   0.00249   0.00769   0.06722   0.07487  -1.51453
    D3        0.60081   0.00185   0.00828   0.05464   0.06297   0.66378
    D4       -2.83186   0.00053   0.00241   0.02887   0.03130  -2.80057
    D5        0.29050   0.00051   0.00029   0.02918   0.02950   0.32000
    D6        1.42324   0.00065   0.00373   0.02713   0.03083   1.45407
    D7       -1.73758   0.00064   0.00161   0.02744   0.02903  -1.70855
    D8       -0.41718  -0.00090   0.00567   0.00996   0.01563  -0.40155
    D9        2.70519  -0.00091   0.00355   0.01027   0.01383   2.71902
   D10       -0.84541  -0.00044   0.00435   0.00983   0.01416  -0.83125
   D11       -2.96487  -0.00083   0.00251   0.00260   0.00508  -2.95979
   D12        1.24035  -0.00084   0.00183   0.00259   0.00449   1.24484
   D13        1.00946   0.00046   0.00227   0.02266   0.02486   1.03432
   D14       -1.11000   0.00007   0.00043   0.01543   0.01578  -1.09422
   D15        3.09522   0.00006  -0.00025   0.01543   0.01519   3.11041
   D16        3.01920   0.00094   0.00027   0.03130   0.03159   3.05079
   D17        0.89974   0.00055  -0.00157   0.02407   0.02250   0.92225
   D18       -1.17822   0.00054  -0.00225   0.02406   0.02192  -1.15630
   D19        0.67298   0.00176   0.00830   0.05483   0.06314   0.73612
   D20       -1.51351   0.00259   0.00911   0.06382   0.07293  -1.44059
   D21        2.95167   0.00074   0.00865   0.04043   0.04907   3.00075
   D22        3.14122   0.00001  -0.00048  -0.00023  -0.00069   3.14053
   D23        0.02211   0.00005   0.00074   0.00149   0.00225   0.02436
   D24        0.01933  -0.00000   0.00169  -0.00066   0.00102   0.02035
   D25       -3.09978   0.00004   0.00291   0.00105   0.00396  -3.09582
   D26       -3.14011   0.00003   0.00059   0.00064   0.00126  -3.13885
   D27       -0.01848  -0.00002   0.00002  -0.00127  -0.00123  -0.01970
   D28       -0.01894   0.00001  -0.00168   0.00094  -0.00075  -0.01968
   D29        3.10270  -0.00004  -0.00225  -0.00097  -0.00324   3.09946
   D30       -3.13987  -0.00003   0.00066  -0.00165  -0.00099  -3.14086
   D31       -0.00711   0.00001  -0.00090   0.00062  -0.00027  -0.00738
   D32       -0.02110  -0.00007  -0.00055  -0.00342  -0.00396  -0.02506
   D33        3.11166  -0.00004  -0.00211  -0.00115  -0.00324   3.10841
   D34       -0.00459  -0.00002   0.00020  -0.00088  -0.00069  -0.00528
   D35       -3.13655  -0.00002   0.00083  -0.00130  -0.00048  -3.13703
   D36        3.12820   0.00002  -0.00136   0.00139   0.00003   3.12823
   D37       -0.00376   0.00002  -0.00073   0.00097   0.00024  -0.00352
   D38       -3.13092  -0.00000   0.00104  -0.00055   0.00049  -3.13043
   D39        0.00497   0.00002  -0.00020   0.00117   0.00097   0.00593
   D40        0.00103   0.00000   0.00041  -0.00013   0.00028   0.00131
   D41        3.13692   0.00002  -0.00083   0.00159   0.00076   3.13768
   D42        0.00637  -0.00001   0.00090  -0.00117  -0.00027   0.00610
   D43       -3.11468   0.00003   0.00146   0.00077   0.00222  -3.11245
   D44       -3.14095   0.00001  -0.00035   0.00056   0.00021  -3.14074
   D45        0.02118   0.00005   0.00021   0.00249   0.00270   0.02389
         Item               Value     Threshold  Converged?
 Maximum Force            0.008295     0.000450     NO 
 RMS     Force            0.001448     0.000300     NO 
 Maximum Displacement     0.156464     0.001800     NO 
 RMS     Displacement     0.034100     0.001200     NO 
 Predicted change in Energy=-7.486968D-04
 GradGradGradGradGradGradGradGradGradGradGradGradGradGradGradGradGradGrad

                          Input orientation:                          
 ---------------------------------------------------------------------
 Center     Atomic      Atomic             Coordinates (Angstroms)
 Number     Number       Type             X           Y           Z
 ---------------------------------------------------------------------
      1          7           0       -2.775607   -1.517003    0.545129
      2         16           0       -2.488468   -0.072737    0.086909
      3          6           0       -0.674943   -0.064561    0.049369
      4          6           0       -0.065889    1.185628    0.083371
      5          6           0        1.327695    1.235762    0.057473
      6         17           0        2.128794    2.767998    0.099165
      7          6           0        2.091636    0.069504    0.008046
      8          6           0        1.439847   -1.165144   -0.009131
      9         17           0        2.385755   -2.612314   -0.053525
     10          6           0        0.047937   -1.253617    0.014946
     11          6           0       -2.830048    0.197630   -1.656177
     12          7           0       -3.076268    1.215685    0.705290
     13          1           0       -3.760775   -1.589182    0.809143
     14          1           0       -0.672813    2.094092    0.153026
     15          1           0        3.182381    0.121332   -0.007555
     16          1           0       -0.477351   -2.211632    0.028886
     17          1           0       -2.365530   -0.626864   -2.215098
     18          1           0       -2.435800    1.176216   -1.963853
     19          1           0       -3.926479    0.177043   -1.748100
     20          1           0       -3.059312    1.112642    1.725136
 ---------------------------------------------------------------------
                    Distance matrix (angstroms):
                    1          2          3          4          5
     1  N    0.000000
     2  S    1.542180   0.000000
     3  C    2.601568   1.813932   0.000000
     4  C    3.854868   2.729905   1.391070   0.000000
     5  C    4.965139   4.034369   2.387773   1.394726   0.000000
     6  Cl   6.527884   5.421166   3.985826   2.705694   1.729522
     7  C    5.147380   4.582991   2.770134   2.430293   1.395066
     8  C    4.266270   4.078509   2.384752   2.793193   2.404447
     9  Cl   5.310156   5.497929   3.983654   4.522573   3.992431
    10  C    2.884938   2.798751   1.391975   2.442857   2.799392
    11  C    2.790820   1.796698   2.760817   3.412146   4.615316
    12  N    2.753839   1.545294   2.799219   3.074096   4.451400
    13  H    1.022481   2.107129   3.524781   4.677445   5.868376
    14  H    4.197081   2.827741   2.161141   1.094767   2.178966
    15  H    6.203808   5.674955   3.862220   3.419394   2.164728
    16  H    2.455809   2.936466   2.156241   3.422520   3.891469
    17  H    2.929055   2.370951   2.881334   3.722424   4.719520
    18  H    3.696469   2.401724   2.948424   3.131724   4.272376
    19  H    3.074605   2.344680   3.723138   4.390409   5.655734
    20  H    2.896194   2.101137   3.143123   3.414865   4.694901
                    6          7          8          9         10
     6  Cl   0.000000
     7  C    2.700288   0.000000
     8  C    3.994494   1.396238   0.000000
     9  Cl   5.388609   2.698600   1.729455   0.000000
    10  C    4.528846   2.434625   1.394927   2.704836   0.000000
    11  C    5.854753   5.197021   4.775135   6.137498   3.630643
    12  N    5.465322   5.339206   5.155002   6.712903   4.041619
    13  H    7.360442   6.135447   5.281652   6.290534   3.905079
    14  H    2.882023   3.429600   3.887447   5.616739   3.427200
    15  H    2.850662   1.092087   2.165975   2.847727   3.422825
    16  H    5.620822   3.435653   2.184543   2.892181   1.092664
    17  H    6.089324   5.029278   4.431358   5.584722   3.345257
    18  H    5.255981   5.060719   4.931890   6.422593   3.998585
    19  H    6.840451   6.270034   5.798529   7.106082   4.577238
    20  H    5.683347   5.528907   5.332769   6.832839   4.263676
                   11         12         13         14         15
    11  C    0.000000
    12  N    2.583329   0.000000
    13  H    3.183826   2.889050   0.000000
    14  H    3.394620   2.617860   4.851031   0.000000
    15  H    6.234828   6.393469   7.197240   4.333600   0.000000
    16  H    3.765523   4.354124   3.431781   4.311945   4.340241
    17  H    1.099072   3.525451   3.466814   3.984584   6.017672
    18  H    1.098966   2.745193   4.134306   2.903756   6.041841
    19  H    1.100470   2.796563   3.112314   4.227967   7.319050
    20  H    3.510426   1.025178   2.937847   3.021614   6.553141
                   16         17         18         19         20
    16  H    0.000000
    17  H    3.333493   0.000000
    18  H    4.391360   1.821856   0.000000
    19  H    4.556307   1.816842   1.807490   0.000000
    20  H    4.538126   4.362644   3.741851   3.700094   0.000000
 Stoichiometry    C7H8Cl2N2S
 Framework group  C1[X(C7H8Cl2N2S)]
 Deg. of freedom    54
 Full point group                 C1      NOp   1
 Largest Abelian subgroup         C1      NOp   1
 Largest concise Abelian subgroup C1      NOp   1
                         Standard orientation:                         
 ---------------------------------------------------------------------
 Center     Atomic      Atomic             Coordinates (Angstroms)
 Number     Number       Type             X           Y           Z
 ---------------------------------------------------------------------
      1          7           0        2.667746   -1.536943   -0.631664
      2         16           0        2.402025   -0.099920   -0.139044
      3          6           0        0.589565   -0.076194   -0.069941
      4          6           0       -0.008257    1.179863   -0.067768
      5          6           0       -1.400662    1.241995   -0.016715
      6         17           0       -2.187986    2.781915   -0.013124
      7          6           0       -2.174524    0.081890    0.022029
      8          6           0       -1.534118   -1.158667    0.002615
      9         17           0       -2.492626   -2.597871    0.033725
     10          6           0       -0.143714   -1.259151   -0.047373
     11          6           0        2.775930    0.131314    1.603038
     12          7           0        2.991176    1.195651   -0.740985
     13          1           0        3.647528   -1.612522   -0.914124
     14          1           0        0.605859    2.084070   -0.129296
     15          1           0       -3.264309    0.143203    0.057578
     16          1           0        0.372272   -2.221364   -0.090034
     17          1           0        2.313361   -0.700329    2.152910
     18          1           0        2.396185    1.106848    1.937481
     19          1           0        3.873535    0.098963    1.675516
     20          1           0        2.955789    1.113844   -1.762282
 ---------------------------------------------------------------------
 Rotational constants (GHZ):           0.7159928           0.4520031           0.2966365
 Standard basis: def2SVP (5D, 7F)
 There are   232 symmetry adapted cartesian basis functions of A   symmetry.
 There are   220 symmetry adapted basis functions of A   symmetry.
   220 basis functions,   392 primitive gaussians,   232 cartesian basis functions
    57 alpha electrons       57 beta electrons
       nuclear repulsion energy       987.0421948772 Hartrees.
 NAtoms=   20 NActive=   20 NUniq=   20 SFac= 1.00D+00 NAtFMM=   60 NAOKFM=F Big=F
 Integral buffers will be    131072 words long.
 Raffenetti 2 integral format.
 Two-electron integral symmetry is turned on.
 Nuclear repulsion after empirical dispersion term =      987.0164277514 Hartrees.
 One-electron integrals computed using PRISM.
   1 Symmetry operations used in ECPInt.
 ECPInt:  NShTT=    5253 NPrTT=   20713 LenC2=    4982 LenP2D=   14215.
 LDataN:  DoStor=T MaxTD1= 4 Len=   56
 NBasis=   220 RedAO= T EigKep=  2.64D-04  NBF=   220
 NBsUse=   220 1.00D-06 EigRej= -1.00D+00 NBFU=   220
 Initial guess from the checkpoint file:  "SDI0297_1.chk"
 B after Tr=     0.000000    0.000000   -0.000000
         Rot=    0.999994   -0.003283   -0.001042    0.001061 Ang=  -0.41 deg.
 ExpMin= 1.22D-01 ExpMax= 1.04D+04 ExpMxC= 1.57D+03 IAcc=3 IRadAn=         5 AccDes= 0.00D+00
 Harris functional with IExCor= 1009 and IRadAn=       5 diagonalized for initial guess.
 HarFok:  IExCor= 1009 AccDes= 0.00D+00 IRadAn=         5 IDoV= 1 UseB2=F ITyADJ=14
 ICtDFT=  3500011 ScaDFX=  1.000000  1.000000  1.000000  1.000000
 FoFCou: FMM=F IPFlag=           0 FMFlag=      100000 FMFlg1=           0
         NFxFlg=           0 DoJE=T BraDBF=F KetDBF=T FulRan=T
         wScrn=  0.000000 ICntrl=       500 IOpCl=  0 I1Cent=   200000004 NGrid=           0
         NMat0=    1 NMatS0=      1 NMatT0=    0 NMatD0=    1 NMtDS0=    0 NMtDT0=    0
 Petite list used in FoFCou.
 Requested convergence on RMS density matrix=1.00D-08 within 128 cycles.
 Requested convergence on MAX density matrix=1.00D-06.
 Requested convergence on             energy=1.00D-06.
 No special actions if energy rises.
 Integral accuracy reduced to 1.0D-05 until final iterations.
 EnCoef did    11 forward-backward iterations
 Initial convergence to 1.0D-05 achieved.  Increase integral accuracy.
 SCF Done:  E(RPBE1PBE) =  -1697.97312959     A.U. after   12 cycles
            NFock= 12  Conv=0.63D-08     -V/T= 2.0037
   1 Symmetry operations used in ECPInt.
 ECPInt:  NShTT=    5253 NPrTT=   20713 LenC2=    4982 LenP2D=   14215.
 LDataN:  DoStor=T MaxTD1= 5 Len=  102
 Calling FoFJK, ICntrl=      2127 FMM=F ISym2X=0 I1Cent= 0 IOpClX= 0 NMat=1 NMatS=1 NMatT=0.
 ***** Axes restored to original set *****
 -------------------------------------------------------------------
 Center     Atomic                   Forces (Hartrees/Bohr)
 Number     Number              X              Y              Z
 -------------------------------------------------------------------
      1        7          -0.000328510   -0.002518537    0.004197598
      2       16           0.003955545    0.000503959   -0.003415017
      3        6           0.000036908   -0.000802653    0.000475330
      4        6           0.000197762    0.000218200    0.000077894
      5        6          -0.000235091   -0.000587942    0.000050749
      6       17          -0.000223263   -0.000364168   -0.000026363
      7        6           0.000313650    0.000132079   -0.000006467
      8        6          -0.000578768    0.000350676    0.000087956
      9       17          -0.000227746    0.000296675    0.000009413
     10        6          -0.000471522    0.000255702   -0.000146663
     11        6          -0.000442862    0.000920572   -0.000627346
     12        7          -0.003485672    0.001600058    0.002382611
     13        1           0.000131312   -0.000213114   -0.002389487
     14        1           0.000590911   -0.001499802   -0.000260491
[...]
 Alpha virt. eigenvalues --    0.57781   0.59165   0.59456   0.60116   0.62842
 Alpha virt. eigenvalues --    0.63074   0.65267   0.66500   0.67036   0.68085
 Alpha virt. eigenvalues --    0.68835   0.69930   0.71964   0.73042   0.74047
 Alpha virt. eigenvalues --    0.74082   0.75852   0.76021   0.76663   0.78047
 Alpha virt. eigenvalues --    0.78365   0.79456   0.80351   0.81840   0.83060
 Alpha virt. eigenvalues --    0.84359   0.85969   0.88281   0.90392   0.92444
 Alpha virt. eigenvalues --    0.93447   0.94856   0.96141   0.98279   0.98824
 Alpha virt. eigenvalues --    1.02762   1.03319   1.05533   1.06391   1.06622
 Alpha virt. eigenvalues --    1.08288   1.09841   1.10778   1.12392   1.13327
 Alpha virt. eigenvalues --    1.14694   1.17900   1.18576   1.20531   1.21296
 Alpha virt. eigenvalues --    1.22460   1.23532   1.24761   1.27999   1.29557
 Alpha virt. eigenvalues --    1.31728   1.33969   1.35374   1.37748   1.38343
 Alpha virt. eigenvalues --    1.39191   1.41431   1.41757   1.44411   1.47065
 Alpha virt. eigenvalues --    1.47867   1.48506   1.50148   1.51009   1.51288
 Alpha virt. eigenvalues --    1.52757   1.55367   1.55899   1.56471   1.58700
 Alpha virt. eigenvalues --    1.61246   1.62442   1.63104   1.64515   1.66486
 Alpha virt. eigenvalues --    1.67548   1.68218   1.69465   1.70817   1.72319
 Alpha virt. eigenvalues --    1.73827   1.74690   1.75420   1.77083   1.79090
 Alpha virt. eigenvalues --    1.79167   1.79780   1.80985   1.81681   1.82665
 Alpha virt. eigenvalues --    1.83016   1.85814   1.86188   1.87430   1.89170
 Alpha virt. eigenvalues --    1.90753   1.91500   1.91854   1.92887   1.94115
 Alpha virt. eigenvalues --    1.95009   1.95689   1.97227   1.98029   2.00862
 Alpha virt. eigenvalues --    2.01469   2.03085   2.03991   2.04275   2.06889
 Alpha virt. eigenvalues --    2.07257   2.08156   2.08295   2.08358   2.09539
 Alpha virt. eigenvalues --    2.09989   2.10288   2.11004   2.11707   2.13060
 Alpha virt. eigenvalues --    2.14149   2.14859   2.15020   2.17288   2.19498
 Alpha virt. eigenvalues --    2.20311   2.20921   2.21918   2.22880   2.23746
 Alpha virt. eigenvalues --    2.24886   2.26113   2.26981   2.29192   2.29853
 Alpha virt. eigenvalues --    2.30329   2.31919   2.32592   2.33387   2.34928
 Alpha virt. eigenvalues --    2.36873   2.41097   2.43834   2.44971   2.47559
 Alpha virt. eigenvalues --    2.49449   2.50905   2.52757   2.54454   2.55309
 Alpha virt. eigenvalues --    2.55562   2.57688   2.59367   2.61912   2.62949
 Alpha virt. eigenvalues --    2.65098   2.65638   2.67226   2.68040   2.68687
 Alpha virt. eigenvalues --    2.69392   2.71534   2.72342   2.74384   2.75322
 Alpha virt. eigenvalues --    2.76643   2.77586   2.79766   2.81072   2.84499
 Alpha virt. eigenvalues --    2.85703   2.86683   2.91998   2.92565   2.94046
 Alpha virt. eigenvalues --    2.96831   2.98115   2.98449   3.01246   3.01563
 Alpha virt. eigenvalues --    3.02821   3.03892   3.04170   3.08191   3.10004
 Alpha virt. eigenvalues --    3.10972   3.12280   3.13528   3.15737   3.17219
 Alpha virt. eigenvalues --    3.19423   3.21222   3.22408   3.23041   3.23732
 Alpha virt. eigenvalues --    3.25457   3.26895   3.27638   3.32367   3.33504
 Alpha virt. eigenvalues --    3.33694   3.34950   3.36572   3.37386   3.40307
 Alpha virt. eigenvalues --    3.40664   3.41329   3.42649   3.44197   3.46013
 Alpha virt. eigenvalues --    3.48239   3.48928   3.50627   3.51969   3.53329
 Alpha virt. eigenvalues --    3.56801   3.57117   3.59787   3.64555   3.65317
 Alpha virt. eigenvalues --    3.66641   3.68653   3.71499   3.75460   3.77252
 Alpha virt. eigenvalues --    3.79342   3.82535   3.85472   3.95505   3.97772
 Alpha virt. eigenvalues --    4.00788   4.03022   4.04592   4.05713   4.07759
 Alpha virt. eigenvalues --    4.08162   4.09838   4.10278   4.15299   4.16154
 Alpha virt. eigenvalues --    4.17627   4.18725   4.19912   4.20979   4.21553
 Alpha virt. eigenvalues --    4.21953   4.22990   4.27803   4.29041   4.31935
 Alpha virt. eigenvalues --    4.32138   4.34702   4.38806   4.41819   4.44137
 Alpha virt. eigenvalues --    4.49103   4.57782   4.59158   4.61227   4.62158
 Alpha virt. eigenvalues --    4.64806   4.68511   4.69460   4.71007   4.71992
 Alpha virt. eigenvalues --    4.74066   4.75004   4.83638   4.90810   4.97256
 Alpha virt. eigenvalues --    5.00739   5.05762   5.07868   5.08543   5.12288
 Alpha virt. eigenvalues --    5.14052   5.16006   5.17550   5.22012   5.23316
 Alpha virt. eigenvalues --    5.36019   5.37180   5.48067   5.54635   5.58837
 Alpha virt. eigenvalues --    9.44325   9.50922   9.62883  10.76340  10.76973
 Alpha virt. eigenvalues --   10.84389  10.85120  11.36576  11.41521  21.66103
 Alpha virt. eigenvalues --   21.98847  22.31607  22.68119  22.73844  22.77073
 Alpha virt. eigenvalues --   22.83312  23.10762  25.90716  26.05327  31.89824
 Alpha virt. eigenvalues --   31.91372
          Condensed to atoms (all electrons):
               1          2          3          4          5          6
     1  N    6.924521   0.505135  -0.133929   0.020319  -0.001299   0.000002
     2  S    0.505135  14.112159   0.232048  -0.043738   0.003273  -0.000182
     3  C   -0.133929   0.232048   5.360525   0.294296   0.074718   0.009916
     4  C    0.020319  -0.043738   0.294296   5.401377   0.281818  -0.040903
     5  C   -0.001299   0.003273   0.074718   0.281818   5.004798   0.270727
     6  Cl   0.000002  -0.000182   0.009916  -0.040903   0.270727  16.865612
     7  C    0.000697   0.001502  -0.132844   0.076810   0.325134  -0.036977
     8  C    0.000843   0.006051   0.066594  -0.141816   0.086479   0.014182
     9  Cl  -0.000014  -0.000120   0.008641   0.000359   0.014730  -0.000272
    10  C    0.017819   0.003350   0.313376  -0.031933  -0.134553   0.000815
    11  C   -0.051481   0.289990  -0.080099  -0.000016  -0.000471   0.000033
    12  N   -0.074941   0.525421  -0.085493   0.007302  -0.000993   0.000045
    13  H    0.311425  -0.017445   0.017310  -0.000957   0.000081  -0.000000
    14  H    0.002076  -0.002647  -0.065607   0.445785  -0.065874   0.002035
    15  H   -0.000000   0.000060  -0.004700   0.016374  -0.065037   0.000055
    16  H    0.020781  -0.003045  -0.048611   0.012153  -0.004178   0.000032
    17  H    0.002762  -0.021885   0.007135   0.003764   0.000014   0.000001
    18  H    0.004820  -0.012364   0.010047  -0.009376   0.000402  -0.000014
    19  H    0.000830  -0.013790   0.007623  -0.000200   0.000050  -0.000001
    20  H   -0.002246  -0.023399   0.000566  -0.004477  -0.000409   0.000004
               7          8          9         10         11         12
     1  N    0.000697   0.000843  -0.000014   0.017819  -0.051481  -0.074941
     2  S    0.001502   0.006051  -0.000120   0.003350   0.289990   0.525421
     3  C   -0.132844   0.066594   0.008641   0.313376  -0.080099  -0.085493
     4  C    0.076810  -0.141816   0.000359  -0.031933  -0.000016   0.007302
     5  C    0.325134   0.086479   0.014730  -0.134553  -0.000471  -0.000993
     6  Cl  -0.036977   0.014182  -0.000272   0.000815   0.000033   0.000045
     7  C    5.190044   0.327501  -0.037183   0.065883  -0.000015  -0.000038
     8  C    0.327501   4.989534   0.274146   0.303578   0.000061  -0.000637
     9  Cl  -0.037183   0.274146  16.866195  -0.043392   0.000035   0.000003
    10  C    0.065883   0.303578  -0.043392   5.311768   0.010190   0.012786
    11  C   -0.000015   0.000061   0.000035   0.010190   5.145939  -0.084547
    12  N   -0.000038  -0.000637   0.000003   0.012786  -0.084547   6.909489
    13  H   -0.000004  -0.000057  -0.000005  -0.003105  -0.009518  -0.000907
    14  H    0.012621  -0.003771   0.000031   0.006932  -0.002345   0.020368
    15  H    0.439130  -0.065274   0.000457   0.016226  -0.000006   0.000002
    16  H    0.012758  -0.071043   0.001191   0.436346   0.001563   0.000796
    17  H    0.000089  -0.000048  -0.000019  -0.006641   0.376480   0.005522
    18  H   -0.000037  -0.000037   0.000001   0.001591   0.361306   0.002591
    19  H   -0.000006   0.000044  -0.000000  -0.000658   0.373064   0.004918
    20  H   -0.000051   0.000065   0.000000   0.002038   0.013107   0.313021
              13         14         15         16         17         18
     1  N    0.311425   0.002076  -0.000000   0.020781   0.002762   0.004820
     2  S   -0.017445  -0.002647   0.000060  -0.003045  -0.021885  -0.012364
     3  C    0.017310  -0.065607  -0.004700  -0.048611   0.007135   0.010047
     4  C   -0.000957   0.445785   0.016374   0.012153   0.003764  -0.009376
     5  C    0.000081  -0.065874  -0.065037  -0.004178   0.000014   0.000402
     6  Cl  -0.000000   0.002035   0.000055   0.000032   0.000001  -0.000014
     7  C   -0.000004   0.012621   0.439130   0.012758   0.000089  -0.000037
     8  C   -0.000057  -0.003771  -0.065274  -0.071043  -0.000048  -0.000037
     9  Cl  -0.000005   0.000031   0.000457   0.001191  -0.000019   0.000001
    10  C   -0.003105   0.006932   0.016226   0.436346  -0.006641   0.001591
    11  C   -0.009518  -0.002345  -0.000006   0.001563   0.376480   0.361306
    12  N   -0.000907   0.020368   0.000002   0.000796   0.005522   0.002591
    13  H    0.484089  -0.000072   0.000000  -0.001354   0.000072   0.000198
    14  H   -0.000072   0.481832  -0.000040  -0.000131   0.000300  -0.000292
    15  H    0.000000  -0.000040   0.516828  -0.000020  -0.000001   0.000001
    16  H   -0.001354  -0.000131  -0.000020   0.469713   0.000286  -0.000141
    17  H    0.000072   0.000300  -0.000001   0.000286   0.508115  -0.016970
    18  H    0.000198  -0.000292   0.000001  -0.000141  -0.016970   0.511468
    19  H    0.001975  -0.000121   0.000000  -0.000115  -0.013958  -0.010470
    20  H   -0.000284  -0.002727  -0.000000   0.000016  -0.000573  -0.000791
              19         20
     1  N    0.000830  -0.002246
     2  S   -0.013790  -0.023399
     3  C    0.007623   0.000566
     4  C   -0.000200  -0.004477
     5  C    0.000050  -0.000409
     6  Cl  -0.000001   0.000004
     7  C   -0.000006  -0.000051
     8  C    0.000044   0.000065
     9  Cl  -0.000000   0.000000
    10  C   -0.000658   0.002038
    11  C    0.373064   0.013107
    12  N    0.004918   0.313021
    13  H    0.001975  -0.000284
    14  H   -0.000121  -0.002727
    15  H    0.000000  -0.000000
    16  H   -0.000115   0.000016
    17  H   -0.013958  -0.000573
    18  H   -0.010470  -0.000791
    19  H    0.497541  -0.000622
    20  H   -0.000622   0.485365
 Mulliken charges:
               1
     1  N   -0.548120
     2  S    0.459626
     3  C    0.148489
     4  C   -0.286941
     5  C    0.210588
     6  Cl  -0.085113
     7  C   -0.245015
     8  C    0.213602
     9  Cl  -0.084783
    10  C   -0.282417
    11  C   -0.343272
    12  N   -0.554709
    13  H    0.218559
    14  H    0.171646
    15  H    0.145944
    16  H    0.173004
    17  H    0.155556
    18  H    0.158068
    19  H    0.153894
    20  H    0.221394
 Sum of Mulliken charges =  -0.00000
 Mulliken charges with hydrogens summed into heavy atoms:
               1
     1  N   -0.329561
     2  S    0.459626
     3  C    0.148489
     4  C   -0.115295
     5  C    0.210588
     6  Cl  -0.085113
     7  C   -0.099071
     8  C    0.213602
     9  Cl  -0.084783
    10  C   -0.109413
    11  C    0.124245
    12  N   -0.333314
 Electronic spatial extent (au):  <R**2>=           3466.0903
 Charge=             -0.0000 electrons
 Dipole moment (field-independent basis, Debye):
    X=              0.2216    Y=              0.0059    Z=              1.6103  Tot=              1.6255
 Quadrupole moment (field-independent basis, Debye-Ang):
   XX=            -88.7935   YY=            -97.6548   ZZ=            -88.7246
   XY=             -3.2167   XZ=              4.1275   YZ=             -1.3039
 Traceless Quadrupole moment (field-independent basis, Debye-Ang):
   XX=              2.9308   YY=             -5.9305   ZZ=              2.9997
   XY=             -3.2167   XZ=              4.1275   YZ=             -1.3039
 Octapole moment (field-independent basis, Debye-Ang**2):
  XXX=             -1.4983  YYY=              0.5832  ZZZ=             -0.9537  XYY=            -10.6385
  XXY=            -20.2224  XXZ=             10.2095  XZZ=             13.2437  YZZ=              5.3019
  YYZ=              2.8588  XYZ=             -1.0944
 Hexadecapole moment (field-independent basis, Debye-Ang**3):
 XXXX=          -2551.7134 YYYY=          -1551.2820 ZZZZ=           -264.0792 XXXY=           -109.0480
 XXXZ=             23.6571 YYYX=             -5.2051 YYYZ=             -2.4041 ZZZX=             -7.1138
 ZZZY=            -12.2571 XXYY=           -738.2354 XXZZ=           -459.2529 YYZZ=           -309.4722
 XXYZ=              6.7160 YYXZ=              3.7134 ZZXY=             12.6416
 N-N= 9.875198374186D+02 E-N=-5.993977469407D+03  KE= 1.694994711779D+03
 Breneman (CHELPG) radii used.
 Read replacement radii for each type of atom:
 Atom Element Radius
    1     7    1.70
    2    16    2.00
    3     6    1.50
    4     6    1.50
    5     6    1.50
    6    17    2.00
    7     6    1.50
    8     6    1.50
    9    17    2.00
   10     6    1.50
   11     6    1.50
   12     7    1.70
   13     1    1.45
   14     1    1.45
   15     1    1.45
   16     1    1.45
   17     1    1.45
   18     1    1.45
   19     1    1.45
   20     1    1.45
 Generate Potential Derived Charges using the Breneman model, NDens= 1.
 Grid spacing= 0.300 Box extension= 2.800
 NStep X,Y,Z=   44     38     33   Total possible points=       55176
 Number of Points to Fit=   13396

 **********************************************************************

            Electrostatic Properties Using The SCF Density.

 **********************************************************************

       Atomic Center    1 is at   2.644360 -1.532834 -0.664755
       Atomic Center    2 is at   2.395518 -0.098435 -0.141448
       Atomic Center    3 is at   0.589130 -0.075412 -0.074980
       Atomic Center    4 is at  -0.008861  1.179388 -0.070421
       Atomic Center    5 is at  -1.399959  1.241837 -0.016573
       Atomic Center    6 is at  -2.186597  2.781074 -0.008206
       Atomic Center    7 is at  -2.172392  0.082066  0.022786
       Atomic Center    8 is at  -1.531973 -1.157495  0.003250
       Atomic Center    9 is at  -2.489063 -2.596683  0.037203
       Atomic Center   10 is at  -0.142915 -1.257293 -0.047519
       Atomic Center   11 is at   2.793853  0.118379  1.597782
       Atomic Center   12 is at   2.996016  1.202155 -0.732320
       Atomic Center   13 is at   3.652475 -1.658251 -0.783558
       Atomic Center   14 is at   0.607502  2.079656 -0.127925
       Atomic Center   15 is at  -3.260110  0.142202  0.060328
       Atomic Center   16 is at   0.372425 -2.217215 -0.088520
       Atomic Center   17 is at   2.354083 -0.722897  2.147053
       Atomic Center   18 is at   2.410865  1.083321  1.950968
       Atomic Center   19 is at   3.890462  0.102152  1.655722
       Atomic Center   20 is at   2.886318  1.157276 -1.750256
   13396 points will be used for fitting atomic charges
 Fitting point charges to electrostatic potential
 Charges from ESP fit, RMS=   0.00362 RRMS=   0.27909:
 ESP charges:
               1
     1  N   -0.774816
     2  S    0.666302
     3  C    0.047710
     4  C   -0.101857
     5  C    0.032803
     6  Cl  -0.086269
     7  C   -0.024456
     8  C    0.010295
     9  Cl  -0.082911
    10  C   -0.058385
    11  C   -0.287370
    12  N   -0.736609
    13  H    0.350255
    14  H    0.126869
    15  H    0.099768
    16  H    0.133622
    17  H    0.094405
    18  H    0.118115
    19  H    0.153193
    20  H    0.319339
 Sum of ESP charges =   0.00000
 ESP charges with hydrogens summed into heavy atoms:
               1
     1  N   -0.424562
     2  S    0.666302
     3  C    0.047710
     4  C    0.025012
     5  C    0.032803
     6  Cl  -0.086269
     7  C    0.075311
     8  C    0.010295
     9  Cl  -0.082911
    10  C    0.075237
    11  C    0.078343
    12  N   -0.417270
 Charge=   0.00000 Dipole=     0.3211     0.0014     1.6109 Tot=     1.6426
 -----------------------------------------------------------------

              Electrostatic Properties (Atomic Units)

 -----------------------------------------------------------------
    Center     Electric         -------- Electric Field --------
               Potential          X             Y             Z
 -----------------------------------------------------------------
    1 Atom    -18.415462
    2 Atom    -59.063421
    3 Atom    -14.710687
    4 Atom    -14.727523
    5 Atom    -14.672825
    6 Atom    -64.404166
    7 Atom    -14.724479
    8 Atom    -14.673830
    9 Atom    -64.405575
   10 Atom    -14.729700
   11 Atom    -14.726955
   12 Atom    -18.415991
   13 Atom     -1.038917
   14 Atom     -1.067231
   15 Atom     -1.063725
   16 Atom     -1.073713
   17 Atom     -1.069322
   18 Atom     -1.068370
   19 Atom     -1.066208
   20 Atom     -1.042255
 -----------------------------------------------------------------
 Unable to Open any file for archive entry.
 1\1\GINC-NOTCH061\SP\RPBE1PBE\def2TZVP\C7H8Cl2N2S1\U1414944\10-Feb-202
 5\0\\#N Guess=Read Geom=Check Integral(Ultrafine) Density Pop=(ChelpG,
 ReadRadii) NMR pbe1pbe EmpiricalDispersion=GD3BJ def2TZVP\\SDI0297_1\\
 0,1\N,0,-2.7528591424,-1.5113380878,0.5826469582\S,0,-2.4813602362,-0.
 0687693064,0.0942248847\C,0,-0.6739442411,-0.0619855302,0.0597940067\C
 ,0,-0.0642110783,1.1867385059,0.0922186362\C,0,1.3281462345,1.23672445
 17,0.0639888301\Cl,0,2.1292263264,2.7680481361,0.1019162765\C,0,2.0902
 300024,0.0705527273,0.0135908026\C,0,1.4379565954,-1.1628366028,-0.004
 2804909\Cl,0,2.3819418358,-2.610266371,-0.0519630176\C,0,0.0473426811,
 -1.2501180524,0.0201166964\C,0,-2.8468757951,0.1883745939,-1.646715956
 1\N,0,-3.0799590246,1.2249322105,0.7019083582\H,0,-3.7640476,-1.629376
 5485,0.6811587403\H,0,-0.6730138875,2.0915728821,0.1579890141\H,0,3.17
 89580164,0.1208451958,-0.0036821666\H,0,-0.477630749,-2.2056139935,0.0
 318012077\H,0,-2.4053964121,-0.645439916,-2.2059031867\H,0,-2.44866992
 97,1.1567330022,-1.9726721614\H,0,-3.9423959109,0.184070022,-1.7241155
 229\H,0,-2.9886746676,1.1576312827,1.7204263971\\Version=ES64L-G16RevC
 .01\State=1-A\HF=-1698.8826034\RMSD=4.741e-09\Dipole=-0.0759438,0.0164
 785,-0.634764\Quadrupole=2.1146455,-4.4917115,2.3770661,2.2472411,3.12
 34743,0.8381137\PG=C01 [X(C7H8Cl2N2S1)]\\@
 The archive entry for this job was punched.


 EXPERIMENTALISTS THINK SILICON IS REALLY FUN TO USE
     ITS PLACE IN NOVEL COMPOUNDS IS CERTAIN TO AMUSE
 THEY SIT ALL DAY IN LABORATORIES MAKING ALL THIS SLUDGE
     "LOADED WITH THE SILICON THEY SAY", TO ME IT LOOKS LIKE FUDGE.
 FOR HAPPY THOUGH THEY BE WITH CRUD, I'D LIKE TO KNOW A LITTLE
      ABOUT THE PI BONDS ON THE EDGE AND SIGMAS IN THE MIDDLE.

 SO LETS DERIVE A WAVEFUNCTION.....6-31G*
     USE AN OPTIMAL GEOMETRY AND SEE WHERE ELECTRONS ARE.
 BUT WHAT OF CORRELATION?  ASKS THE WIRY LITTLE SKEPTIC.
     WE'LL THROW IN PERTURBATION AS AN ELECTRON ANTISEPTIC.
 AND WHEN THE PROGRAM GIVES US ANSWERS IN THEM WE CAN TRUST
     SINCE NOBODY CAN MAKE THE STUFF, WE HAVE NO CHOICE, WE MUST.

 SO THEORY GUYS HAVE GOT IT MADE, IN ROOMS FREE OF POLLUTION.
     INSTEAD OF PROBLEMS WITH THE REFLUX, THEY HAVE ONLY SOLUTIONS.
 AND WHEN THE FEDS ANNOUNCE THE LIST OF CARCINOGENIC TERRORS,
     THE THEORISTS SIT SAFELY AT THEIR TERMINALS FIXING ERRORS.
 IN OTHER WORDS, EXPERIMENTALISTS WILL LIKELY DIE OF CANCER
     FROM WORKING HARD YET FRUITLESSLY...TILL THEORY GIVES THE ANSWER.
          -- THOMAS A. HOLME, 1983
 Job cpu time:       0 days  0 hours 27 minutes 32.6 seconds.
 Elapsed time:       0 days  0 hours  1 minutes 51.5 seconds.
 File lengths (MBytes):  RWF=    125 Int=      0 D2E=      0 Chk=     18 Scr=      2
 Normal termination of Gaussian 16 at Mon Feb 10 19:51:08 2025.
