 Entering Gaussian System, Link 0=g16
 Input=SDI0152_1.com
 Output=SDI0152_1.log
 Initial command:
 /uufs/chpc.utah.edu/sys/installdir/gaussian16/C01/AVX/g16/l1.exe "/scratch/general/vast/u1414944/4692924-notchpeak.peaks/Gau-1943465.inp" -scrdir="/scratch/general/vast/u1414944/4692924-notchpeak.peaks/"
 Entering Link 1 = /uufs/chpc.utah.edu/sys/installdir/gaussian16/C01/AVX/g16/l1.exe PID=   1943466.
  
 Copyright (c) 1988-2019, Gaussian, Inc.  All Rights Reserved.
  
 This is part of the Gaussian(R) 16 program.  It is based on
 the Gaussian(R) 09 system (copyright 2009, Gaussian, Inc.),
 the Gaussian(R) 03 system (copyright 2003, Gaussian, Inc.),
 the Gaussian(R) 98 system (copyright 1998, Gaussian, Inc.),
 the Gaussian(R) 94 system (copyright 1995, Gaussian, Inc.),
 the Gaussian 92(TM) system (copyright 1992, Gaussian, Inc.),
 the Gaussian 90(TM) system (copyright 1990, Gaussian, Inc.),
 the Gaussian 88(TM) system (copyright 1988, Gaussian, Inc.),
 the Gaussian 86(TM) system (copyright 1986, Carnegie Mellon
 University), and the Gaussian 82(TM) system (copyright 1983,
 Carnegie Mellon University). Gaussian is a federally registered
 trademark of Gaussian, Inc.
  
 This software contains proprietary and confidential information,
 including trade secrets, belonging to Gaussian, Inc.
  
 This software is provided under written license and may be
 used, copied, transmitted, or stored only in accord with that
 written license.
  
 The following legend is applicable only to US Government
 contracts under FAR:
  
                    RESTRICTED RIGHTS LEGEND
  
 Use, reproduction and disclosure by the US Government is
 subject to restrictions as set forth in subparagraphs (a)
 and (c) of the Commercial Computer Software - Restricted
 Rights clause in FAR 52.227-19.
  
 Gaussian, Inc.
 340 Quinnipiac St., Bldg. 40, Wallingford CT 06492
  
  
 ---------------------------------------------------------------
 Warning -- This program may not be used in any manner that
 competes with the business of Gaussian, Inc. or will provide
 assistance to any competitor of Gaussian, Inc.  The licensee
 of this program is prohibited from giving any competitor of
 Gaussian, Inc. access to this program.  By using this program,
 the user acknowledges that Gaussian, Inc. is engaged in the
 business of creating and licensing software in the field of
 computational chemistry and represents and warrants to the
 licensee that it is not a competitor of Gaussian, Inc. and that
 it will not use this program in any manner prohibited above.
 ---------------------------------------------------------------
  

 Cite this work as:
 Gaussian 16, Revision C.01,
 M. J. Frisch, G. W. Trucks, H. B. Schlegel, G. E. Scuseria, 
 M. A. Robb, J. R. Cheeseman, G. Scalmani, V. Barone, 
 G. A. Petersson, H. Nakatsuji, X. Li, M. Caricato, A. V. Marenich, 
 J. Bloino, B. G. Janesko, R. Gomperts, B. Mennucci, H. P. Hratchian, 
 J. V. Ortiz, A. F. Izmaylov, J. L. Sonnenberg, D. Williams-Young, 
 F. Ding, F. Lipparini, F. Egidi, J. Goings, B. Peng, A. Petrone, 
 T. Henderson, D. Ranasinghe, V. G. Zakrzewski, J. Gao, N. Rega, 
 G. Zheng, W. Liang, M. Hada, M. Ehara, K. Toyota, R. Fukuda, 
 J. Hasegawa, M. Ishida, T. Nakajima, Y. Honda, O. Kitao, H. Nakai, 
 T. Vreven, K. Throssell, J. A. Montgomery, Jr., J. E. Peralta, 
 F. Ogliaro, M. J. Bearpark, J. J. Heyd, E. N. Brothers, K. N. Kudin, 
 V. N. Staroverov, T. A. Keith, R. Kobayashi, J. Normand, 
 K. Raghavachari, A. P. Rendell, J. C. Burant, S. S. Iyengar, 
 J. Tomasi, M. Cossi, J. M. Millam, M. Klene, C. Adamo, R. Cammi, 
 J. W. Ochterski, R. L. Martin, K. Morokuma, O. Farkas, 
 J. B. Foresman, and D. J. Fox, Gaussian, Inc., Wallingford CT, 2019.
 
 ******************************************
 Gaussian 16:  ES64L-G16RevC.01  3-Jul-2019
                 7-Jun-2025 
 ******************************************
 %NProcShared=16
 Will use up to   16 processors via shared memory.
 %Mem=40GB
 %chk=SDI0152_1.chk
 ----------------------------------------------------------------------
 #N OPT=(CalcAll,Tight) FREQ=NORAMAN Integral(Ultrafine) pbe1pbe Empiri
 calDispersion=GD3BJ def2SVP
 ----------------------------------------------------------------------
 1/7=10,10=4,18=20,19=15,26=4,38=1/1,3;
 2/9=110,12=2,17=6,18=5,40=1/2;
 3/5=43,7=101,11=2,25=1,30=1,71=2,74=-13,75=-5,124=41,140=1/1,2,3;
 4//1;
 5/5=2,38=5/2;
 8/6=4,10=90,11=11/1;
 11/6=1,8=1,9=11,15=111,16=1/1,2,10;
 10/6=1/2;
 6/7=2,8=2,9=2,10=2,18=1,28=1/1;
 7/10=1,25=1/1,2,3,16;
 1/7=10,10=4,18=20,19=15,26=4/3(3);
 2/9=110/2;
 7/8=1,9=1,25=1,44=-1/16;
 99//99;
 2/9=110/2;
 3/5=43,7=101,11=2,25=1,30=1,71=2,74=-13,75=-5,124=41,140=1/1,2,3;
 4/5=5,16=3,69=1/1;
 5/5=2,38=5/2;
 8/6=4,10=90,11=11/1;
 11/6=1,8=1,9=11,15=111,16=1/1,2,10;
 10/6=1/2;
 7/10=1,25=1/1,2,3,16;
 1/7=10,10=4,18=20,19=15,26=4/3(-8);
 2/9=110/2;
 6/7=2,8=2,9=2,10=2,18=1,19=2,28=1/1;
 7/8=1,9=1,25=1,44=-1/16;
 99//99;
 ---------
 SDI0152_1
 ---------
 Symbolic Z-matrix:
 Charge =  0 Multiplicity = 1
 N                    -2.08305   0.63331  -1.25719 
 S                    -1.54834  -0.19431  -0.0904 
 C                     0.2879   -0.25268  -0.02113 
 C                     0.91325  -1.48479  -0.00313 
 C                     2.29532  -1.56563   0.0105 
 C                     3.05667  -0.40728  -0.0005 
 C                     2.44371   0.83449  -0.02075 
 C                     1.06186   0.89179  -0.0316 
 F                     0.45636   2.10173  -0.04082 
 C                    -1.83406   0.50801   1.58013 
 N                    -2.06204  -1.62554  -0.03084 
 H                    -1.73865   1.57753  -1.30253 
 H                     0.28425  -2.36206   0.00334 
 H                     2.7789   -2.53001   0.0276 
 H                     4.13422  -0.46665   0.00663 
 H                     3.01555   1.74898  -0.02946 
 H                    -1.31346   1.45374   1.67102 
 H                    -1.4618   -0.21933   2.28987 
 H                    -2.90195   0.64595   1.70152 
 H                    -2.55631  -1.90483  -0.85999 
 

 GradGradGradGradGradGradGradGradGradGradGradGradGradGradGradGradGradGrad
 Berny optimization.
 Initialization pass.
                           ----------------------------
                           !    Initial Parameters    !
                           ! (Angstroms and Degrees)  !
 --------------------------                            --------------------------
 ! Name  Definition              Value          Derivative Info.                !
 --------------------------------------------------------------------------------
 ! R1    R(1,2)                  1.5272         calculate D2E/DX2 analytically  !
 ! R2    R(1,12)                 1.0061         calculate D2E/DX2 analytically  !
 ! R3    R(2,3)                  1.8385         calculate D2E/DX2 analytically  !
 ! R4    R(2,10)                 1.8345         calculate D2E/DX2 analytically  !
 ! R5    R(2,11)                 1.5218         calculate D2E/DX2 analytically  !
 ! R6    R(3,4)                  1.3818         calculate D2E/DX2 analytically  !
 ! R7    R(3,8)                  1.3816         calculate D2E/DX2 analytically  !
 ! R8    R(4,5)                  1.3845         calculate D2E/DX2 analytically  !
 ! R9    R(4,13)                 1.0795         calculate D2E/DX2 analytically  !
 ! R10   R(5,6)                  1.3862         calculate D2E/DX2 analytically  !
 ! R11   R(5,14)                 1.079          calculate D2E/DX2 analytically  !
 ! R12   R(6,7)                  1.385          calculate D2E/DX2 analytically  !
 ! R13   R(6,15)                 1.0792         calculate D2E/DX2 analytically  !
 ! R14   R(7,8)                  1.3831         calculate D2E/DX2 analytically  !
 ! R15   R(7,16)                 1.0786         calculate D2E/DX2 analytically  !
 ! R16   R(8,9)                  1.353          calculate D2E/DX2 analytically  !
 ! R17   R(10,17)                1.0834         calculate D2E/DX2 analytically  !
 ! R18   R(10,18)                1.0823         calculate D2E/DX2 analytically  !
 ! R19   R(10,19)                1.0836         calculate D2E/DX2 analytically  !
 ! R20   R(11,20)                1.0049         calculate D2E/DX2 analytically  !
 ! A1    A(2,1,12)             115.0353         calculate D2E/DX2 analytically  !
 ! A2    A(1,2,3)              113.3094         calculate D2E/DX2 analytically  !
 ! A3    A(1,2,10)             115.7037         calculate D2E/DX2 analytically  !
 ! A4    A(1,2,11)             114.9223         calculate D2E/DX2 analytically  !
 ! A5    A(3,2,10)              97.6663         calculate D2E/DX2 analytically  !
 ! A6    A(3,2,11)             107.8072         calculate D2E/DX2 analytically  !
 ! A7    A(10,2,11)            105.7735         calculate D2E/DX2 analytically  !
 ! A8    A(2,3,4)              118.7379         calculate D2E/DX2 analytically  !
 ! A9    A(2,3,8)              122.2019         calculate D2E/DX2 analytically  !
 ! A10   A(4,3,8)              119.0241         calculate D2E/DX2 analytically  !
 ! A11   A(3,4,5)              120.2618         calculate D2E/DX2 analytically  !
 ! A12   A(3,4,13)             117.4516         calculate D2E/DX2 analytically  !
 ! A13   A(5,4,13)             122.2863         calculate D2E/DX2 analytically  !
 ! A14   A(4,5,6)              119.9598         calculate D2E/DX2 analytically  !
 ! A15   A(4,5,14)             119.9839         calculate D2E/DX2 analytically  !
 ! A16   A(6,5,14)             120.0562         calculate D2E/DX2 analytically  !
 ! A17   A(5,6,7)              120.4159         calculate D2E/DX2 analytically  !
 ! A18   A(5,6,15)             120.1563         calculate D2E/DX2 analytically  !
 ! A19   A(7,6,15)             119.4278         calculate D2E/DX2 analytically  !
 ! A20   A(6,7,8)              118.6495         calculate D2E/DX2 analytically  !
 ! A21   A(6,7,16)             121.713          calculate D2E/DX2 analytically  !
 ! A22   A(8,7,16)             119.6374         calculate D2E/DX2 analytically  !
 ! A23   A(3,8,7)              121.6882         calculate D2E/DX2 analytically  !
 ! A24   A(3,8,9)              119.3477         calculate D2E/DX2 analytically  !
 ! A25   A(7,8,9)              118.9615         calculate D2E/DX2 analytically  !
 ! A26   A(2,10,17)            109.6178         calculate D2E/DX2 analytically  !
 ! A27   A(2,10,18)            106.6364         calculate D2E/DX2 analytically  !
 ! A28   A(2,10,19)            107.7119         calculate D2E/DX2 analytically  !
 ! A29   A(17,10,18)           111.4913         calculate D2E/DX2 analytically  !
 ! A30   A(17,10,19)           110.675          calculate D2E/DX2 analytically  !
 ! A31   A(18,10,19)           110.5521         calculate D2E/DX2 analytically  !
 ! A32   A(2,11,20)            113.2743         calculate D2E/DX2 analytically  !
 ! D1    D(12,1,2,3)           -54.9514         calculate D2E/DX2 analytically  !
 ! D2    D(12,1,2,10)           56.6782         calculate D2E/DX2 analytically  !
 ! D3    D(12,1,2,11)         -179.5197         calculate D2E/DX2 analytically  !
 ! D4    D(1,2,3,4)           -124.9547         calculate D2E/DX2 analytically  !
 ! D5    D(1,2,3,8)             52.8387         calculate D2E/DX2 analytically  !
 ! D6    D(10,2,3,4)           112.7341         calculate D2E/DX2 analytically  !
 ! D7    D(10,2,3,8)           -69.4726         calculate D2E/DX2 analytically  !
 ! D8    D(11,2,3,4)             3.3849         calculate D2E/DX2 analytically  !
 ! D9    D(11,2,3,8)          -178.8218         calculate D2E/DX2 analytically  !
 ! D10   D(1,2,10,17)          -62.9228         calculate D2E/DX2 analytically  !
 ! D11   D(1,2,10,18)          176.2512         calculate D2E/DX2 analytically  !
 ! D12   D(1,2,10,19)           57.5621         calculate D2E/DX2 analytically  !
 ! D13   D(3,2,10,17)           57.6015         calculate D2E/DX2 analytically  !
 ! D14   D(3,2,10,18)          -63.2245         calculate D2E/DX2 analytically  !
 ! D15   D(3,2,10,19)          178.0863         calculate D2E/DX2 analytically  !
 ! D16   D(11,2,10,17)         168.62           calculate D2E/DX2 analytically  !
 ! D17   D(11,2,10,18)          47.794          calculate D2E/DX2 analytically  !
 ! D18   D(11,2,10,19)         -70.8952         calculate D2E/DX2 analytically  !
 ! D19   D(1,2,11,20)           10.7326         calculate D2E/DX2 analytically  !
 ! D20   D(3,2,11,20)         -116.6786         calculate D2E/DX2 analytically  !
 ! D21   D(10,2,11,20)         139.6514         calculate D2E/DX2 analytically  !
 ! D22   D(2,3,4,5)            178.1645         calculate D2E/DX2 analytically  !
 ! D23   D(2,3,4,13)            -2.0523         calculate D2E/DX2 analytically  !
 ! D24   D(8,3,4,5)              0.2998         calculate D2E/DX2 analytically  !
 ! D25   D(8,3,4,13)          -179.917          calculate D2E/DX2 analytically  !
 ! D26   D(2,3,8,7)           -177.9703         calculate D2E/DX2 analytically  !
 ! D27   D(2,3,8,9)              2.6218         calculate D2E/DX2 analytically  !
 ! D28   D(4,3,8,7)             -0.183          calculate D2E/DX2 analytically  !
 ! D29   D(4,3,8,9)           -179.5909         calculate D2E/DX2 analytically  !
 ! D30   D(3,4,5,6)             -0.315          calculate D2E/DX2 analytically  !
 ! D31   D(3,4,5,14)           179.8124         calculate D2E/DX2 analytically  !
 ! D32   D(13,4,5,6)           179.9126         calculate D2E/DX2 analytically  !
 ! D33   D(13,4,5,14)            0.0399         calculate D2E/DX2 analytically  !
 ! D34   D(4,5,6,7)              0.2085         calculate D2E/DX2 analytically  !
 ! D35   D(4,5,6,15)          -179.7884         calculate D2E/DX2 analytically  !
 ! D36   D(14,5,6,7)          -179.919          calculate D2E/DX2 analytically  !
 ! D37   D(14,5,6,15)            0.0841         calculate D2E/DX2 analytically  !
 ! D38   D(5,6,7,8)             -0.0894         calculate D2E/DX2 analytically  !
 ! D39   D(5,6,7,16)           179.9903         calculate D2E/DX2 analytically  !
 ! D40   D(15,6,7,8)           179.9076         calculate D2E/DX2 analytically  !
 ! D41   D(15,6,7,16)           -0.0128         calculate D2E/DX2 analytically  !
 ! D42   D(6,7,8,3)              0.0779         calculate D2E/DX2 analytically  !
 ! D43   D(6,7,8,9)            179.488          calculate D2E/DX2 analytically  !
 ! D44   D(16,7,8,3)           180.0            calculate D2E/DX2 analytically  !
 ! D45   D(16,7,8,9)            -0.5899         calculate D2E/DX2 analytically  !
 --------------------------------------------------------------------------------
 Trust Radius=3.00D-01 FncErr=1.00D-07 GrdErr=1.00D-06 EigMax=2.50D+02 EigMin=1.00D-04
 Number of steps in this run=    107 maximum allowed number of steps=    120.
 GradGradGradGradGradGradGradGradGradGradGradGradGradGradGradGradGradGrad

                          Input orientation:                          
 ---------------------------------------------------------------------
 Center     Atomic      Atomic             Coordinates (Angstroms)
 Number     Number       Type             X           Y           Z
 ---------------------------------------------------------------------
      1          7           0       -2.083051    0.633314   -1.257193
      2         16           0       -1.548342   -0.194305   -0.090398
      3          6           0        0.287900   -0.252683   -0.021132
      4          6           0        0.913249   -1.484787   -0.003129
      5          6           0        2.295319   -1.565634    0.010503
      6          6           0        3.056665   -0.407277   -0.000497
      7          6           0        2.443710    0.834485   -0.020754
      8          6           0        1.061860    0.891788   -0.031598
      9          9           0        0.456359    2.101730   -0.040817
     10          6           0       -1.834060    0.508014    1.580132
     11          7           0       -2.062043   -1.625537   -0.030838
     12          1           0       -1.738654    1.577530   -1.302530
     13          1           0        0.284246   -2.362056    0.003339
     14          1           0        2.778904   -2.530007    0.027601
     15          1           0        4.134224   -0.466653    0.006629
     16          1           0        3.015552    1.748975   -0.029455
     17          1           0       -1.313456    1.453735    1.671022
     18          1           0       -1.461801   -0.219332    2.289865
     19          1           0       -2.901955    0.645946    1.701524
     20          1           0       -2.556309   -1.904829   -0.859992
 ---------------------------------------------------------------------
                    Distance matrix (angstroms):
                    1          2          3          4          5
     1  N    0.000000
     2  S    1.527180   0.000000
     3  C    2.816780   1.838475   0.000000
     4  C    3.877736   2.780717   1.381833   0.000000
     5  C    5.060885   4.082212   2.398869   1.384501   0.000000
     6  C    5.392476   4.610806   2.773154   2.399014   1.386203
     7  C    4.696895   4.123074   2.414426   2.778785   2.404905
     8  C    3.385167   2.827757   1.381643   2.381387   2.749931
     9  F    3.175597   3.048452   2.360514   3.615698   4.102922
    10  C    2.850984   1.834546   2.765036   3.745087   4.880116
    11  N    2.570369   1.521795   2.721591   2.978748   4.357970
    12  H    1.006085   2.155199   3.016385   4.254270   5.279818
    13  H    4.020607   2.840125   2.109518   1.079485   2.163043
    14  H    5.941036   4.918789   3.375452   2.138715   1.078963
    15  H    6.439075   5.689916   3.852371   3.378073   2.142276
    16  H    5.361697   4.960764   3.383310   3.857148   3.392192
    17  H    3.136847   2.423595   2.887835   4.049186   4.989707
    18  H    3.700618   2.381967   2.898840   3.535542   4.596082
    19  H    3.069978   2.397764   3.735004   4.690591   5.895956
    20  H    2.612262   2.129358   3.394525   3.598400   4.940761
                    6          7          8          9         10
     6  C    0.000000
     7  C    1.384954   0.000000
     8  C    2.380711   1.383080   0.000000
     9  F    3.613632   2.357091   1.353025   0.000000
    10  C    5.220665   4.579164   3.336362   3.226984   0.000000
    11  N    5.261773   5.133578   4.011944   4.498329   2.683139
    12  H    5.350685   4.437030   3.150934   2.585495   3.076151
    13  H    3.392268   3.857686   3.345654   4.467321   3.900102
    14  H    2.141009   3.381494   3.828893   5.181880   5.737540
    15  H    1.079217   2.133436   3.359501   4.486149   6.248705
    16  H    2.156839   1.078597   2.133468   2.583415   5.258279
    17  H    5.035405   4.166758   2.976042   2.546082   1.083365
    18  H    5.069282   4.658595   3.604531   3.807722   1.082280
    19  H    6.285802   5.619424   4.333126   4.053804   1.083587
    20  H    5.872553   5.762669   4.647413   5.079343   3.506801
                   11         12         13         14         15
    11  N    0.000000
    12  H    3.461418   0.000000
    13  H    2.459410   4.617115   0.000000
    14  H    4.925064   6.248955   2.500423   0.000000
    15  H    6.303820   6.354784   4.291258   2.468757   0.000000
    16  H    6.096663   4.924691   4.935756   4.285901   2.482285
    17  H    3.597030   3.006349   4.460278   5.942932   6.011265
    18  H    2.779094   4.026247   3.587219   5.332976   6.048953
    19  H    2.977610   3.353425   4.699338   6.720183   7.322456
    20  H    1.004888   3.604334   3.003856   5.444554   6.898016
                   16         17         18         19         20
    16  H    0.000000
    17  H    4.660375   0.000000
    18  H    5.412963   1.790008   0.000000
    19  H    6.263374   1.782354   1.780139   0.000000
    20  H    6.714590   4.385279   3.736368   3.631430   0.000000
 Stoichiometry    C7H9FN2S
 Framework group  C1[X(C7H9FN2S)]
 Deg. of freedom    54
 Full point group                 C1      NOp   1
 Largest Abelian subgroup         C1      NOp   1
 Largest concise Abelian subgroup C1      NOp   1
                         Standard orientation:                         
 ---------------------------------------------------------------------
 Center     Atomic      Atomic             Coordinates (Angstroms)
 Number     Number       Type             X           Y           Z
 ---------------------------------------------------------------------
      1          7           0       -2.079216    0.600016   -1.308502
      2         16           0       -1.542727   -0.200737   -0.123913
      3          6           0        0.293394   -0.225249   -0.034175
      4          6           0        0.940246   -1.445577    0.008783
      5          6           0        2.323300   -1.501489    0.038378
      6          6           0        3.064072   -0.329988    0.018329
      7          6           0        2.429464    0.900185   -0.026893
      8          6           0        1.047017    0.932603   -0.053348
      9          9           0        0.420304    2.131259   -0.086983
     10          6           0       -1.859116    0.520744    1.532867
     11          7           0       -2.031603   -1.639900   -0.048619
     12          1           0       -1.751131    1.549474   -1.364159
     13          1           0        0.326856   -2.333765    0.021544
     14          1           0        2.823684   -2.456706    0.074944
     15          1           0        4.142371   -0.369974    0.037847
     16          1           0        2.985069    1.824529   -0.043050
     17          1           0       -1.356380    1.476854    1.615275
     18          1           0       -1.481815   -0.189359    2.257248
     19          1           0       -2.930552    0.641321    1.640784
     20          1           0       -2.511736   -1.940097   -0.878772
 ---------------------------------------------------------------------
 Rotational constants (GHZ):           1.6992857           0.7959084           0.6312641
 Standard basis: def2SVP (5D, 7F)
 There are   214 symmetry adapted cartesian basis functions of A   symmetry.
 There are   203 symmetry adapted basis functions of A   symmetry.
   203 basis functions,   350 primitive gaussians,   214 cartesian basis functions
    45 alpha electrons       45 beta electrons
       nuclear repulsion energy       736.4793440898 Hartrees.
 NAtoms=   20 NActive=   20 NUniq=   20 SFac= 1.00D+00 NAtFMM=   60 NAOKFM=F Big=F
 Integral buffers will be    131072 words long.
 Raffenetti 2 integral format.
 Two-electron integral symmetry is turned on.
 Nuclear repulsion after empirical dispersion term =      736.4573669309 Hartrees.
 One-electron integrals computed using PRISM.
   1 Symmetry operations used in ECPInt.
 ECPInt:  NShTT=    4560 NPrTT=   17016 LenC2=    4467 LenP2D=   12642.
 LDataN:  DoStor=T MaxTD1= 4 Len=   56
 NBasis=   203 RedAO= T EigKep=  2.32D-04  NBF=   203
 NBsUse=   203 1.00D-06 EigRej= -1.00D+00 NBFU=   203
 ExpMin= 1.22D-01 ExpMax= 9.18D+03 ExpMxC= 1.38D+03 IAcc=3 IRadAn=         5 AccDes= 0.00D+00
 Harris functional with IExCor= 1009 and IRadAn=       5 diagonalized for initial guess.
 HarFok:  IExCor= 1009 AccDes= 0.00D+00 IRadAn=         5 IDoV= 1 UseB2=F ITyADJ=14
 ICtDFT=  3500011 ScaDFX=  1.000000  1.000000  1.000000  1.000000
 FoFCou: FMM=F IPFlag=           0 FMFlag=      100000 FMFlg1=           0
         NFxFlg=           0 DoJE=T BraDBF=F KetDBF=T FulRan=T
         wScrn=  0.000000 ICntrl=       500 IOpCl=  0 I1Cent=   200000004 NGrid=           0
         NMat0=    1 NMatS0=      1 NMatT0=    0 NMatD0=    1 NMtDS0=    0 NMtDT0=    0
 Petite list used in FoFCou.
 Requested convergence on RMS density matrix=1.00D-08 within 128 cycles.
 Requested convergence on MAX density matrix=1.00D-06.
 Requested convergence on             energy=1.00D-06.
 No special actions if energy rises.
 Integral accuracy reduced to 1.0D-05 until final iterations.
 Initial convergence to 1.0D-05 achieved.  Increase integral accuracy.
 SCF Done:  E(RPBE1PBE) =  -878.414693367     A.U. after   15 cycles
            NFock= 15  Conv=0.69D-08     -V/T= 2.0057
 DoSCS=F DFT=T ScalE2(SS,OS)=  1.000000  1.000000
 Range of M.O.s used for correlation:     1   203
 NBasis=   203 NAE=    45 NBE=    45 NFC=     0 NFV=     0
 NROrb=    203 NOA=    45 NOB=    45 NVA=   158 NVB=   158

 **** Warning!!: The largest alpha MO coefficient is  0.11553718D+02

   1 Symmetry operations used in ECPInt.
 ECPInt:  NShTT=    4560 NPrTT=   17016 LenC2=    4467 LenP2D=   12642.
 LDataN:  DoStor=T MaxTD1= 5 Len=  102
 Symmetrizing basis deriv contribution to polar:
 IMax=3 JMax=2 DiffMx= 0.00D+00
 G2DrvN: will do    21 centers at a time, making    1 passes.
 Calling FoFCou, ICntrl=  3107 FMM=F I1Cent=   0 AccDes= 0.00D+00.
 End of G2Drv F.D. properties file   721 does not exist.
 End of G2Drv F.D. properties file   722 does not exist.
 End of G2Drv F.D. properties file   788 does not exist.
          IDoAtm=11111111111111111111
          Differentiating once with respect to electric field.
                with respect to dipole field.
          Differentiating once with respect to nuclear coordinates.
 Keep R1 ints in memory in canonical form, NReq=231038668.
          There are    63 degrees of freedom in the 1st order CPHF.  IDoFFX=6 NUNeed=     3.
     60 vectors produced by pass  0 Test12= 1.13D-14 1.59D-09 XBig12= 1.23D+02 4.87D+00.
 AX will form    60 AO Fock derivatives at one time.
     60 vectors produced by pass  1 Test12= 1.13D-14 1.59D-09 XBig12= 2.35D+01 1.01D+00.
     60 vectors produced by pass  2 Test12= 1.13D-14 1.59D-09 XBig12= 1.78D-01 4.91D-02.
     60 vectors produced by pass  3 Test12= 1.13D-14 1.59D-09 XBig12= 8.11D-04 3.32D-03.
     60 vectors produced by pass  4 Test12= 1.13D-14 1.59D-09 XBig12= 3.12D-06 2.25D-04.
     50 vectors produced by pass  5 Test12= 1.13D-14 1.59D-09 XBig12= 4.91D-09 6.85D-06.
     14 vectors produced by pass  6 Test12= 1.13D-14 1.59D-09 XBig12= 5.42D-12 2.28D-07.
      3 vectors produced by pass  7 Test12= 1.13D-14 1.59D-09 XBig12= 4.44D-15 7.48D-09.
 InvSVY:  IOpt=1 It=  1 EMax= 1.07D-14
 Solved reduced A of dimension   367 with    63 vectors.
 Isotropic polarizability for W=    0.000000      103.04 Bohr**3.
 End of Minotr F.D. properties file   721 does not exist.
 End of Minotr F.D. properties file   722 does not exist.
 End of Minotr F.D. properties file   788 does not exist.

 **********************************************************************

            Population analysis using the SCF Density.

 **********************************************************************

 Orbital symmetries:
       Occupied  (A) (A) (A) (A) (A) (A) (A) (A) (A) (A) (A) (A)
                 (A) (A) (A) (A) (A) (A) (A) (A) (A) (A) (A) (A)
                 (A) (A) (A) (A) (A) (A) (A) (A) (A) (A) (A) (A)
                 (A) (A) (A) (A) (A) (A) (A) (A) (A)
       Virtual   (A) (A) (A) (A) (A) (A) (A) (A) (A) (A) (A) (A)
                 (A) (A) (A) (A) (A) (A) (A) (A) (A) (A) (A) (A)
                 (A) (A) (A) (A) (A) (A) (A) (A) (A) (A) (A) (A)
                 (A) (A) (A) (A) (A) (A) (A) (A) (A) (A) (A) (A)
                 (A) (A) (A) (A) (A) (A) (A) (A) (A) (A) (A) (A)
                 (A) (A) (A) (A) (A) (A) (A) (A) (A) (A) (A) (A)
                 (A) (A) (A) (A) (A) (A) (A) (A) (A) (A) (A) (A)
                 (A) (A) (A) (A) (A) (A) (A) (A) (A) (A) (A) (A)
                 (A) (A) (A) (A) (A) (A) (A) (A) (A) (A) (A) (A)
                 (A) (A) (A) (A) (A) (A) (A) (A) (A) (A) (A) (A)
                 (A) (A) (A) (A) (A) (A) (A) (A) (A) (A) (A) (A)
                 (A) (A) (A) (A) (A) (A) (A) (A) (A) (A) (A) (A)
                 (A) (A) (A) (A) (A) (A) (A) (A) (A) (A) (A) (A)
                 (A) (A)
 The electronic state is 1-A.
 Alpha  occ. eigenvalues --  -89.18676 -24.80861 -14.34692 -14.33915 -10.34266
 Alpha  occ. eigenvalues --  -10.26870 -10.26306 -10.26099 -10.26019 -10.25926
 Alpha  occ. eigenvalues --  -10.25441  -8.16092  -6.10216  -6.10139  -6.10094
 Alpha  occ. eigenvalues --   -1.26048  -1.00971  -0.90731  -0.85210  -0.80187
 Alpha  occ. eigenvalues --   -0.78733  -0.76466  -0.67120  -0.65533  -0.62317
 Alpha  occ. eigenvalues --   -0.57966  -0.53711  -0.53380  -0.52105  -0.50998
 Alpha  occ. eigenvalues --   -0.49444  -0.47643  -0.46952  -0.45030  -0.43918
 Alpha  occ. eigenvalues --   -0.43649  -0.40707  -0.39943  -0.38563  -0.31253
 Alpha  occ. eigenvalues --   -0.29975  -0.28286  -0.27861  -0.25438  -0.24724
 Alpha virt. eigenvalues --   -0.03535  -0.01970   0.04127   0.07589   0.07671
 Alpha virt. eigenvalues --    0.08468   0.10046   0.10917   0.11343   0.12869
 Alpha virt. eigenvalues --    0.13759   0.14457   0.14971   0.15552   0.17346
 Alpha virt. eigenvalues --    0.20169   0.21081   0.27664   0.28490   0.30178
 Alpha virt. eigenvalues --    0.32529   0.33421   0.38517   0.40105   0.40664
 Alpha virt. eigenvalues --    0.42275   0.43227   0.46110   0.46457   0.47790
 Alpha virt. eigenvalues --    0.49045   0.51478   0.52796   0.53721   0.54153
 Alpha virt. eigenvalues --    0.55966   0.57116   0.60577   0.62164   0.63238
 Alpha virt. eigenvalues --    0.63900   0.65220   0.65929   0.66766   0.66991
 Alpha virt. eigenvalues --    0.67828   0.68543   0.69738   0.70526   0.72836
 Alpha virt. eigenvalues --    0.73362   0.73731   0.74767   0.76028   0.77035
 Alpha virt. eigenvalues --    0.79920   0.81140   0.81768   0.83815   0.84993
 Alpha virt. eigenvalues --    0.86129   0.88936   0.92183   0.94349   0.96808
 Alpha virt. eigenvalues --    1.01029   1.01790   1.04411   1.05493   1.07543
 Alpha virt. eigenvalues --    1.11446   1.15644   1.17218   1.17969   1.20199
 Alpha virt. eigenvalues --    1.22330   1.23208   1.24121   1.26712   1.28642
 Alpha virt. eigenvalues --    1.30606   1.32254   1.35434   1.40719   1.46423
 Alpha virt. eigenvalues --    1.48938   1.49116   1.50896   1.52593   1.54097
 Alpha virt. eigenvalues --    1.57127   1.65975   1.68694   1.69399   1.70620
 Alpha virt. eigenvalues --    1.71263   1.72730   1.75616   1.76485   1.76896
 Alpha virt. eigenvalues --    1.78041   1.78322   1.80585   1.84191   1.86933
 Alpha virt. eigenvalues --    1.91702   1.92573   1.95072   1.97892   1.98723
 Alpha virt. eigenvalues --    2.00100   2.01323   2.04395   2.10827   2.14696
 Alpha virt. eigenvalues --    2.15738   2.16784   2.18735   2.18860   2.22119
 Alpha virt. eigenvalues --    2.24667   2.27920   2.28381   2.29786   2.32698
 Alpha virt. eigenvalues --    2.34957   2.38392   2.43248   2.44004   2.44632
 Alpha virt. eigenvalues --    2.51163   2.52014   2.58053   2.59591   2.61136
 Alpha virt. eigenvalues --    2.61525   2.63977   2.66739   2.72715   2.74322
 Alpha virt. eigenvalues --    2.75400   2.82586   2.83662   2.86282   2.90165
 Alpha virt. eigenvalues --    2.94520   2.98033   2.98980   3.07153   3.07556
 Alpha virt. eigenvalues --    3.11742   3.14645   3.26438   3.29636   3.32519
 Alpha virt. eigenvalues --    3.52895   3.55444   3.87535
          Condensed to atoms (all electrons):
               1          2          3          4          5          6
     1  N    6.893700   0.343964  -0.030446   0.000651  -0.000047  -0.000032
     2  S    0.343964  14.590906   0.027215  -0.027324   0.005203  -0.000195
     3  C   -0.030446   0.027215   6.285800   0.260118   0.117735  -0.198528
     4  C    0.000651  -0.027324   0.260118   5.077617   0.206564   0.123771
     5  C   -0.000047   0.005203   0.117735   0.206564   5.164469   0.223676
     6  C   -0.000032  -0.000195  -0.198528   0.123771   0.223676   5.176135
     7  C    0.000013   0.000740   0.060684  -0.133223   0.098435   0.189160
     8  C   -0.005299  -0.035376  -0.014484   0.108972  -0.164220   0.153198
     9  F   -0.002666   0.004207  -0.091793   0.004084  -0.000189   0.004852
    10  C   -0.044396   0.278555  -0.125578  -0.001286  -0.000176  -0.000147
    11  N   -0.066212   0.388355  -0.084188  -0.004040   0.002156  -0.000069
    12  H    0.318726  -0.000920  -0.009286  -0.000896  -0.000003  -0.000039
    13  H    0.000874  -0.013503  -0.058166   0.430395  -0.060412   0.012491
    14  H    0.000002  -0.000097   0.018126  -0.073634   0.460482  -0.075768
    15  H   -0.000000   0.000018  -0.001945   0.013958  -0.065775   0.449585
    16  H    0.000012  -0.000060   0.023866  -0.003527   0.015277  -0.073524
    17  H    0.000434  -0.012608   0.002271   0.000193  -0.000004  -0.000006
    18  H    0.003460  -0.007850   0.003473   0.000710   0.000223   0.000015
    19  H    0.004364  -0.005975   0.008169   0.000059  -0.000002   0.000004
    20  H    0.005805  -0.012634   0.003079   0.000872  -0.000090   0.000010
               7          8          9         10         11         12
     1  N    0.000013  -0.005299  -0.002666  -0.044396  -0.066212   0.318726
     2  S    0.000740  -0.035376   0.004207   0.278555   0.388355  -0.000920
     3  C    0.060684  -0.014484  -0.091793  -0.125578  -0.084188  -0.009286
     4  C   -0.133223   0.108972   0.004084  -0.001286  -0.004040  -0.000896
     5  C    0.098435  -0.164220  -0.000189  -0.000176   0.002156  -0.000003
     6  C    0.189160   0.153198   0.004852  -0.000147  -0.000069  -0.000039
     7  C    5.240993   0.279808  -0.061817  -0.000738   0.000036   0.000781
     8  C    0.279808   5.072047   0.364499  -0.011277   0.006349   0.004198
     9  F   -0.061817   0.364499   8.981768  -0.003545   0.000015   0.007842
    10  C   -0.000738  -0.011277  -0.003545   5.006806  -0.083926  -0.004426
    11  N    0.000036   0.006349   0.000015  -0.083926   6.884606   0.004346
    12  H    0.000781   0.004198   0.007842  -0.004426   0.004346   0.558065
    13  H   -0.002209   0.016383  -0.000043   0.001159   0.038964  -0.000146
    14  H    0.015266  -0.002369   0.000003   0.000012  -0.000009   0.000000
    15  H   -0.066112   0.014475  -0.000058  -0.000000   0.000000   0.000000
    16  H    0.450412  -0.074924   0.000853   0.000037   0.000001  -0.000009
    17  H    0.000707   0.000434   0.011446   0.344442   0.005352   0.000659
    18  H   -0.000066   0.000016   0.000044   0.353109   0.007871  -0.000130
    19  H   -0.000003   0.000219   0.000077   0.359317   0.003250  -0.000045
    20  H   -0.000018  -0.000380   0.000002   0.005500   0.335976  -0.000257
              13         14         15         16         17         18
     1  N    0.000874   0.000002  -0.000000   0.000012   0.000434   0.003460
     2  S   -0.013503  -0.000097   0.000018  -0.000060  -0.012608  -0.007850
     3  C   -0.058166   0.018126  -0.001945   0.023866   0.002271   0.003473
     4  C    0.430395  -0.073634   0.013958  -0.003527   0.000193   0.000710
     5  C   -0.060412   0.460482  -0.065775   0.015277  -0.000004   0.000223
     6  C    0.012491  -0.075768   0.449585  -0.073524  -0.000006   0.000015
     7  C   -0.002209   0.015266  -0.066112   0.450412   0.000707  -0.000066
     8  C    0.016383  -0.002369   0.014475  -0.074924   0.000434   0.000016
     9  F   -0.000043   0.000003  -0.000058   0.000853   0.011446   0.000044
    10  C    0.001159   0.000012  -0.000000   0.000037   0.344442   0.353109
    11  N    0.038964  -0.000009   0.000000   0.000001   0.005352   0.007871
    12  H   -0.000146   0.000000   0.000000  -0.000009   0.000659  -0.000130
    13  H    0.608050  -0.010481  -0.000223   0.000026  -0.000098   0.000381
    14  H   -0.010481   0.655143  -0.011855  -0.000202  -0.000001  -0.000006
    15  H   -0.000223  -0.011855   0.650414  -0.012512   0.000001  -0.000000
    16  H    0.000026  -0.000202  -0.012512   0.645611  -0.000039  -0.000002
    17  H   -0.000098  -0.000001   0.000001  -0.000039   0.592320  -0.011799
    18  H    0.000381  -0.000006  -0.000000  -0.000002  -0.011799   0.575192
    19  H   -0.000071  -0.000000   0.000000  -0.000002  -0.008015  -0.007111
    20  H   -0.000746  -0.000002   0.000000  -0.000000  -0.000285  -0.000723
              19         20
     1  N    0.004364   0.005805
     2  S   -0.005975  -0.012634
     3  C    0.008169   0.003079
     4  C    0.000059   0.000872
     5  C   -0.000002  -0.000090
     6  C    0.000004   0.000010
     7  C   -0.000003  -0.000018
     8  C    0.000219  -0.000380
     9  F    0.000077   0.000002
    10  C    0.359317   0.005500
    11  N    0.003250   0.335976
    12  H   -0.000045  -0.000257
    13  H   -0.000071  -0.000746
    14  H   -0.000000  -0.000002
    15  H    0.000000   0.000000
    16  H   -0.000002  -0.000000
    17  H   -0.008015  -0.000285
    18  H   -0.007111  -0.000723
    19  H    0.554121   0.000107
    20  H    0.000107   0.525608
 Mulliken charges:
               1
     1  N   -0.422905
     2  S    0.477379
     3  C   -0.196121
     4  C    0.015967
     5  C   -0.003302
     6  C    0.015411
     7  C   -0.072846
     8  C    0.287733
     9  F   -0.219581
    10  C   -0.073443
    11  N   -0.438833
    12  H    0.121539
    13  H    0.037376
    14  H    0.025390
    15  H    0.030030
    16  H    0.028706
    17  H    0.074597
    18  H    0.083192
    19  H    0.091538
    20  H    0.138174
 Sum of Mulliken charges =  -0.00000
 Mulliken charges with hydrogens summed into heavy atoms:
               1
     1  N   -0.301366
     2  S    0.477379
     3  C   -0.196121
     4  C    0.053343
     5  C    0.022088
     6  C    0.045441
     7  C   -0.044140
     8  C    0.287733
     9  F   -0.219581
    10  C    0.175883
    11  N   -0.300658
 APT charges:
               1
     1  N   -0.945467
     2  S    1.910863
     3  C   -0.426825
     4  C   -0.041811
     5  C   -0.084902
     6  C    0.024116
     7  C   -0.135778
     8  C    0.507473
     9  F   -0.487881
    10  C   -0.305970
    11  N   -0.896537
    12  H    0.243439
    13  H    0.115614
    14  H    0.042679
    15  H    0.053048
    16  H    0.066447
    17  H    0.044273
    18  H    0.036770
    19  H    0.054148
    20  H    0.226302
 Sum of APT charges =  -0.00000
 APT charges with hydrogens summed into heavy atoms:
               1
     1  N   -0.702028
     2  S    1.910863
     3  C   -0.426825
     4  C    0.073803
     5  C   -0.042224
     6  C    0.077164
     7  C   -0.069331
     8  C    0.507473
     9  F   -0.487881
    10  C   -0.170778
    11  N   -0.670235
 Electronic spatial extent (au):  <R**2>=           1860.5349
 Charge=             -0.0000 electrons
 Dipole moment (field-independent basis, Debye):
    X=              3.0930    Y=              1.0527    Z=              1.6711  Tot=              3.6698
 Quadrupole moment (field-independent basis, Debye-Ang):
   XX=            -67.6527   YY=            -69.7393   ZZ=            -73.6083
   XY=             -3.4687   XZ=             -3.7059   YZ=              2.7083
 Traceless Quadrupole moment (field-independent basis, Debye-Ang):
   XX=              2.6807   YY=              0.5941   ZZ=             -3.2749
   XY=             -3.4687   XZ=             -3.7059   YZ=              2.7083
 Octapole moment (field-independent basis, Debye-Ang**2):
  XXX=             31.4854  YYY=             14.3754  ZZZ=              6.6796  XYY=              5.7531
  XXY=              8.3816  XXZ=              8.6991  XZZ=             -6.5983  YZZ=              6.1865
  YYZ=             -8.5139  XYZ=             -8.7660
 Hexadecapole moment (field-independent basis, Debye-Ang**3):
 XXXX=          -1469.0369 YYYY=           -589.8353 ZZZZ=           -267.9668 XXXY=              8.8479
 XXXZ=            -21.8107 YYYX=            -14.6461 YYYZ=              5.9246 ZZZX=            -14.8688
 ZZZY=             -1.4162 XXYY=           -333.2502 XXZZ=           -328.2589 YYZZ=           -138.4169
 XXYZ=             22.4260 YYXZ=             20.5580 ZZXY=              8.6911
 N-N= 7.364573669309D+02 E-N=-3.538841175156D+03  KE= 8.734685074476D+02
  Exact polarizability:     132.154      -1.840     106.858       2.292      -1.388      70.104
 Approx polarizability:     182.289      -1.044     184.538       9.339      -8.733     107.860
   1 Symmetry operations used in ECPInt.
 ECPInt:  NShTT=    4560 NPrTT=   17016 LenC2=    4467 LenP2D=   12642.
 LDataN:  DoStor=T MaxTD1= 6 Len=  172
 Calling FoFJK, ICntrl=    100127 FMM=F ISym2X=0 I1Cent= 0 IOpClX= 0 NMat=1 NMatS=1 NMatT=0.
 ***** Axes restored to original set *****
 -------------------------------------------------------------------
 Center     Atomic                   Forces (Hartrees/Bohr)
 Number     Number              X              Y              Z
 -------------------------------------------------------------------
      1        7          -0.005652435   -0.002971871   -0.004213025
      2       16          -0.002320726    0.002441910    0.005675300
      3        6          -0.010318318    0.003481702    0.000192483
      4        6           0.000304367   -0.001008267   -0.000384287
      5        6           0.000439327    0.000463821   -0.000600887
      6        6          -0.000870839   -0.000550865    0.000049545
      7        6          -0.004383912    0.000679914   -0.000018425
      8        6          -0.004141266    0.015844182   -0.000489259
      9        9           0.003471443   -0.008790857    0.000129572
     10        6           0.004352378   -0.006543278   -0.015364520
     11        7           0.004659142   -0.008680901    0.022106240
     12        1           0.006783657    0.011217857    0.001433263
     13        1          -0.006710724   -0.008310737    0.000333804
     14        1           0.003954636   -0.008498032    0.000110998
     15        1           0.009460151   -0.000406818    0.000178647
     16        1           0.004269538    0.008370766   -0.000151145
     17        1           0.006062838    0.008652028   -0.001002287
     18        1           0.003815555   -0.006979430    0.006921665
     19        1          -0.010470312   -0.000585582   -0.002474084
     20        1          -0.002704499    0.002174458   -0.012433597
 -------------------------------------------------------------------
 Cartesian Forces:  Max     0.022106240 RMS     0.006513290
 FormGI is forming the generalized inverse of G from B-inverse, IUseBI=4.

 GradGradGradGradGradGradGradGradGradGradGradGradGradGradGradGradGradGrad
 Berny optimization.
 Internal  Forces:  Max     0.013527235 RMS     0.004763647
 Search for a local minimum.
 Step number   1 out of a maximum of  107
 All quantities printed in internal units (Hartrees-Bohrs-Radians)
 Mixed Optimization -- RFO/linear search
 Second derivative matrix not updated -- analytic derivatives used.
 ITU=  0
     Eigenvalues ---   -0.00143   0.00269   0.00653   0.00673   0.01173
     Eigenvalues ---    0.01856   0.01867   0.02251   0.02510   0.02667
     Eigenvalues ---    0.02952   0.03032   0.03687   0.03928   0.04053
     Eigenvalues ---    0.06488   0.07221   0.08123   0.09923   0.10199
     Eigenvalues ---    0.10492   0.10556   0.10695   0.11306   0.11742
     Eigenvalues ---    0.12163   0.12673   0.14940   0.14992   0.17299
     Eigenvalues ---    0.18206   0.18934   0.19458   0.20803   0.21749
     Eigenvalues ---    0.23021   0.33954   0.37969   0.38443   0.38708
     Eigenvalues ---    0.38882   0.39337   0.39425   0.39534   0.39752
     Eigenvalues ---    0.45500   0.47574   0.50261   0.50960   0.51817
     Eigenvalues ---    0.52529   0.54370   0.56225   0.56476
 RFO step:  Lambda=-9.28029486D-03 EMin=-1.42855116D-03
 Linear search not attempted -- first point.
 Iteration  1 RMS(Cart)=  0.08352279 RMS(Int)=  0.06202849
 Iteration  2 RMS(Cart)=  0.03474557 RMS(Int)=  0.02634576
 Iteration  3 RMS(Cart)=  0.02708443 RMS(Int)=  0.00208927
 Iteration  4 RMS(Cart)=  0.00192189 RMS(Int)=  0.00046779
 Iteration  5 RMS(Cart)=  0.00000546 RMS(Int)=  0.00046778
 Iteration  6 RMS(Cart)=  0.00000000 RMS(Int)=  0.00046778
 Variable       Old X    -DE/DX   Delta X   Delta X   Delta X     New X
                                 (Linear)    (Quad)   (Total)
    R1        2.88595   0.00620   0.00000   0.01789   0.01789   2.90385
    R2        1.90123   0.01279   0.00000   0.02857   0.02857   1.92980
    R3        3.47421  -0.00459   0.00000  -0.00374  -0.00374   3.47048
    R4        3.46679  -0.01353   0.00000  -0.10339  -0.10339   3.36339
    R5        2.87578   0.00584   0.00000   0.03531   0.03531   2.91109
    R6        2.61129   0.00906   0.00000   0.01549   0.01549   2.62678
    R7        2.61093   0.00713   0.00000   0.01581   0.01581   2.62674
    R8        2.61633   0.00911   0.00000   0.01767   0.01767   2.63400
    R9        2.03993   0.01067   0.00000   0.02735   0.02735   2.06728
   R10        2.61954   0.00980   0.00000   0.01549   0.01550   2.63504
   R11        2.03894   0.00937   0.00000   0.02304   0.02304   2.06198
   R12        2.61718   0.01025   0.00000   0.01890   0.01890   2.63609
   R13        2.03943   0.00947   0.00000   0.02329   0.02329   2.06272
   R14        2.61364   0.00372   0.00000   0.00596   0.00596   2.61960
   R15        2.03825   0.00936   0.00000   0.02326   0.02326   2.06152
   R16        2.55685  -0.00942   0.00000  -0.02349  -0.02349   2.53336
   R17        2.04726   0.01038   0.00000   0.02519   0.02519   2.07245
   R18        2.04521   0.01054   0.00000   0.02597   0.02597   2.07119
   R19        2.04768   0.00997   0.00000   0.02464   0.02464   2.07233
   R20        1.89896   0.01099   0.00000   0.03420   0.03420   1.93317
    A1        2.00774  -0.00588   0.00000  -0.07418  -0.07418   1.93356
    A2        1.97762  -0.00366   0.00000  -0.07873  -0.07917   1.89845
    A3        2.01941  -0.00273   0.00000   0.02059   0.02069   2.04010
    A4        2.00577   0.00670   0.00000   0.03129   0.03181   2.03758
    A5        1.70460   0.00245   0.00000   0.02290   0.02414   1.72874
    A6        1.88159  -0.00072   0.00000   0.08508   0.08618   1.96777
    A7        1.84610  -0.00277   0.00000  -0.07865  -0.07885   1.76725
    A8        2.07237   0.00045   0.00000  -0.01601  -0.01601   2.05635
    A9        2.13283  -0.00256   0.00000   0.01146   0.01146   2.14428
   A10        2.07736   0.00210   0.00000   0.00436   0.00435   2.08171
   A11        2.09896  -0.00198   0.00000  -0.00304  -0.00304   2.09592
   A12        2.04992   0.00037   0.00000   0.00102   0.00102   2.05093
   A13        2.13430   0.00161   0.00000   0.00201   0.00201   2.13630
   A14        2.09369  -0.00067   0.00000  -0.00263  -0.00264   2.09106
   A15        2.09411   0.00006   0.00000   0.00084   0.00083   2.09495
   A16        2.09538   0.00062   0.00000   0.00180   0.00180   2.09717
   A17        2.10165   0.00048   0.00000   0.00270   0.00270   2.10435
   A18        2.09712  -0.00013   0.00000  -0.00072  -0.00072   2.09640
   A19        2.08441  -0.00035   0.00000  -0.00199  -0.00199   2.08242
   A20        2.07082  -0.00029   0.00000  -0.00028  -0.00028   2.07054
   A21        2.12429   0.00098   0.00000   0.00427   0.00427   2.12857
   A22        2.08807  -0.00069   0.00000  -0.00399  -0.00399   2.08408
   A23        2.12386   0.00036   0.00000  -0.00108  -0.00109   2.12277
   A24        2.08301  -0.00124   0.00000  -0.00464  -0.00463   2.07838
   A25        2.07627   0.00088   0.00000   0.00572   0.00572   2.08199
   A26        1.91319  -0.00232   0.00000  -0.02651  -0.02687   1.88632
   A27        1.86116   0.00135   0.00000   0.03769   0.03799   1.89915
   A28        1.87993  -0.00575   0.00000  -0.04453  -0.04480   1.83513
   A29        1.94589   0.00090   0.00000   0.00615   0.00635   1.95224
   A30        1.93164   0.00349   0.00000   0.01671   0.01561   1.94725
   A31        1.92950   0.00192   0.00000   0.00867   0.00915   1.93865
   A32        1.97701  -0.01232   0.00000  -0.13617  -0.13617   1.84084
    D1       -0.95908   0.00142   0.00000   0.23870   0.23841  -0.72067
    D2        0.98922   0.00028   0.00000   0.22746   0.22770   1.21692
    D3       -3.13321  -0.00008   0.00000   0.16200   0.16204  -2.97117
    D4       -2.18087  -0.00263   0.00000  -0.03889  -0.03823  -2.21911
    D5        0.92221  -0.00302   0.00000  -0.04479  -0.04412   0.87809
    D6        1.96758   0.00068   0.00000  -0.04264  -0.04216   1.92542
    D7       -1.21253   0.00030   0.00000  -0.04854  -0.04805  -1.26057
    D8        0.05908   0.00291   0.00000   0.01177   0.01061   0.06969
    D9       -3.12103   0.00253   0.00000   0.00587   0.00473  -3.11630
   D10       -1.09821   0.00330   0.00000   0.04076   0.04056  -1.05765
   D11        3.07616   0.00271   0.00000   0.02587   0.02597   3.10214
   D12        1.00465   0.00272   0.00000   0.01880   0.01943   1.02407
   D13        1.00534  -0.00070   0.00000  -0.02957  -0.02973   0.97561
   D14       -1.10348  -0.00129   0.00000  -0.04445  -0.04432  -1.14779
   D15        3.10819  -0.00128   0.00000  -0.05153  -0.05087   3.05733
   D16        2.94297  -0.00130   0.00000   0.04966   0.04890   2.99187
   D17        0.83416  -0.00189   0.00000   0.03478   0.03431   0.86847
   D18       -1.23735  -0.00188   0.00000   0.02770   0.02776  -1.20959
   D19        0.18732   0.00133   0.00000   0.52498   0.52643   0.71375
   D20       -2.03643   0.00173   0.00000   0.53596   0.53334  -1.50308
   D21        2.43738   0.00037   0.00000   0.51050   0.51167   2.94905
   D22        3.10956  -0.00053   0.00000  -0.01501  -0.01497   3.09459
   D23       -0.03582  -0.00045   0.00000  -0.01877  -0.01874  -0.05456
   D24        0.00523  -0.00005   0.00000  -0.00948  -0.00949  -0.00425
   D25       -3.14014   0.00002   0.00000  -0.01324  -0.01326   3.12978
   D26       -3.10617   0.00034   0.00000   0.00971   0.00975  -3.09642
   D27        0.04576   0.00033   0.00000   0.00909   0.00913   0.05489
   D28       -0.00319  -0.00008   0.00000   0.00336   0.00335   0.00016
   D29       -3.13445  -0.00008   0.00000   0.00274   0.00273  -3.13172
   D30       -0.00550   0.00016   0.00000   0.00958   0.00957   0.00407
   D31        3.13832   0.00005   0.00000   0.00388   0.00387  -3.14100
   D32        3.14007   0.00009   0.00000   0.01353   0.01353  -3.12958
   D33        0.00070  -0.00002   0.00000   0.00784   0.00784   0.00853
   D34        0.00364  -0.00013   0.00000  -0.00341  -0.00342   0.00022
   D35       -3.13790  -0.00012   0.00000  -0.00561  -0.00562   3.13967
   D36       -3.14018  -0.00002   0.00000   0.00229   0.00228  -3.13790
   D37        0.00147  -0.00001   0.00000   0.00009   0.00009   0.00156
   D38       -0.00156   0.00001   0.00000  -0.00265  -0.00265  -0.00421
   D39        3.14142   0.00008   0.00000  -0.00208  -0.00207   3.13936
   D40        3.13998  -0.00000   0.00000  -0.00046  -0.00047   3.13951
   D41       -0.00022   0.00007   0.00000   0.00011   0.00011  -0.00011
   D42        0.00136   0.00009   0.00000   0.00267   0.00269   0.00405
   D43        3.13266   0.00009   0.00000   0.00323   0.00325   3.13591
   D44        3.14159   0.00002   0.00000   0.00212   0.00212  -3.13947
   D45       -0.01030   0.00002   0.00000   0.00268   0.00269  -0.00761
         Item               Value     Threshold  Converged?
 Maximum Force            0.013527     0.000015     NO 
 RMS     Force            0.004764     0.000010     NO 
 Maximum Displacement     0.585642     0.000060     NO 
 RMS     Displacement     0.105449     0.000040     NO 
 Predicted change in Energy=-7.980080D-03
 GradGradGradGradGradGradGradGradGradGradGradGradGradGradGradGradGradGrad

                          Input orientation:                          
 ---------------------------------------------------------------------
 Center     Atomic      Atomic             Coordinates (Angstroms)
 Number     Number       Type             X           Y           Z
 ---------------------------------------------------------------------
      1          7           0       -2.026366    0.701804   -1.216971
      2         16           0       -1.578741   -0.177182   -0.038707
      3          6           0        0.256747   -0.224779   -0.000718
      4          6           0        0.873005   -1.470477    0.024778
      5          6           0        2.263521   -1.562865   -0.002544
      6          6           0        3.034536   -0.402009   -0.050598
      7          6           0        2.426412    0.853245   -0.071370
      8          6           0        1.042033    0.921161   -0.048385
      9          9           0        0.443950    2.120882   -0.061285
     10          6           0       -1.876251    0.457238    1.597386
     11          7           0       -2.213054   -1.577405    0.061799
     12          1           0       -1.440356    1.534878   -1.290733
     13          1           0        0.227764   -2.352528    0.073663
     14          1           0        2.746310   -2.541206    0.016944
     15          1           0        4.123873   -0.468487   -0.070344
     16          1           0        3.007483    1.775840   -0.106805
     17          1           0       -1.329863    1.402534    1.700412
     18          1           0       -1.545546   -0.287190    2.330688
     19          1           0       -2.960737    0.610358    1.652484
     20          1           0       -2.246401   -1.931396   -0.897410
 ---------------------------------------------------------------------
                    Distance matrix (angstroms):
                    1          2          3          4          5
     1  N    0.000000
     2  S    1.536649   0.000000
     3  C    2.747805   1.836498   0.000000
     4  C    3.829764   2.772670   1.390031   0.000000
     5  C    5.000669   4.084655   2.411975   1.393850   0.000000
     6  C    5.309572   4.618767   2.783883   2.412368   1.394403
     7  C    4.600279   4.135710   2.423752   2.796784   2.422572
     8  C    3.290711   2.841638   1.390009   2.398719   2.768487
     9  F    3.074386   3.061517   2.353898   3.617921   4.109049
    10  C    2.828949   1.779832   2.751139   3.707774   4.876301
    11  N    2.620095   1.540480   2.816634   3.088133   4.477062
    12  H    1.021205   2.125528   2.764180   4.014270   4.997415
    13  H    4.009461   2.829879   2.129246   1.093957   2.184876
    14  H    5.900686   4.929277   3.400598   2.157729   1.091153
    15  H    6.364728   5.710137   3.875423   3.403113   2.159437
    16  H    5.265515   4.985216   3.402980   3.887400   3.422178
    17  H    3.080139   2.362620   2.838894   3.989306   4.960450
    18  H    3.714186   2.372180   2.947475   3.544965   4.645461
    19  H    3.019136   2.321693   3.712511   4.655844   5.895328
    20  H    2.661631   2.064075   3.159486   3.285356   4.612591
                    6          7          8          9         10
     6  C    0.000000
     7  C    1.394958   0.000000
     8  C    2.391830   1.386235   0.000000
     9  F    3.616107   2.353118   1.340597   0.000000
    10  C    5.250713   4.631899   3.382332   3.301854   0.000000
    11  N    5.378791   5.239317   4.104944   4.555453   2.571232
    12  H    5.031314   4.111371   2.842945   2.324985   3.113285
    13  H    3.420225   3.889996   3.375644   4.480664   3.826669
    14  H    2.159583   3.410634   3.859639   5.200196   5.732062
    15  H    1.091542   2.151359   3.380731   4.499638   6.296013
    16  H    2.178742   1.090908   2.144034   2.587050   5.337962
    17  H    5.036903   4.189336   2.985950   2.601156   1.096694
    18  H    5.163415   4.779846   3.716943   3.934265   1.096025
    19  H    6.314165   5.661453   4.360244   4.100071   1.096628
    20  H    5.562770   5.501977   4.435282   4.935387   3.473699
                   11         12         13         14         15
    11  N    0.000000
    12  H    3.480332   0.000000
    13  H    2.560966   4.444786   0.000000
    14  H    5.052348   5.987708   2.526241   0.000000
    15  H    6.434579   6.038499   4.330129   2.490273   0.000000
    16  H    6.206987   4.609015   4.980244   4.326708   2.506922
    17  H    3.513561   2.996109   4.378698   5.916277   6.031545
    18  H    2.694083   4.055328   3.536157   5.371595   6.159556
    19  H    2.806353   3.439305   4.630109   6.721439   7.370464
    20  H    1.022987   3.580428   2.691064   5.112247   6.588211
                   16         17         18         19         20
    16  H    0.000000
    17  H    4.713593   0.000000
    18  H    5.561253   1.816297   0.000000
    19  H    6.330332   1.813723   1.807850   0.000000
    20  H    6.478576   4.324789   3.689882   3.670524   0.000000
 Stoichiometry    C7H9FN2S
 Framework group  C1[X(C7H9FN2S)]
 Deg. of freedom    54
 Full point group                 C1      NOp   1
 Largest Abelian subgroup         C1      NOp   1
 Largest concise Abelian subgroup C1      NOp   1
                         Standard orientation:                         
 ---------------------------------------------------------------------
 Center     Atomic      Atomic             Coordinates (Angstroms)
 Number     Number       Type             X           Y           Z
 ---------------------------------------------------------------------
      1          7           0       -1.957101    0.726234   -1.307986
      2         16           0       -1.548862   -0.176935   -0.133713
      3          6           0        0.284114   -0.214474   -0.026404
      4          6           0        0.907433   -1.456741   -0.005622
      5          6           0        2.298575   -1.540205    0.018346
      6          6           0        3.062923   -0.373986    0.026337
      7          6           0        2.447487    0.877774    0.010804
      8          6           0        1.062809    0.936909   -0.017817
      9          9           0        0.457483    2.133031   -0.026365
     10          6           0       -1.913027    0.417916    1.503766
     11          7           0       -2.176984   -1.582846   -0.089505
     12          1           0       -1.374399    1.564254   -1.340234
     13          1           0        0.266829   -2.343506   -0.001614
     14          1           0        2.786932   -2.515846    0.034086
     15          1           0        4.152647   -0.433511    0.046905
     16          1           0        3.023177    1.804380    0.018693
     17          1           0       -1.377441    1.363826    1.649162
     18          1           0       -1.605526   -0.341196    2.232094
     19          1           0       -2.999847    0.563276    1.520673
     20          1           0       -2.171218   -1.914880   -1.057091
 ---------------------------------------------------------------------
 Rotational constants (GHZ):           1.7055423           0.7940618           0.6290707
 Standard basis: def2SVP (5D, 7F)
 There are   214 symmetry adapted cartesian basis functions of A   symmetry.
 There are   203 symmetry adapted basis functions of A   symmetry.
   203 basis functions,   350 primitive gaussians,   214 cartesian basis functions
    45 alpha electrons       45 beta electrons
       nuclear repulsion energy       736.4218984461 Hartrees.
 NAtoms=   20 NActive=   20 NUniq=   20 SFac= 1.00D+00 NAtFMM=   60 NAOKFM=F Big=F
 Integral buffers will be    131072 words long.
 Raffenetti 2 integral format.
 Two-electron integral symmetry is turned on.
 Nuclear repulsion after empirical dispersion term =      736.3997978784 Hartrees.
 One-electron integrals computed using PRISM.
   1 Symmetry operations used in ECPInt.
 ECPInt:  NShTT=    4560 NPrTT=   17016 LenC2=    4467 LenP2D=   12670.
 LDataN:  DoStor=T MaxTD1= 4 Len=   56
 NBasis=   203 RedAO= T EigKep=  2.45D-04  NBF=   203
 NBsUse=   203 1.00D-06 EigRej= -1.00D+00 NBFU=   203
 Initial guess from the checkpoint file:  "SDI0152_1.chk"
 B after Tr=    -0.000000    0.000000   -0.000000
         Rot=    0.999779   -0.017537    0.008016    0.008424 Ang=  -2.41 deg.
 ExpMin= 1.22D-01 ExpMax= 9.18D+03 ExpMxC= 1.38D+03 IAcc=3 IRadAn=         5 AccDes= 0.00D+00
 Harris functional with IExCor= 1009 and IRadAn=       5 diagonalized for initial guess.
 HarFok:  IExCor= 1009 AccDes= 0.00D+00 IRadAn=         5 IDoV= 1 UseB2=F ITyADJ=14
 ICtDFT=  3500011 ScaDFX=  1.000000  1.000000  1.000000  1.000000
 FoFCou: FMM=F IPFlag=           0 FMFlag=      100000 FMFlg1=           0
         NFxFlg=           0 DoJE=T BraDBF=F KetDBF=T FulRan=T
         wScrn=  0.000000 ICntrl=       500 IOpCl=  0 I1Cent=   200000004 NGrid=           0
         NMat0=    1 NMatS0=      1 NMatT0=    0 NMatD0=    1 NMtDS0=    0 NMtDT0=    0
 Petite list used in FoFCou.
 Requested convergence on RMS density matrix=1.00D-08 within 128 cycles.
 Requested convergence on MAX density matrix=1.00D-06.
 Requested convergence on             energy=1.00D-06.
 No special actions if energy rises.
 Integral accuracy reduced to 1.0D-05 until final iterations.
 Initial convergence to 1.0D-05 achieved.  Increase integral accuracy.
 SCF Done:  E(RPBE1PBE) =  -878.420255948     A.U. after   14 cycles
            NFock= 14  Conv=0.88D-08     -V/T= 2.0059
 DoSCS=F DFT=T ScalE2(SS,OS)=  1.000000  1.000000
 Range of M.O.s used for correlation:     1   203
 NBasis=   203 NAE=    45 NBE=    45 NFC=     0 NFV=     0
 NROrb=    203 NOA=    45 NOB=    45 NVA=   158 NVB=   158
   1 Symmetry operations used in ECPInt.
 ECPInt:  NShTT=    4560 NPrTT=   17016 LenC2=    4467 LenP2D=   12670.
 LDataN:  DoStor=T MaxTD1= 5 Len=  102
 Symmetrizing basis deriv contribution to polar:
 IMax=3 JMax=2 DiffMx= 0.00D+00
 G2DrvN: will do    21 centers at a time, making    1 passes.
 Calling FoFCou, ICntrl=  3107 FMM=F I1Cent=   0 AccDes= 0.00D+00.
 End of G2Drv F.D. properties file   721 does not exist.
 End of G2Drv F.D. properties file   722 does not exist.
 End of G2Drv F.D. properties file   788 does not exist.
          IDoAtm=11111111111111111111
          Differentiating once with respect to electric field.
                with respect to dipole field.
          Differentiating once with respect to nuclear coordinates.
 Keep R1 ints in memory in canonical form, NReq=231038661.
          There are    63 degrees of freedom in the 1st order CPHF.  IDoFFX=6 NUNeed=     3.
     60 vectors produced by pass  0 Test12= 1.13D-14 1.59D-09 XBig12= 1.28D+02 4.66D+00.
 AX will form    60 AO Fock derivatives at one time.
     60 vectors produced by pass  1 Test12= 1.13D-14 1.59D-09 XBig12= 2.50D+01 8.18D-01.
     60 vectors produced by pass  2 Test12= 1.13D-14 1.59D-09 XBig12= 1.95D-01 4.60D-02.
     60 vectors produced by pass  3 Test12= 1.13D-14 1.59D-09 XBig12= 9.32D-04 3.11D-03.
     60 vectors produced by pass  4 Test12= 1.13D-14 1.59D-09 XBig12= 3.58D-06 2.18D-04.
     52 vectors produced by pass  5 Test12= 1.13D-14 1.59D-09 XBig12= 5.53D-09 7.70D-06.
     16 vectors produced by pass  6 Test12= 1.13D-14 1.59D-09 XBig12= 6.13D-12 2.44D-07.
      3 vectors produced by pass  7 Test12= 1.13D-14 1.59D-09 XBig12= 4.86D-15 6.77D-09.
 InvSVY:  IOpt=1 It=  1 EMax= 5.33D-15
 Solved reduced A of dimension   371 with    63 vectors.
 Isotropic polarizability for W=    0.000000      103.93 Bohr**3.
 End of Minotr F.D. properties file   721 does not exist.
 End of Minotr F.D. properties file   722 does not exist.
 End of Minotr F.D. properties file   788 does not exist.
   1 Symmetry operations used in ECPInt.
 ECPInt:  NShTT=    4560 NPrTT=   17016 LenC2=    4467 LenP2D=   12670.
 LDataN:  DoStor=T MaxTD1= 6 Len=  172
 Calling FoFJK, ICntrl=    100127 FMM=F ISym2X=0 I1Cent= 0 IOpClX= 0 NMat=1 NMatS=1 NMatT=0.
 ***** Axes restored to original set *****
 -------------------------------------------------------------------
 Center     Atomic                   Forces (Hartrees/Bohr)
 Number     Number              X              Y              Z
 -------------------------------------------------------------------
      1        7          -0.002258516    0.001680514    0.000929575
      2       16           0.001376286   -0.001421511   -0.001405957
      3        6          -0.002287239   -0.002798778    0.001071286
      4        6           0.000500110   -0.000195698   -0.000120479
      5        6          -0.000108524    0.000068213   -0.000227006
      6        6          -0.000222588    0.000015918    0.000024224
      7        6          -0.000280261   -0.000590668   -0.000106098
      8        6          -0.000776310    0.001471129   -0.000097932
      9        9           0.000683315   -0.000218176    0.000147521
     10        6           0.000149662    0.004004962    0.002115466
     11        7           0.004459618   -0.000977060   -0.002208328
     12        1           0.000942688    0.000139877   -0.000539307
     13        1           0.000055133   -0.000459638    0.000365679
     14        1           0.000195654   -0.000454950   -0.000023118
     15        1           0.000505314   -0.000028955    0.000014961
     16        1           0.000110039    0.000476405    0.000029491
     17        1          -0.000691490    0.001072513    0.000719018
     18        1           0.000275334   -0.000290369    0.000025602
     19        1          -0.000771645    0.000524826    0.000523402
     20        1          -0.001856580   -0.002018553   -0.001238002
 -------------------------------------------------------------------
 Cartesian Forces:  Max     0.004459618 RMS     0.001252444
 FormGI is forming the generalized inverse of G from B-inverse, IUseBI=4.

 GradGradGradGradGradGradGradGradGradGradGradGradGradGradGradGradGradGrad
 Berny optimization.
 Using GEDIIS/GDIIS optimizer.
 Internal  Forces:  Max     0.005178126 RMS     0.001201606
 Search for a local minimum.
 Step number   2 out of a maximum of  107
 All quantities printed in internal units (Hartrees-Bohrs-Radians)
 Mixed Optimization -- RFO/linear search
 Second derivative matrix not updated -- analytic derivatives used.
 DE= -5.56D-03 DEPred=-7.98D-03 R= 6.97D-01
 TightC=F SS=  1.41D+00  RLast= 1.03D+00 DXNew= 5.0454D-01 3.0763D+00
 Trust test= 6.97D-01 RLast= 1.03D+00 DXMaxT set to 5.05D-01
 ITU=  1  0
 Use linear search instead of GDIIS.
     Eigenvalues ---    0.00259   0.00589   0.00669   0.01061   0.01191
     Eigenvalues ---    0.01819   0.01837   0.02215   0.02454   0.02627
     Eigenvalues ---    0.02899   0.02947   0.03689   0.04021   0.04036
     Eigenvalues ---    0.07030   0.07596   0.08808   0.10282   0.10416
     Eigenvalues ---    0.10906   0.11614   0.11688   0.11849   0.12012
     Eigenvalues ---    0.12958   0.14225   0.15025   0.15340   0.18249
     Eigenvalues ---    0.19111   0.19683   0.20287   0.21418   0.23354
     Eigenvalues ---    0.23598   0.32634   0.35634   0.35953   0.35994
     Eigenvalues ---    0.36277   0.36737   0.36873   0.37050   0.39437
     Eigenvalues ---    0.43629   0.45521   0.45935   0.47236   0.49875
     Eigenvalues ---    0.50513   0.51141   0.51668   0.54549
 RFO step:  Lambda=-9.01275496D-04 EMin= 2.58691367D-03
 Quintic linear search produced a step of -0.13294.
 Iteration  1 RMS(Cart)=  0.02593910 RMS(Int)=  0.00063310
 Iteration  2 RMS(Cart)=  0.00070088 RMS(Int)=  0.00007851
 Iteration  3 RMS(Cart)=  0.00000067 RMS(Int)=  0.00007851
 Variable       Old X    -DE/DX   Delta X   Delta X   Delta X     New X
                                 (Linear)    (Quad)   (Total)
    R1        2.90385   0.00112  -0.00238   0.00476   0.00238   2.90623
    R2        1.92980   0.00069  -0.00380   0.00512   0.00132   1.93112
    R3        3.47048  -0.00153   0.00050  -0.01105  -0.01055   3.45992
    R4        3.36339   0.00518   0.01375   0.00827   0.02201   3.38541
    R5        2.91109   0.00143  -0.00469   0.00149  -0.00321   2.90788
    R6        2.62678   0.00109  -0.00206   0.00417   0.00211   2.62889
    R7        2.62674   0.00080  -0.00210   0.00469   0.00259   2.62933
    R8        2.63400   0.00013  -0.00235   0.00235   0.00000   2.63400
    R9        2.06728   0.00035  -0.00364   0.00453   0.00090   2.06818
   R10        2.63504   0.00014  -0.00206   0.00252   0.00046   2.63550
   R11        2.06198   0.00049  -0.00306   0.00452   0.00146   2.06344
   R12        2.63609   0.00027  -0.00251   0.00243  -0.00008   2.63601
   R13        2.06272   0.00051  -0.00310   0.00463   0.00154   2.06425
   R14        2.61960   0.00011  -0.00079   0.00134   0.00055   2.62016
   R15        2.06152   0.00046  -0.00309   0.00459   0.00149   2.06301
   R16        2.53336  -0.00050   0.00312  -0.00522  -0.00209   2.53127
   R17        2.07245   0.00065  -0.00335   0.00525   0.00190   2.07436
   R18        2.07119   0.00030  -0.00345   0.00522   0.00177   2.07295
   R19        2.07233   0.00086  -0.00328   0.00600   0.00272   2.07505
   R20        1.93317   0.00192  -0.00455   0.00614   0.00160   1.93476
    A1        1.93356  -0.00006   0.00986  -0.01102  -0.00116   1.93241
    A2        1.89845   0.00236   0.01052   0.01145   0.02210   1.92055
    A3        2.04010  -0.00362  -0.00275  -0.03434  -0.03710   2.00300
    A4        2.03758   0.00025  -0.00423   0.01592   0.01188   2.04946
    A5        1.72874   0.00043  -0.00321   0.00798   0.00487   1.73361
    A6        1.96777  -0.00348  -0.01146  -0.02120  -0.03285   1.93492
    A7        1.76725   0.00375   0.01048   0.01638   0.02706   1.79431
    A8        2.05635   0.00054   0.00213   0.00049   0.00261   2.05896
    A9        2.14428  -0.00041  -0.00152  -0.00032  -0.00186   2.14243
   A10        2.08171  -0.00014  -0.00058  -0.00049  -0.00107   2.08064
   A11        2.09592   0.00011   0.00040   0.00046   0.00086   2.09678
   A12        2.05093   0.00027  -0.00014  -0.00040  -0.00054   2.05040
   A13        2.13630  -0.00038  -0.00027  -0.00008  -0.00035   2.13596
   A14        2.09106  -0.00007   0.00035  -0.00012   0.00023   2.09129
   A15        2.09495   0.00001  -0.00011  -0.00070  -0.00081   2.09413
   A16        2.09717   0.00006  -0.00024   0.00082   0.00058   2.09776
   A17        2.10435   0.00004  -0.00036  -0.00050  -0.00086   2.10350
   A18        2.09640  -0.00002   0.00010   0.00045   0.00055   2.09695
   A19        2.08242  -0.00002   0.00026   0.00004   0.00031   2.08273
   A20        2.07054   0.00043   0.00004   0.00190   0.00194   2.07248
   A21        2.12857  -0.00005  -0.00057   0.00140   0.00083   2.12940
   A22        2.08408  -0.00038   0.00053  -0.00330  -0.00277   2.08131
   A23        2.12277  -0.00037   0.00014  -0.00126  -0.00111   2.12166
   A24        2.07838   0.00083   0.00062   0.00319   0.00380   2.08218
   A25        2.08199  -0.00046  -0.00076  -0.00192  -0.00269   2.07931
   A26        1.88632   0.00151   0.00357  -0.00364  -0.00003   1.88629
   A27        1.89915  -0.00064  -0.00505   0.01238   0.00728   1.90643
   A28        1.83513   0.00068   0.00596  -0.00750  -0.00151   1.83361
   A29        1.95224  -0.00023  -0.00084   0.00275   0.00186   1.95410
   A30        1.94725  -0.00109  -0.00207  -0.00607  -0.00800   1.93925
   A31        1.93865  -0.00011  -0.00122   0.00186   0.00057   1.93922
   A32        1.84084   0.00403   0.01810   0.00810   0.02620   1.86705
    D1       -0.72067  -0.00036  -0.03169   0.07396   0.04247  -0.67820
    D2        1.21692  -0.00025  -0.03027   0.07248   0.04209   1.25901
    D3       -2.97117   0.00214  -0.02154   0.07969   0.05807  -2.91310
    D4       -2.21911  -0.00075   0.00508  -0.01728  -0.01223  -2.23133
    D5        0.87809  -0.00087   0.00586  -0.02589  -0.02007   0.85802
    D6        1.92542   0.00217   0.00561   0.01290   0.01841   1.94383
    D7       -1.26057   0.00206   0.00639   0.00429   0.01057  -1.25000
    D8        0.06969  -0.00125  -0.00141  -0.00322  -0.00449   0.06520
    D9       -3.11630  -0.00136  -0.00063  -0.01183  -0.01233  -3.12863
   D10       -1.05765   0.00011  -0.00539   0.04877   0.04333  -1.01431
   D11        3.10214  -0.00014  -0.00345   0.04029   0.03674   3.13887
   D12        1.02407  -0.00006  -0.00258   0.03599   0.03324   1.05732
   D13        0.97561   0.00166   0.00395   0.05289   0.05684   1.03245
   D14       -1.14779   0.00141   0.00589   0.04440   0.05025  -1.09754
   D15        3.05733   0.00149   0.00676   0.04010   0.04675   3.10408
   D16        2.99187  -0.00086  -0.00650   0.03733   0.03104   3.02291
   D17        0.86847  -0.00111  -0.00456   0.02884   0.02444   0.89291
   D18       -1.20959  -0.00103  -0.00369   0.02454   0.02095  -1.18865
   D19        0.71375  -0.00001  -0.06998   0.02431  -0.04602   0.66773
   D20       -1.50308  -0.00034  -0.07090   0.01350  -0.05719  -1.56028
   D21        2.94905  -0.00154  -0.06802   0.00324  -0.06465   2.88440
   D22        3.09459  -0.00025   0.00199  -0.01234  -0.01037   3.08422
   D23       -0.05456  -0.00028   0.00249  -0.01543  -0.01295  -0.06751
   D24       -0.00425  -0.00013   0.00126  -0.00405  -0.00279  -0.00704
   D25        3.12978  -0.00016   0.00176  -0.00713  -0.00537   3.12442
   D26       -3.09642   0.00018  -0.00130   0.01131   0.01000  -3.08642
   D27        0.05489   0.00021  -0.00121   0.01031   0.00908   0.06396
   D28        0.00016   0.00009  -0.00045   0.00260   0.00215   0.00231
   D29       -3.13172   0.00011  -0.00036   0.00159   0.00123  -3.13049
   D30        0.00407   0.00009  -0.00127   0.00286   0.00159   0.00566
   D31       -3.14100   0.00004  -0.00051   0.00129   0.00078  -3.14022
   D32       -3.12958   0.00012  -0.00180   0.00611   0.00431  -3.12528
   D33        0.00853   0.00007  -0.00104   0.00453   0.00349   0.01202
   D34        0.00022  -0.00001   0.00046  -0.00016   0.00030   0.00051
   D35        3.13967  -0.00005   0.00075  -0.00125  -0.00050   3.13916
   D36       -3.13790   0.00005  -0.00030   0.00142   0.00112  -3.13678
   D37        0.00156   0.00000  -0.00001   0.00033   0.00032   0.00187
   D38       -0.00421  -0.00004   0.00035  -0.00130  -0.00095  -0.00516
   D39        3.13936  -0.00005   0.00027  -0.00176  -0.00149   3.13787
   D40        3.13951   0.00000   0.00006  -0.00022  -0.00015   3.13935
   D41       -0.00011  -0.00001  -0.00001  -0.00068  -0.00069  -0.00081
   D42        0.00405  -0.00000  -0.00036   0.00007  -0.00029   0.00376
   D43        3.13591  -0.00002  -0.00043   0.00111   0.00067   3.13657
   D44       -3.13947   0.00002  -0.00028   0.00052   0.00024  -3.13923
   D45       -0.00761  -0.00001  -0.00036   0.00156   0.00119  -0.00642
         Item               Value     Threshold  Converged?
 Maximum Force            0.005178     0.000015     NO 
 RMS     Force            0.001202     0.000010     NO 
 Maximum Displacement     0.108642     0.000060     NO 
 RMS     Displacement     0.026044     0.000040     NO 
 Predicted change in Energy=-5.185014D-04
 GradGradGradGradGradGradGradGradGradGradGradGradGradGradGradGradGradGrad

                          Input orientation:                          
 ---------------------------------------------------------------------
 Center     Atomic      Atomic             Coordinates (Angstroms)
 Number     Number       Type             X           Y           Z
 ---------------------------------------------------------------------
      1          7           0       -2.046118    0.717978   -1.194601
      2         16           0       -1.572620   -0.180251   -0.039545
      3          6           0        0.257012   -0.231327    0.006055
      4          6           0        0.874679   -1.477702    0.024218
      5          6           0        2.265027   -1.570280   -0.010150
      6          6           0        3.036508   -0.409350   -0.055987
      7          6           0        2.427857    0.845722   -0.067144
      8          6           0        1.043400    0.915661   -0.038094
      9          9           0        0.450849    2.116949   -0.042678
     10          6           0       -1.885716    0.475558    1.597918
     11          7           0       -2.162669   -1.599030    0.042697
     12          1           0       -1.445216    1.539773   -1.283226
     13          1           0        0.229581   -2.360300    0.075686
     14          1           0        2.747212   -2.549884    0.002913
     15          1           0        4.126566   -0.475674   -0.080775
     16          1           0        3.008097    1.769894   -0.099283
     17          1           0       -1.387354    1.450539    1.675366
     18          1           0       -1.516684   -0.234555    2.348167
     19          1           0       -2.976824    0.583211    1.658284
     20          1           0       -2.245270   -1.944515   -0.917537
 ---------------------------------------------------------------------
                    Distance matrix (angstroms):
                    1          2          3          4          5
     1  N    0.000000
     2  S    1.537910   0.000000
     3  C    2.765351   1.830913   0.000000
     4  C    3.851958   2.770689   1.391147   0.000000
     5  C    5.022452   4.081737   2.413541   1.393850   0.000000
     6  C    5.329203   4.614847   2.785882   2.412739   1.394647
     7  C    4.615618   4.130036   2.424450   2.796248   2.422153
     8  C    3.304801   2.836298   1.391380   2.400111   2.770028
     9  F    3.085271   3.061301   2.356767   3.620168   4.109496
    10  C    2.807606   1.791480   2.761340   3.729818   4.898980
    11  N    2.629260   1.538784   2.779714   3.039827   4.428105
    12  H    1.021903   2.126371   2.774279   4.024484   5.005902
    13  H    4.033390   2.830870   2.130288   1.094432   2.185072
    14  H    5.923595   4.927262   3.402471   2.157872   1.091924
    15  H    6.384939   5.706986   3.878233   3.404387   2.160666
    16  H    5.277437   4.978915   3.403594   3.887622   3.422990
    17  H    3.034357   2.373756   2.884305   4.051873   5.030526
    18  H    3.706592   2.388985   2.937941   3.558760   4.652650
    19  H    3.003885   2.331800   3.721698   4.663863   5.907470
    20  H    2.684267   2.082295   3.170086   3.292248   4.615862
                    6          7          8          9         10
     6  C    0.000000
     7  C    1.394915   0.000000
     8  C    2.393419   1.386526   0.000000
     9  F    3.614968   2.350570   1.339489   0.000000
    10  C    5.267519   4.638574   3.383777   3.293214   0.000000
    11  N    5.334465   5.202096   4.075424   4.543816   2.607552
    12  H    5.038953   4.118405   2.851855   2.338195   3.102834
    13  H    3.420874   3.889909   3.377450   4.484276   3.851463
    14  H    2.160798   3.411310   3.861950   5.201413   5.758591
    15  H    1.092355   2.152182   3.382831   4.498226   6.314300
    16  H    2.179860   1.091699   2.143243   2.581311   5.339026
    17  H    5.101698   4.237686   3.021689   2.602838   1.097702
    18  H    5.151899   4.749750   3.683921   3.888046   1.096960
    19  H    6.331198   5.679489   4.376120   4.122447   1.098067
    20  H    5.567420   5.508784   4.446276   4.952769   3.509066
                   11         12         13         14         15
    11  N    0.000000
    12  H    3.482081   0.000000
    13  H    2.510674   4.456698   0.000000
    14  H    5.001264   5.996324   2.525807   0.000000
    15  H    6.389965   6.045880   4.331603   2.492382   0.000000
    16  H    6.173057   4.613748   4.980890   4.328856   2.508764
    17  H    3.544939   2.960502   4.438012   5.991254   6.098987
    18  H    2.755772   4.042321   3.568249   5.389042   6.148509
    19  H    2.834633   3.451567   4.631405   6.732098   7.389433
    20  H    1.023831   3.593615   2.698936   5.112590   6.592265
                   16         17         18         19         20
    16  H    0.000000
    17  H    4.750932   0.000000
    18  H    5.521003   1.819046   0.000000
    19  H    6.349531   1.810791   1.810163   0.000000
    20  H    6.485694   4.357241   3.757608   3.682312   0.000000
 Stoichiometry    C7H9FN2S
 Framework group  C1[X(C7H9FN2S)]
 Deg. of freedom    54
 Full point group                 C1      NOp   1
 Largest Abelian subgroup         C1      NOp   1
 Largest concise Abelian subgroup C1      NOp   1
                         Standard orientation:                         
 ---------------------------------------------------------------------
 Center     Atomic      Atomic             Coordinates (Angstroms)
 Number     Number       Type             X           Y           Z
 ---------------------------------------------------------------------
[...]
 Alpha  occ. eigenvalues --   -0.79621  -0.77449  -0.67430  -0.66293  -0.62481
 Alpha  occ. eigenvalues --   -0.58495  -0.54233  -0.53502  -0.52207  -0.51565
 Alpha  occ. eigenvalues --   -0.49743  -0.47301  -0.46987  -0.45080  -0.43950
 Alpha  occ. eigenvalues --   -0.43243  -0.40923  -0.39990  -0.38811  -0.32515
 Alpha  occ. eigenvalues --   -0.30840  -0.29169  -0.28410  -0.26745  -0.25861
 Alpha virt. eigenvalues --   -0.04360  -0.02809   0.03128   0.04724   0.06364
 Alpha virt. eigenvalues --    0.06862   0.07866   0.08220   0.08894   0.09738
 Alpha virt. eigenvalues --    0.10827   0.11267   0.11628   0.13258   0.13651
 Alpha virt. eigenvalues --    0.14113   0.16224   0.17516   0.18827   0.19971
 Alpha virt. eigenvalues --    0.21045   0.21456   0.22164   0.22834   0.23901
 Alpha virt. eigenvalues --    0.24918   0.25840   0.26132   0.28642   0.30008
 Alpha virt. eigenvalues --    0.30786   0.31487   0.31702   0.33146   0.33928
 Alpha virt. eigenvalues --    0.34460   0.35746   0.36090   0.37849   0.38244
 Alpha virt. eigenvalues --    0.38767   0.39187   0.40126   0.40867   0.41429
 Alpha virt. eigenvalues --    0.42070   0.42611   0.43833   0.44439   0.45447
 Alpha virt. eigenvalues --    0.46209   0.46745   0.47797   0.48200   0.49891
 Alpha virt. eigenvalues --    0.50161   0.51154   0.51906   0.52363   0.56245
 Alpha virt. eigenvalues --    0.56464   0.57567   0.58173   0.59660   0.61300
 Alpha virt. eigenvalues --    0.63403   0.65169   0.65550   0.66963   0.67195
 Alpha virt. eigenvalues --    0.69448   0.69955   0.70893   0.72000   0.73364
 Alpha virt. eigenvalues --    0.74677   0.75937   0.76729   0.79051   0.80003
 Alpha virt. eigenvalues --    0.81880   0.82008   0.83721   0.85492   0.86371
 Alpha virt. eigenvalues --    0.87767   0.89179   0.90116   0.90721   0.91040
 Alpha virt. eigenvalues --    0.94398   0.98056   0.99522   1.00761   1.04664
 Alpha virt. eigenvalues --    1.04974   1.05862   1.06351   1.07172   1.08618
 Alpha virt. eigenvalues --    1.11347   1.13022   1.14432   1.15833   1.19339
 Alpha virt. eigenvalues --    1.20255   1.21060   1.21449   1.23595   1.24080
 Alpha virt. eigenvalues --    1.26955   1.27053   1.29619   1.32326   1.34364
 Alpha virt. eigenvalues --    1.35467   1.36553   1.38257   1.40876   1.43388
 Alpha virt. eigenvalues --    1.43585   1.46218   1.48718   1.49202   1.49363
 Alpha virt. eigenvalues --    1.50317   1.52076   1.52472   1.54515   1.55508
 Alpha virt. eigenvalues --    1.56703   1.58764   1.59300   1.59773   1.61594
 Alpha virt. eigenvalues --    1.63623   1.65304   1.67035   1.67674   1.68636
 Alpha virt. eigenvalues --    1.70372   1.71360   1.72215   1.72380   1.76215
 Alpha virt. eigenvalues --    1.77505   1.78965   1.83200   1.84463   1.87550
 Alpha virt. eigenvalues --    1.88303   1.89851   1.90708   1.93206   1.94543
 Alpha virt. eigenvalues --    1.95958   1.97881   2.00373   2.01452   2.03497
 Alpha virt. eigenvalues --    2.04803   2.05953   2.06373   2.08041   2.09285
 Alpha virt. eigenvalues --    2.10463   2.11377   2.12514   2.13797   2.14747
 Alpha virt. eigenvalues --    2.15064   2.16060   2.17722   2.20315   2.22219
 Alpha virt. eigenvalues --    2.23190   2.24930   2.25716   2.27336   2.30853
 Alpha virt. eigenvalues --    2.31852   2.36643   2.38733   2.39299   2.43009
 Alpha virt. eigenvalues --    2.46490   2.46831   2.48126   2.51436   2.51661
 Alpha virt. eigenvalues --    2.54399   2.55326   2.56280   2.57197   2.58146
 Alpha virt. eigenvalues --    2.59912   2.61199   2.62741   2.63663   2.64728
 Alpha virt. eigenvalues --    2.66708   2.67214   2.69071   2.70583   2.70923
 Alpha virt. eigenvalues --    2.71862   2.74584   2.75313   2.76675   2.77352
 Alpha virt. eigenvalues --    2.79447   2.79601   2.82230   2.83650   2.85102
 Alpha virt. eigenvalues --    2.86499   2.86800   2.87539   2.90842   2.92209
 Alpha virt. eigenvalues --    2.94934   2.95167   2.96992   3.00438   3.03203
 Alpha virt. eigenvalues --    3.05240   3.06471   3.07469   3.09415   3.10113
 Alpha virt. eigenvalues --    3.12792   3.13328   3.14288   3.15822   3.17372
 Alpha virt. eigenvalues --    3.18845   3.21230   3.22614   3.24451   3.25002
 Alpha virt. eigenvalues --    3.25284   3.27708   3.29774   3.30850   3.33983
 Alpha virt. eigenvalues --    3.35434   3.37142   3.38321   3.40528   3.41233
 Alpha virt. eigenvalues --    3.41604   3.42788   3.45106   3.47351   3.49458
 Alpha virt. eigenvalues --    3.49668   3.50756   3.51656   3.54245   3.56059
 Alpha virt. eigenvalues --    3.57329   3.58395   3.64794   3.64885   3.68331
 Alpha virt. eigenvalues --    3.69646   3.76696   3.77172   3.80148   3.83409
 Alpha virt. eigenvalues --    3.85020   3.90931   3.92580   3.97412   4.00776
 Alpha virt. eigenvalues --    4.02314   4.05589   4.07345   4.08253   4.09342
 Alpha virt. eigenvalues --    4.09600   4.14245   4.16269   4.17404   4.18652
 Alpha virt. eigenvalues --    4.20106   4.20439   4.20801   4.23132   4.24481
 Alpha virt. eigenvalues --    4.24778   4.30472   4.31336   4.35107   4.35809
 Alpha virt. eigenvalues --    4.39189   4.39864   4.44128   4.45056   4.50933
 Alpha virt. eigenvalues --    4.53694   4.57292   4.59353   4.61092   4.62194
 Alpha virt. eigenvalues --    4.67916   4.71012   4.71667   4.72998   4.75314
 Alpha virt. eigenvalues --    4.78789   4.86237   4.87966   4.89869   4.94588
 Alpha virt. eigenvalues --    5.01327   5.04607   5.09895   5.12868   5.15001
 Alpha virt. eigenvalues --    5.18550   5.19999   5.22228   5.26354   5.34811
 Alpha virt. eigenvalues --    5.38308   5.47745   5.54630   5.56153   5.60516
 Alpha virt. eigenvalues --    6.85714   6.86837   6.97364   7.06456   7.23420
 Alpha virt. eigenvalues --    7.42349   7.56735   8.36122   8.54575   8.76458
 Alpha virt. eigenvalues --    8.98345   9.02606   9.48951   9.53188   9.55731
 Alpha virt. eigenvalues --   21.81393  22.03890  22.31771  22.62565  22.68352
 Alpha virt. eigenvalues --   22.83314  22.88524  23.28067  31.90276  31.93192
 Alpha virt. eigenvalues --   57.47075
          Condensed to atoms (all electrons):
               1          2          3          4          5          6
     1  N    6.934042   0.448064  -0.034667   0.019793  -0.001697   0.000373
     2  S    0.448064  14.058691   0.187276  -0.026040   0.006837  -0.001951
     3  C   -0.034667   0.187276   5.806429   0.175497   0.084906  -0.127975
     4  C    0.019793  -0.026040   0.175497   5.232430   0.357430   0.072119
     5  C   -0.001697   0.006837   0.084906   0.357430   4.984987   0.430848
     6  C    0.000373  -0.001951  -0.127975   0.072119   0.430848   4.911545
     7  C    0.000122   0.008640   0.095293  -0.141356   0.050290   0.403463
     8  C   -0.003250  -0.015299   0.130161   0.084174  -0.116059   0.057260
     9  F   -0.009381   0.012096  -0.086801   0.011099  -0.001889   0.007429
    10  C   -0.038787   0.286472  -0.062958  -0.000880  -0.001403   0.000034
    11  N   -0.080999   0.539446  -0.103977   0.013634   0.002279  -0.000019
    12  H    0.298280   0.009986  -0.005250  -0.004878   0.000530  -0.000429
    13  H    0.002507  -0.003364  -0.058271   0.423264  -0.049324   0.009242
    14  H    0.000005  -0.000176   0.010879  -0.046568   0.422093  -0.047483
    15  H   -0.000000   0.000029  -0.003993   0.011111  -0.048880   0.420393
    16  H    0.000057  -0.000091   0.021695  -0.004480   0.012141  -0.052751
    17  H    0.000793  -0.015433   0.008079   0.002945   0.000122  -0.000077
    18  H    0.004135  -0.014060  -0.000799  -0.005570   0.000669  -0.000081
    19  H    0.006051  -0.016256   0.008920  -0.000469   0.000024   0.000004
    20  H   -0.002257  -0.016882   0.003827  -0.001925  -0.000164  -0.000024
               7          8          9         10         11         12
     1  N    0.000122  -0.003250  -0.009381  -0.038787  -0.080999   0.298280
     2  S    0.008640  -0.015299   0.012096   0.286472   0.539446   0.009986
     3  C    0.095293   0.130161  -0.086801  -0.062958  -0.103977  -0.005250
     4  C   -0.141356   0.084174   0.011099  -0.000880   0.013634  -0.004878
     5  C    0.050290  -0.116059  -0.001889  -0.001403   0.002279   0.000530
     6  C    0.403463   0.057260   0.007429   0.000034  -0.000019  -0.000429
     7  C    5.067037   0.409164  -0.052897  -0.001384  -0.000322   0.002477
     8  C    0.409164   4.942090   0.279847   0.007368   0.007077  -0.000763
     9  F   -0.052897   0.279847   9.024032  -0.006017   0.000249   0.008482
    10  C   -0.001384   0.007368  -0.006017   5.154330  -0.100274  -0.006787
    11  N   -0.000322   0.007077   0.000249  -0.100274   6.919763   0.007050
    12  H    0.002477  -0.000763   0.008482  -0.006787   0.007050   0.468475
    13  H   -0.002483   0.005876  -0.000004   0.000455   0.032016  -0.000391
    14  H    0.008988  -0.001516   0.000009   0.000047  -0.000063   0.000003
    15  H   -0.046026   0.011614  -0.000119  -0.000000   0.000001   0.000000
    16  H    0.425386  -0.064367   0.003265   0.000086   0.000007  -0.000007
    17  H    0.000444  -0.011830   0.008430   0.362187   0.006252   0.000127
    18  H    0.000109   0.002485   0.000058   0.369066   0.007988  -0.000125
    19  H   -0.000025  -0.000526   0.000210   0.367896   0.006909   0.000298
    20  H   -0.000010   0.000084   0.000012   0.010793   0.312178   0.000119
              13         14         15         16         17         18
     1  N    0.002507   0.000005  -0.000000   0.000057   0.000793   0.004135
     2  S   -0.003364  -0.000176   0.000029  -0.000091  -0.015433  -0.014060
     3  C   -0.058271   0.010879  -0.003993   0.021695   0.008079  -0.000799
     4  C    0.423264  -0.046568   0.011111  -0.004480   0.002945  -0.005570
     5  C   -0.049324   0.422093  -0.048880   0.012141   0.000122   0.000669
     6  C    0.009242  -0.047483   0.420393  -0.052751  -0.000077  -0.000081
     7  C   -0.002483   0.008988  -0.046026   0.425386   0.000444   0.000109
     8  C    0.005876  -0.001516   0.011614  -0.064367  -0.011830   0.002485
     9  F   -0.000004   0.000009  -0.000119   0.003265   0.008430   0.000058
    10  C    0.000455   0.000047  -0.000000   0.000086   0.362187   0.369066
    11  N    0.032016  -0.000063   0.000001   0.000007   0.006252   0.007988
    12  H   -0.000391   0.000003   0.000000  -0.000007   0.000127  -0.000125
    13  H    0.484823  -0.005826  -0.000137   0.000056   0.000026   0.000123
    14  H   -0.005826   0.535778  -0.006792  -0.000163  -0.000002  -0.000007
    15  H   -0.000137  -0.006792   0.538219  -0.007773   0.000001  -0.000001
    16  H    0.000056  -0.000163  -0.007773   0.530528  -0.000030  -0.000002
    17  H    0.000026  -0.000002   0.000001  -0.000030   0.518167  -0.016726
    18  H    0.000123  -0.000007  -0.000001  -0.000002  -0.016726   0.503950
    19  H   -0.000124  -0.000001   0.000000  -0.000003  -0.011682  -0.007874
    20  H   -0.003022   0.000013   0.000000  -0.000000  -0.000542  -0.000690
              19         20
     1  N    0.006051  -0.002257
     2  S   -0.016256  -0.016882
     3  C    0.008920   0.003827
     4  C   -0.000469  -0.001925
     5  C    0.000024  -0.000164
     6  C    0.000004  -0.000024
     7  C   -0.000025  -0.000010
     8  C   -0.000526   0.000084
     9  F    0.000210   0.000012
    10  C    0.367896   0.010793
    11  N    0.006909   0.312178
    12  H    0.000298   0.000119
    13  H   -0.000124  -0.003022
    14  H   -0.000001   0.000013
    15  H    0.000000   0.000000
    16  H   -0.000003  -0.000000
    17  H   -0.011682  -0.000542
    18  H   -0.007874  -0.000690
    19  H    0.489248  -0.000437
    20  H   -0.000437   0.465311
 Mulliken charges:
               1
     1  N   -0.543187
     2  S    0.552014
     3  C   -0.048271
     4  C   -0.171333
     5  C   -0.133742
     6  C   -0.081920
     7  C   -0.226910
     8  C    0.276410
     9  F   -0.198110
    10  C   -0.340245
    11  N   -0.569195
    12  H    0.222800
    13  H    0.164557
    14  H    0.130783
    15  H    0.132351
    16  H    0.136447
    17  H    0.148749
    18  H    0.157350
    19  H    0.157836
    20  H    0.233616
 Sum of Mulliken charges =  -0.00000
 Mulliken charges with hydrogens summed into heavy atoms:
               1
     1  N   -0.320387
     2  S    0.552014
     3  C   -0.048271
     4  C   -0.006775
     5  C   -0.002959
     6  C    0.050431
     7  C   -0.090464
     8  C    0.276410
     9  F   -0.198110
    10  C    0.123690
    11  N   -0.335579
 Electronic spatial extent (au):  <R**2>=           1862.3882
 Charge=             -0.0000 electrons
 Dipole moment (field-independent basis, Debye):
    X=              4.0104    Y=              0.5684    Z=              1.7958  Tot=              4.4307
 Quadrupole moment (field-independent basis, Debye-Ang):
   XX=            -71.2548   YY=            -69.8322   ZZ=            -73.4693
   XY=             -3.0793   XZ=             -4.7324   YZ=              3.3172
 Traceless Quadrupole moment (field-independent basis, Debye-Ang):
   XX=              0.2640   YY=              1.6866   ZZ=             -1.9506
   XY=             -3.0793   XZ=             -4.7324   YZ=              3.3172
 Octapole moment (field-independent basis, Debye-Ang**2):
  XXX=             48.0266  YYY=             11.8473  ZZZ=              7.4387  XYY=             11.5224
  XXY=             10.9966  XXZ=             12.6241  XZZ=             -7.5444  YZZ=              4.7321
  YYZ=             -8.0390  XYZ=             -9.9073
 Hexadecapole moment (field-independent basis, Debye-Ang**3):
 XXXX=          -1515.2843 YYYY=           -599.5462 ZZZZ=           -269.4671 XXXY=             -8.0587
 XXXZ=            -33.9004 YYYX=            -14.4362 YYYZ=              9.7845 ZZZX=            -16.9879
 ZZZY=              1.7868 XXYY=           -356.3021 XXZZ=           -333.2512 YYZZ=           -140.5169
 XXYZ=             25.0427 YYXZ=             16.0200 ZZXY=             13.8983
 N-N= 7.361539946350D+02 E-N=-3.542207716177D+03  KE= 8.760920508488D+02
 Breneman (CHELPG) radii used.
 Read replacement radii for each type of atom:
 Atom Element Radius
    1     7    1.70
    2    16    2.00
    3     6    1.50
    4     6    1.50
    5     6    1.50
    6     6    1.50
    7     6    1.50
    8     6    1.50
    9     9    1.70
   10     6    1.50
   11     7    1.70
   12     1    1.45
   13     1    1.45
   14     1    1.45
   15     1    1.45
   16     1    1.45
   17     1    1.45
   18     1    1.45
   19     1    1.45
   20     1    1.45
 Generate Potential Derived Charges using the Breneman model, NDens= 1.
 Grid spacing= 0.300 Box extension= 2.800
 NStep X,Y,Z=   44     36     31   Total possible points=       49104
 Number of Points to Fit=   13519

 **********************************************************************

            Electrostatic Properties Using The SCF Density.

 **********************************************************************

       Atomic Center    1 is at  -1.982210  0.708613 -1.303226
       Atomic Center    2 is at  -1.545086 -0.189633 -0.133845
       Atomic Center    3 is at   0.282583 -0.217327 -0.018453
       Atomic Center    4 is at   0.915802 -1.455525  0.009457
       Atomic Center    5 is at   2.307591 -1.529182  0.027505
       Atomic Center    6 is at   3.064281 -0.357679  0.023651
       Atomic Center    7 is at   2.439517  0.889335  0.002193
       Atomic Center    8 is at   1.054160  0.940309 -0.021062
       Atomic Center    9 is at   0.445038  2.133383 -0.036915
       Atomic Center   10 is at  -1.926559  0.448702  1.495213
       Atomic Center   11 is at  -2.123953 -1.614755 -0.083579
       Atomic Center   12 is at  -1.389256  1.538816 -1.361709
       Atomic Center   13 is at   0.280917 -2.346807  0.025644
       Atomic Center   14 is at   2.802367 -2.502268  0.048386
       Atomic Center   15 is at   4.155213 -0.409318  0.039918
       Atomic Center   16 is at   3.007979  1.821259  0.001542
       Atomic Center   17 is at  -1.444482  1.429369  1.597820
       Atomic Center   18 is at  -1.574472 -0.262330  2.252621
       Atomic Center   19 is at  -3.020427  0.540096  1.517337
       Atomic Center   20 is at  -2.182910 -1.943937 -1.051191
   13519 points will be used for fitting atomic charges
 Fitting point charges to electrostatic potential
 Charges from ESP fit, RMS=   0.00322 RRMS=   0.18618:
 ESP charges:
               1
     1  N   -0.790594
     2  S    0.802334
     3  C   -0.190892
     4  C    0.017810
     5  C   -0.178327
     6  C   -0.027183
     7  C   -0.231282
     8  C    0.314778
     9  F   -0.191818
    10  C   -0.263801
    11  N   -0.738463
    12  H    0.344517
    13  H    0.083158
    14  H    0.121832
    15  H    0.102740
    16  H    0.146147
    17  H    0.094000
    18  H    0.105440
    19  H    0.137998
    20  H    0.341606
 Sum of ESP charges =  -0.00000
 ESP charges with hydrogens summed into heavy atoms:
               1
     1  N   -0.446077
     2  S    0.802334
     3  C   -0.190892
     4  C    0.100969
     5  C   -0.056495
     6  C    0.075557
     7  C   -0.085135
     8  C    0.314778
     9  F   -0.191818
    10  C    0.073636
    11  N   -0.396857
 Charge=  -0.00000 Dipole=     4.0458     0.5388     1.7749 Tot=     4.4508
 -----------------------------------------------------------------

              Electrostatic Properties (Atomic Units)

 -----------------------------------------------------------------
    Center     Electric         -------- Electric Field --------
               Potential          X             Y             Z
 -----------------------------------------------------------------
    1 Atom    -18.424781
    2 Atom    -59.068594
    3 Atom    -14.723592
    4 Atom    -14.735638
    5 Atom    -14.740416
    6 Atom    -14.732607
    7 Atom    -14.734842
    8 Atom    -14.651393
    9 Atom    -26.541909
   10 Atom    -14.734796
   11 Atom    -18.423283
   12 Atom     -1.045093
   13 Atom     -1.081905
   14 Atom     -1.082953
   15 Atom     -1.077663
   16 Atom     -1.067486
   17 Atom     -1.072657
   18 Atom     -1.073863
   19 Atom     -1.074716
   20 Atom     -1.048431
 -----------------------------------------------------------------
 Unable to Open any file for archive entry.
 1\1\GINC-NOTCH238\SP\RPBE1PBE\def2TZVP\C7H9F1N2S1\U1414944\07-Jun-2025
 \0\\#N Guess=Read Geom=Check Integral(Ultrafine) Density Pop=(ChelpG,R
 eadRadii) NMR pbe1pbe EmpiricalDispersion=GD3BJ def2TZVP\\SDI0152_1\\0
 ,1\N,0,-2.0422615108,0.7112219899,-1.1996553572\S,0,-1.5723131494,-0.1
 820179749,-0.0392044892\C,0,0.2579308191,-0.2321146941,0.0072101411\C,
 0,0.8762545355,-1.4780328014,0.022855881\C,0,2.2666985985,-1.569369864
 5,-0.0110718576\C,0,3.0372548878,-0.4077506428,-0.054637281\C,0,2.4277
 339811,0.8469304965,-0.0642386383\C,0,1.0432368371,0.91545952,-0.03554
 29498\F,0,0.4488852202,2.116057397,-0.0396252115\C,0,-1.8836896757,0.4
 75763358,1.5970074836\N,0,-2.1665914243,-1.5990889747,0.0464089079\H,0
 ,-1.4416421955,1.5331920474,-1.2883835675\H,0,0.2313704719,-2.36091582
 09,0.0714853326\H,0,2.7497306565,-2.5484960111,0.0002796852\H,0,4.1272
 895021,-0.4732306786,-0.0791699856\H,0,3.0073451333,1.7714432537,-0.09
 52149026\H,0,-1.3858684319,1.4510491602,1.672018886\H,0,-1.5120099915,
 -0.2328945996,2.3472458005\H,0,-2.9747048385,0.5813761644,1.6596374514
 \H,0,-2.2663313328,-1.9361651104,-0.9151219384\\Version=ES64L-G16RevC.
 01\State=1-A\HF=-879.1318896\RMSD=4.657e-09\Dipole=1.6061696,0.2097192
 ,0.6441617\Quadrupole=-0.1275657,1.3573919,-1.2298262,-2.2102915,-3.51
 78812,2.5717207\PG=C01 [X(C7H9F1N2S1)]\\@
 The archive entry for this job was punched.


 REPARTEE - WHAT YOU THINK OF AFTER YOU BECOME A DEPARTEE.
 Job cpu time:       0 days  0 hours 15 minutes 32.8 seconds.
 Elapsed time:       0 days  0 hours  1 minutes  3.1 seconds.
 File lengths (MBytes):  RWF=    108 Int=      0 D2E=      0 Chk=     16 Scr=      2
 Normal termination of Gaussian 16 at Sat Jun  7 21:11:10 2025.
