 Entering Gaussian System, Link 0=g16
 Input=SDI0241_16.com
 Output=SDI0241_16.log
 Initial command:
 /uufs/chpc.utah.edu/sys/installdir/gaussian16/C01/AVX/g16/l1.exe "/scratch/general/vast/u1414944/4689596-notchpeak.peaks/Gau-4174518.inp" -scrdir="/scratch/general/vast/u1414944/4689596-notchpeak.peaks/"
 Entering Link 1 = /uufs/chpc.utah.edu/sys/installdir/gaussian16/C01/AVX/g16/l1.exe PID=   4174523.
  
 Copyright (c) 1988-2019, Gaussian, Inc.  All Rights Reserved.
  
 This is part of the Gaussian(R) 16 program.  It is based on
 the Gaussian(R) 09 system (copyright 2009, Gaussian, Inc.),
 the Gaussian(R) 03 system (copyright 2003, Gaussian, Inc.),
 the Gaussian(R) 98 system (copyright 1998, Gaussian, Inc.),
 the Gaussian(R) 94 system (copyright 1995, Gaussian, Inc.),
 the Gaussian 92(TM) system (copyright 1992, Gaussian, Inc.),
 the Gaussian 90(TM) system (copyright 1990, Gaussian, Inc.),
 the Gaussian 88(TM) system (copyright 1988, Gaussian, Inc.),
 the Gaussian 86(TM) system (copyright 1986, Carnegie Mellon
 University), and the Gaussian 82(TM) system (copyright 1983,
 Carnegie Mellon University). Gaussian is a federally registered
 trademark of Gaussian, Inc.
  
 This software contains proprietary and confidential information,
 including trade secrets, belonging to Gaussian, Inc.
  
 This software is provided under written license and may be
 used, copied, transmitted, or stored only in accord with that
 written license.
  
 The following legend is applicable only to US Government
 contracts under FAR:
  
                    RESTRICTED RIGHTS LEGEND
  
 Use, reproduction and disclosure by the US Government is
 subject to restrictions as set forth in subparagraphs (a)
 and (c) of the Commercial Computer Software - Restricted
 Rights clause in FAR 52.227-19.
  
 Gaussian, Inc.
 340 Quinnipiac St., Bldg. 40, Wallingford CT 06492
  
  
 ---------------------------------------------------------------
 Warning -- This program may not be used in any manner that
 competes with the business of Gaussian, Inc. or will provide
 assistance to any competitor of Gaussian, Inc.  The licensee
 of this program is prohibited from giving any competitor of
 Gaussian, Inc. access to this program.  By using this program,
 the user acknowledges that Gaussian, Inc. is engaged in the
 business of creating and licensing software in the field of
 computational chemistry and represents and warrants to the
 licensee that it is not a competitor of Gaussian, Inc. and that
 it will not use this program in any manner prohibited above.
 ---------------------------------------------------------------
  

 Cite this work as:
 Gaussian 16, Revision C.01,
 M. J. Frisch, G. W. Trucks, H. B. Schlegel, G. E. Scuseria, 
 M. A. Robb, J. R. Cheeseman, G. Scalmani, V. Barone, 
 G. A. Petersson, H. Nakatsuji, X. Li, M. Caricato, A. V. Marenich, 
 J. Bloino, B. G. Janesko, R. Gomperts, B. Mennucci, H. P. Hratchian, 
 J. V. Ortiz, A. F. Izmaylov, J. L. Sonnenberg, D. Williams-Young, 
 F. Ding, F. Lipparini, F. Egidi, J. Goings, B. Peng, A. Petrone, 
 T. Henderson, D. Ranasinghe, V. G. Zakrzewski, J. Gao, N. Rega, 
 G. Zheng, W. Liang, M. Hada, M. Ehara, K. Toyota, R. Fukuda, 
 J. Hasegawa, M. Ishida, T. Nakajima, Y. Honda, O. Kitao, H. Nakai, 
 T. Vreven, K. Throssell, J. A. Montgomery, Jr., J. E. Peralta, 
 F. Ogliaro, M. J. Bearpark, J. J. Heyd, E. N. Brothers, K. N. Kudin, 
 V. N. Staroverov, T. A. Keith, R. Kobayashi, J. Normand, 
 K. Raghavachari, A. P. Rendell, J. C. Burant, S. S. Iyengar, 
 J. Tomasi, M. Cossi, J. M. Millam, M. Klene, C. Adamo, R. Cammi, 
 J. W. Ochterski, R. L. Martin, K. Morokuma, O. Farkas, 
 J. B. Foresman, and D. J. Fox, Gaussian, Inc., Wallingford CT, 2019.
 
 ******************************************
 Gaussian 16:  ES64L-G16RevC.01  3-Jul-2019
                 6-Jun-2025 
 ******************************************
 %NProcShared=16
 Will use up to   16 processors via shared memory.
 %Mem=40GB
 %chk=SDI0241_16.chk
 ----------------------------------------------------------------------
 #N OPT FREQ=NORAMAN Integral(Ultrafine) pbe1pbe EmpiricalDispersion=GD
 3BJ def2SVP
 ----------------------------------------------------------------------
 1/18=20,19=15,26=4,38=1/1,3;
 2/9=110,12=2,17=6,18=5,40=1/2;
 3/5=43,7=101,11=2,25=1,30=1,71=1,74=-13,75=-5,124=41/1,2,3;
 4//1;
 5/5=2,38=5/2;
 6/7=2,8=2,9=2,10=2,28=1/1;
 7//1,2,3,16;
 1/18=20,19=15,26=4/3(2);
 2/9=110/2;
 99//99;
 2/9=110/2;
 3/5=43,7=101,11=2,25=1,30=1,71=1,74=-13,75=-5,124=41/1,2,3;
 4/5=5,16=3,69=1/1;
 5/5=2,38=5/2;
 7//1,2,3,16;
 1/18=20,19=15,26=4/3(-5);
 2/9=110/2;
 6/7=2,8=2,9=2,10=2,19=2,28=1/1;
 99/9=1/99;
 ----------
 SDI0241_16
 ----------
 Symbolic Z-matrix:
 Charge =  0 Multiplicity = 1
 N                     3.30419   0.62126   0.63778 
 S                     1.93464  -0.06444   0.5474 
 C                     0.64982   1.12018   0.0072 
 C                     0.81317   1.85347  -1.15241 
 C                    -0.15129   2.78087  -1.51022 
 C                    -1.25805   2.9746   -0.69915 
 C                    -1.4039    2.24656   0.47073 
 C                    -0.44446   1.3146    0.8259 
 C                     1.85861  -1.3839   -0.75772 
 C                     0.55918  -1.45027  -1.54192 
 C                    -0.68526  -1.47719  -0.69368 
 C                    -1.80565  -0.7638   -1.10293 
 C                    -2.96733  -0.77558  -0.35319 
 C                    -3.02434  -1.50444   0.82191 
 C                    -1.91747  -2.22724   1.23124 
 C                    -0.75745  -2.22024   0.47691 
 N                     1.53326  -0.79956   1.81995 
 H                     3.54856   1.18629  -0.15894 
 H                     1.68574   1.70274  -1.77273 
 H                    -0.03776   3.3533   -2.41924 
 H                    -2.00755   3.69947  -0.98049 
 H                    -2.26515   2.40148   1.1027 
 H                    -0.53082   0.71832   1.72135 
 H                     2.04065  -2.29197  -0.18999 
 H                     2.70446  -1.2036   -1.41965 
 H                     0.58653  -2.35903  -2.15549 
 H                     0.49737  -0.60209  -2.22852 
 H                    -1.76529  -0.18334  -2.01472 
 H                    -3.82621  -0.2107   -0.68542 
 H                    -3.92787  -1.51022   1.41386 
 H                    -1.95436  -2.80078   2.14547 
 H                     0.09556  -2.78266   0.81819 
 H                     1.92948  -0.40043   2.65398 
 

 GradGradGradGradGradGradGradGradGradGradGradGradGradGradGradGradGradGrad
 Berny optimization.
 Initialization pass.
                           ----------------------------
                           !    Initial Parameters    !
                           ! (Angstroms and Degrees)  !
 --------------------------                            --------------------------
 ! Name  Definition              Value          Derivative Info.                !
 --------------------------------------------------------------------------------
 ! R1    R(1,2)                  1.5343         estimate D2E/DX2                !
 ! R2    R(1,18)                 1.0068         estimate D2E/DX2                !
 ! R3    R(2,3)                  1.8292         estimate D2E/DX2                !
 ! R4    R(2,9)                  1.8574         estimate D2E/DX2                !
 ! R5    R(2,17)                 1.5234         estimate D2E/DX2                !
 ! R6    R(3,4)                  1.3817         estimate D2E/DX2                !
 ! R7    R(3,8)                  1.3804         estimate D2E/DX2                !
 ! R8    R(4,5)                  1.385          estimate D2E/DX2                !
 ! R9    R(4,19)                 1.0812         estimate D2E/DX2                !
 ! R10   R(5,6)                  1.3857         estimate D2E/DX2                !
 ! R11   R(5,20)                 1.0802         estimate D2E/DX2                !
 ! R12   R(6,7)                  1.3856         estimate D2E/DX2                !
 ! R13   R(6,21)                 1.08           estimate D2E/DX2                !
 ! R14   R(7,8)                  1.3839         estimate D2E/DX2                !
 ! R15   R(7,22)                 1.0794         estimate D2E/DX2                !
 ! R16   R(8,23)                 1.0793         estimate D2E/DX2                !
 ! R17   R(9,10)                 1.5192         estimate D2E/DX2                !
 ! R18   R(9,24)                 1.0863         estimate D2E/DX2                !
 ! R19   R(9,25)                 1.0891         estimate D2E/DX2                !
 ! R20   R(10,11)                1.5063         estimate D2E/DX2                !
 ! R21   R(10,26)                1.0968         estimate D2E/DX2                !
 ! R22   R(10,27)                1.093          estimate D2E/DX2                !
 ! R23   R(11,12)                1.3899         estimate D2E/DX2                !
 ! R24   R(11,16)                1.3884         estimate D2E/DX2                !
 ! R25   R(12,13)                1.3827         estimate D2E/DX2                !
 ! R26   R(12,28)                1.0816         estimate D2E/DX2                !
 ! R27   R(13,14)                1.384          estimate D2E/DX2                !
 ! R28   R(13,29)                1.0803         estimate D2E/DX2                !
 ! R29   R(14,15)                1.3839         estimate D2E/DX2                !
 ! R30   R(14,30)                1.0802         estimate D2E/DX2                !
 ! R31   R(15,16)                1.3837         estimate D2E/DX2                !
 ! R32   R(15,31)                1.0799         estimate D2E/DX2                !
 ! R33   R(16,32)                1.0772         estimate D2E/DX2                !
 ! R34   R(17,33)                1.0059         estimate D2E/DX2                !
 ! A1    A(2,1,18)             114.8875         estimate D2E/DX2                !
 ! A2    A(1,2,3)              110.7902         estimate D2E/DX2                !
 ! A3    A(1,2,9)              113.2912         estimate D2E/DX2                !
 ! A4    A(1,2,17)             113.6797         estimate D2E/DX2                !
 ! A5    A(3,2,9)              102.9319         estimate D2E/DX2                !
 ! A6    A(3,2,17)             111.9707         estimate D2E/DX2                !
 ! A7    A(9,2,17)             103.4951         estimate D2E/DX2                !
 ! A8    A(2,3,4)              120.5652         estimate D2E/DX2                !
 ! A9    A(2,3,8)              118.221          estimate D2E/DX2                !
 ! A10   A(4,3,8)              121.1128         estimate D2E/DX2                !
 ! A11   A(3,4,5)              119.3309         estimate D2E/DX2                !
 ! A12   A(3,4,19)             120.1955         estimate D2E/DX2                !
 ! A13   A(5,4,19)             120.4735         estimate D2E/DX2                !
 ! A14   A(4,5,6)              119.9051         estimate D2E/DX2                !
 ! A15   A(4,5,20)             119.9366         estimate D2E/DX2                !
 ! A16   A(6,5,20)             120.158          estimate D2E/DX2                !
 ! A17   A(5,6,7)              120.3167         estimate D2E/DX2                !
 ! A18   A(5,6,21)             119.7126         estimate D2E/DX2                !
 ! A19   A(7,6,21)             119.9704         estimate D2E/DX2                !
 ! A20   A(6,7,8)              119.8375         estimate D2E/DX2                !
 ! A21   A(6,7,22)             120.1913         estimate D2E/DX2                !
 ! A22   A(8,7,22)             119.9707         estimate D2E/DX2                !
 ! A23   A(3,8,7)              119.4866         estimate D2E/DX2                !
 ! A24   A(3,8,23)             118.5343         estimate D2E/DX2                !
 ! A25   A(7,8,23)             121.9723         estimate D2E/DX2                !
 ! A26   A(2,9,10)             115.3885         estimate D2E/DX2                !
 ! A27   A(2,9,24)             102.6938         estimate D2E/DX2                !
 ! A28   A(2,9,25)             106.1207         estimate D2E/DX2                !
 ! A29   A(10,9,24)            112.123          estimate D2E/DX2                !
 ! A30   A(10,9,25)            110.966          estimate D2E/DX2                !
 ! A31   A(24,9,25)            109.0182         estimate D2E/DX2                !
 ! A32   A(9,10,11)            114.63           estimate D2E/DX2                !
 ! A33   A(9,10,26)            107.6763         estimate D2E/DX2                !
 ! A34   A(9,10,27)            109.7999         estimate D2E/DX2                !
 ! A35   A(11,10,26)           108.7122         estimate D2E/DX2                !
 ! A36   A(11,10,27)           108.7172         estimate D2E/DX2                !
 ! A37   A(26,10,27)           107.034          estimate D2E/DX2                !
 ! A38   A(10,11,12)           119.4068         estimate D2E/DX2                !
 ! A39   A(10,11,16)           121.8245         estimate D2E/DX2                !
 ! A40   A(12,11,16)           118.7541         estimate D2E/DX2                !
 ! A41   A(11,12,13)           120.8804         estimate D2E/DX2                !
 ! A42   A(11,12,28)           119.577          estimate D2E/DX2                !
 ! A43   A(13,12,28)           119.5395         estimate D2E/DX2                !
 ! A44   A(12,13,14)           119.9671         estimate D2E/DX2                !
 ! A45   A(12,13,29)           119.7845         estimate D2E/DX2                !
 ! A46   A(14,13,29)           120.2476         estimate D2E/DX2                !
 ! A47   A(13,14,15)           119.556          estimate D2E/DX2                !
 ! A48   A(13,14,30)           120.1705         estimate D2E/DX2                !
 ! A49   A(15,14,30)           120.2735         estimate D2E/DX2                !
 ! A50   A(14,15,16)           120.439          estimate D2E/DX2                !
 ! A51   A(14,15,31)           120.0329         estimate D2E/DX2                !
 ! A52   A(16,15,31)           119.5281         estimate D2E/DX2                !
 ! A53   A(11,16,15)           120.393          estimate D2E/DX2                !
 ! A54   A(11,16,32)           120.3554         estimate D2E/DX2                !
 ! A55   A(15,16,32)           119.2411         estimate D2E/DX2                !
 ! A56   A(2,17,33)            113.411          estimate D2E/DX2                !
 ! D1    D(18,1,2,3)           -47.2172         estimate D2E/DX2                !
 ! D2    D(18,1,2,9)            67.8741         estimate D2E/DX2                !
 ! D3    D(18,1,2,17)         -174.3371         estimate D2E/DX2                !
 ! D4    D(1,2,3,4)             53.9461         estimate D2E/DX2                !
 ! D5    D(1,2,3,8)           -122.4408         estimate D2E/DX2                !
 ! D6    D(9,2,3,4)            -67.4619         estimate D2E/DX2                !
 ! D7    D(9,2,3,8)            116.1512         estimate D2E/DX2                !
 ! D8    D(17,2,3,4)          -177.9995         estimate D2E/DX2                !
 ! D9    D(17,2,3,8)             5.6137         estimate D2E/DX2                !
 ! D10   D(1,2,9,10)          -140.8955         estimate D2E/DX2                !
 ! D11   D(1,2,9,24)            96.8148         estimate D2E/DX2                !
 ! D12   D(1,2,9,25)           -17.5665         estimate D2E/DX2                !
 ! D13   D(3,2,9,10)           -21.2031         estimate D2E/DX2                !
 ! D14   D(3,2,9,24)          -143.4928         estimate D2E/DX2                !
 ! D15   D(3,2,9,25)           102.1259         estimate D2E/DX2                !
 ! D16   D(17,2,9,10)           95.5325         estimate D2E/DX2                !
 ! D17   D(17,2,9,24)          -26.7572         estimate D2E/DX2                !
 ! D18   D(17,2,9,25)         -141.1385         estimate D2E/DX2                !
 ! D19   D(1,2,17,33)           28.6749         estimate D2E/DX2                !
 ! D20   D(3,2,17,33)          -97.8275         estimate D2E/DX2                !
 ! D21   D(9,2,17,33)          151.9913         estimate D2E/DX2                !
 ! D22   D(2,3,4,5)           -177.5057         estimate D2E/DX2                !
 ! D23   D(2,3,4,19)             2.5176         estimate D2E/DX2                !
 ! D24   D(8,3,4,5)             -1.2244         estimate D2E/DX2                !
 ! D25   D(8,3,4,19)           178.7989         estimate D2E/DX2                !
 ! D26   D(2,3,8,7)            177.2574         estimate D2E/DX2                !
 ! D27   D(2,3,8,23)            -3.68           estimate D2E/DX2                !
 ! D28   D(4,3,8,7)              0.8912         estimate D2E/DX2                !
 ! D29   D(4,3,8,23)           179.9538         estimate D2E/DX2                !
 ! D30   D(3,4,5,6)              0.7041         estimate D2E/DX2                !
 ! D31   D(3,4,5,20)          -179.4637         estimate D2E/DX2                !
 ! D32   D(19,4,5,6)          -179.3192         estimate D2E/DX2                !
 ! D33   D(19,4,5,20)            0.5129         estimate D2E/DX2                !
 ! D34   D(4,5,6,7)              0.1312         estimate D2E/DX2                !
 ! D35   D(4,5,6,21)           179.9203         estimate D2E/DX2                !
 ! D36   D(20,5,6,7)          -179.7006         estimate D2E/DX2                !
 ! D37   D(20,5,6,21)            0.0885         estimate D2E/DX2                !
 ! D38   D(5,6,7,8)             -0.4676         estimate D2E/DX2                !
 ! D39   D(5,6,7,22)           179.7933         estimate D2E/DX2                !
 ! D40   D(21,6,7,8)           179.7439         estimate D2E/DX2                !
 ! D41   D(21,6,7,22)            0.0047         estimate D2E/DX2                !
 ! D42   D(6,7,8,3)             -0.0376         estimate D2E/DX2                !
 ! D43   D(6,7,8,23)          -179.0668         estimate D2E/DX2                !
 ! D44   D(22,7,8,3)           179.7021         estimate D2E/DX2                !
 ! D45   D(22,7,8,23)            0.673          estimate D2E/DX2                !
 ! D46   D(2,9,10,11)          -50.0013         estimate D2E/DX2                !
 ! D47   D(2,9,10,26)         -171.1004         estimate D2E/DX2                !
 ! D48   D(2,9,10,27)           72.6996         estimate D2E/DX2                !
 ! D49   D(24,9,10,11)          67.0955         estimate D2E/DX2                !
 ! D50   D(24,9,10,26)         -54.0035         estimate D2E/DX2                !
 ! D51   D(24,9,10,27)        -170.2036         estimate D2E/DX2                !
 ! D52   D(25,9,10,11)        -170.7312         estimate D2E/DX2                !
 ! D53   D(25,9,10,26)          68.1698         estimate D2E/DX2                !
 ! D54   D(25,9,10,27)         -48.0303         estimate D2E/DX2                !
 ! D55   D(9,10,11,12)         140.8901         estimate D2E/DX2                !
 ! D56   D(9,10,11,16)         -40.5207         estimate D2E/DX2                !
 ! D57   D(26,10,11,12)        -98.5817         estimate D2E/DX2                !
 ! D58   D(26,10,11,16)         80.0075         estimate D2E/DX2                !
 ! D59   D(27,10,11,12)         17.6065         estimate D2E/DX2                !
 ! D60   D(27,10,11,16)       -163.8043         estimate D2E/DX2                !
 ! D61   D(10,11,12,13)        179.4933         estimate D2E/DX2                !
 ! D62   D(10,11,12,28)         -1.1456         estimate D2E/DX2                !
 ! D63   D(16,11,12,13)          0.8606         estimate D2E/DX2                !
 ! D64   D(16,11,12,28)       -179.7783         estimate D2E/DX2                !
 ! D65   D(10,11,16,15)       -179.7753         estimate D2E/DX2                !
 ! D66   D(10,11,16,32)          1.4158         estimate D2E/DX2                !
 ! D67   D(12,11,16,15)         -1.1772         estimate D2E/DX2                !
 ! D68   D(12,11,16,32)       -179.9861         estimate D2E/DX2                !
 ! D69   D(11,12,13,14)          0.0102         estimate D2E/DX2                !
 ! D70   D(11,12,13,29)        179.7002         estimate D2E/DX2                !
 ! D71   D(28,12,13,14)       -179.3512         estimate D2E/DX2                !
 ! D72   D(28,12,13,29)          0.3388         estimate D2E/DX2                !
 ! D73   D(12,13,14,15)         -0.5726         estimate D2E/DX2                !
 ! D74   D(12,13,14,30)        179.5587         estimate D2E/DX2                !
 ! D75   D(29,13,14,15)        179.7389         estimate D2E/DX2                !
 ! D76   D(29,13,14,30)         -0.1299         estimate D2E/DX2                !
 ! D77   D(13,14,15,16)          0.2544         estimate D2E/DX2                !
 ! D78   D(13,14,15,31)       -179.8358         estimate D2E/DX2                !
 ! D79   D(30,14,15,16)       -179.877          estimate D2E/DX2                !
 ! D80   D(30,14,15,31)          0.0328         estimate D2E/DX2                !
 ! D81   D(14,15,16,11)          0.6319         estimate D2E/DX2                !
 ! D82   D(14,15,16,32)        179.4541         estimate D2E/DX2                !
 ! D83   D(31,15,16,11)       -179.2784         estimate D2E/DX2                !
 ! D84   D(31,15,16,32)         -0.4562         estimate D2E/DX2                !
 --------------------------------------------------------------------------------
 Trust Radius=3.00D-01 FncErr=1.00D-07 GrdErr=1.00D-06 EigMax=2.50D+02 EigMin=1.00D-04
 Number of steps in this run=    184 maximum allowed number of steps=    198.
 GradGradGradGradGradGradGradGradGradGradGradGradGradGradGradGradGradGrad

                          Input orientation:                          
 ---------------------------------------------------------------------
 Center     Atomic      Atomic             Coordinates (Angstroms)
 Number     Number       Type             X           Y           Z
 ---------------------------------------------------------------------
      1          7           0        3.304189    0.621255    0.637785
      2         16           0        1.934636   -0.064441    0.547399
      3          6           0        0.649823    1.120184    0.007201
      4          6           0        0.813172    1.853473   -1.152414
      5          6           0       -0.151289    2.780865   -1.510222
      6          6           0       -1.258050    2.974595   -0.699153
      7          6           0       -1.403898    2.246560    0.470729
      8          6           0       -0.444463    1.314604    0.825895
      9          6           0        1.858607   -1.383898   -0.757717
     10          6           0        0.559182   -1.450274   -1.541915
     11          6           0       -0.685259   -1.477188   -0.693679
     12          6           0       -1.805654   -0.763802   -1.102930
     13          6           0       -2.967332   -0.775576   -0.353188
     14          6           0       -3.024336   -1.504439    0.821907
     15          6           0       -1.917474   -2.227244    1.231243
     16          6           0       -0.757454   -2.220237    0.476911
     17          7           0        1.533260   -0.799564    1.819950
     18          1           0        3.548560    1.186286   -0.158939
     19          1           0        1.685742    1.702737   -1.772728
     20          1           0       -0.037761    3.353296   -2.419238
     21          1           0       -2.007554    3.699465   -0.980485
     22          1           0       -2.265153    2.401483    1.102696
     23          1           0       -0.530822    0.718321    1.721351
     24          1           0        2.040652   -2.291970   -0.189994
     25          1           0        2.704465   -1.203601   -1.419647
     26          1           0        0.586529   -2.359029   -2.155492
     27          1           0        0.497371   -0.602093   -2.228525
     28          1           0       -1.765290   -0.183336   -2.014724
     29          1           0       -3.826214   -0.210705   -0.685423
     30          1           0       -3.927875   -1.510220    1.413862
     31          1           0       -1.954361   -2.800775    2.145465
     32          1           0        0.095559   -2.782664    0.818188
     33          1           0        1.929484   -0.400429    2.653978
 ---------------------------------------------------------------------
                    Distance matrix (angstroms):
                    1          2          3          4          5
     1  N    0.000000
     2  S    1.534283   0.000000
     3  C    2.773486   1.829179   0.000000
     4  C    3.305804   2.797399   1.381703   0.000000
     5  C    4.606319   4.084196   2.387931   1.385015   0.000000
     6  C    5.304681   4.580707   2.752772   2.398399   1.385743
     7  C    4.983533   4.061085   2.387750   2.775699   2.403888
     8  C    3.816871   2.763953   1.380406   2.405355   2.773683
     9  C    2.838621   1.857437   2.883866   3.424806   4.685211
    10  C    4.071534   2.859657   3.002537   3.336310   4.290491
    11  C    4.700208   3.224900   3.003335   3.680902   4.368396
    12  C    5.573057   4.147585   3.288033   3.702813   3.932871
    13  C    6.501164   5.034487   4.099706   4.673636   4.681570
    14  C    6.678526   5.171108   4.588228   5.468088   5.661896
    15  C    5.977617   4.470359   4.392558   5.458067   5.976303
    16  C    4.959526   3.449605   3.655061   4.660116   5.415456
    17  N    2.559772   1.523448   2.784233   4.048713   5.171771
    18  H    1.006850   2.160552   2.904247   2.985713   4.249415
    19  H    3.098314   2.927090   2.140244   1.081152   2.146148
    20  H    5.289429   4.936822   3.368555   2.139719   1.080220
    21  H    6.348920   5.660590   3.832736   3.375461   2.137795
    22  H    5.865401   4.901772   3.367332   3.855117   3.382262
    23  H    3.986332   2.840662   2.119841   3.369483   3.852427
    24  H    3.281558   2.348802   3.689998   4.429183   5.681660
    25  H    2.814746   2.399915   3.414298   3.604734   4.903010
    26  H    4.906135   3.793171   4.097093   4.336209   5.232520
    27  H    4.194108   3.171838   2.826296   2.699546   3.518682
    28  H    5.777784   4.502006   3.408828   3.397151   3.412626
    29  H    7.299704   5.893100   4.720794   5.099295   4.809871
    30  H    7.579461   6.100006   5.463793   6.354347   6.420769
    31  H    6.452576   5.016537   5.169901   6.340132   6.911572
    32  H    4.681295   3.293064   4.024566   5.088420   6.036165
    33  H    2.645503   2.133211   3.309868   4.562329   5.638334
                    6          7          8          9         10
     6  C    0.000000
     7  C    1.385616   0.000000
     8  C    2.396512   1.383908   0.000000
     9  C    5.358493   5.033214   3.885083   0.000000
    10  C    4.857165   4.644459   3.776027   1.519170   0.000000
    11  C    4.488485   3.967189   3.187662   2.546382   1.506275
    12  C    3.799805   3.420539   3.145311   3.732358   2.501280
    13  C    4.135834   3.500924   3.481947   4.880920   3.782141
    14  C    5.049272   4.101115   3.821357   5.133505   4.293273
    15  C    5.587522   4.566953   3.857299   4.350400   3.798409
    16  C    5.349767   4.513336   3.565789   3.011236   2.530224
    17  N    5.327435   4.441414   3.060921   2.663017   3.560111
    18  H    5.156877   5.103675   4.114681   3.133740   4.219058
    19  H    3.381730   3.856775   3.382493   3.253836   3.356172
    20  H    2.142711   3.382765   3.853902   5.366365   4.919382
    21  H    1.079972   2.140410   3.375474   6.390415   5.781276
    22  H    2.142283   1.079419   2.138420   5.898783   5.459567
    23  H    3.387989   2.159127   1.079283   4.034163   4.066918
    24  H    6.235173   5.735829   4.496132   1.086298   2.175062
    25  H    5.803272   5.688214   4.615145   1.089098   2.162876
    26  H    5.828460   5.663063   4.842230   2.126696   1.096841
    27  H    4.267690   4.360689   3.726963   2.151153   1.093007
    28  H    3.458403   3.494635   3.472395   4.019209   2.689209
    29  H    4.091673   3.639018   4.005857   5.805066   4.637004
    30  H    5.630840   4.623132   4.523217   6.181835   5.373444
    31  H    6.475462   5.346339   4.577926   4.997472   4.662459
    32  H    6.105786   5.259486   4.132710   2.747428   2.749600
    33  H    5.726661   4.783781   3.452368   3.551323   4.537116
                   11         12         13         14         15
    11  C    0.000000
    12  C    1.389853   0.000000
    13  C    2.411648   1.382660   0.000000
    14  C    2.787297   2.395564   1.383958   0.000000
    15  C    2.405465   2.757269   2.391644   1.383888   0.000000
    16  C    1.388386   2.390779   2.767611   2.402113   1.383731
    17  N    3.420429   4.437663   4.997842   4.718540   3.780530
    18  H    5.030434   5.775948   6.807605   7.169730   6.592596
    19  H    4.110708   4.326926   5.459691   6.261226   6.119784
    20  H    5.170144   4.669969   5.467955   6.559135   6.928330
    21  H    5.350557   4.469509   4.619596   5.600276   6.326589
    22  H    4.557095   3.885223   3.564597   3.988913   4.643545
    23  H    3.267489   3.434887   3.531575   3.459375   3.292319
    24  H    2.889318   4.238257   5.235072   5.224773   4.206051
    25  H    3.477371   4.542566   5.787039   6.159077   5.425623
    26  H    2.128846   3.061891   4.287838   4.757476   4.213949
    27  H    2.126066   2.568469   3.943494   4.745712   4.521347
    28  H    2.141419   1.081636   2.134562   3.372978   3.838882
    29  H    3.386686   2.136092   1.080342   2.142149   3.373918
    30  H    3.867477   3.375679   2.141217   1.080198   2.142239
    31  H    3.379829   3.837115   3.372063   2.139425   1.079862
    32  H    2.144688   3.373590   3.844714   3.371590   2.128710
    33  H    4.382134   5.310146   5.758696   5.395892   4.490046
                   16         17         18         19         20
    16  C    0.000000
    17  N    3.011550   0.000000
    18  H    5.527247   3.452686   0.000000
    19  H    5.140020   4.380878   2.518160   0.000000
    20  H    6.322176   6.138816   4.760943   2.472404   0.000000
    21  H    6.223313   6.373465   6.153162   4.272587   2.463722
    22  H    4.901536   5.018873   6.071877   4.936181   4.274488
    23  H    3.199237   2.564006   4.516175   4.253330   4.932613
    24  H    2.877378   2.554329   3.791176   4.311460   6.415478
    25  H    4.076194   3.468423   2.830803   3.099881   5.411497
    26  H    2.958901   4.374056   5.032804   4.225248   5.752388
    27  H    3.392987   4.183564   4.097712   2.632910   3.995978
    28  H    3.372379   5.095575   5.792823   3.940235   3.956736
    29  H    3.847925   5.945385   7.524364   5.935077   5.482754
    30  H    3.381357   5.522131   8.101971   7.210419   7.312963
    31  H    2.133937   4.034143   7.175589   6.991725   7.898257
    32  H    1.077230   2.646355   5.350754   5.418520   6.938927
    33  H    3.907807   1.005934   3.612696   4.906979   6.610448
                   21         22         23         24         25
    21  H    0.000000
    22  H    2.467947   0.000000
    23  H    4.285776   2.494729   0.000000
    24  H    7.273935   6.499193   4.396313   0.000000
    25  H    6.814400   6.637466   4.901707   1.771226   0.000000
    26  H    6.694420   6.435088   5.074295   2.445844   2.522327
    27  H    5.131827   5.267830   4.289777   3.064802   2.426388
    28  H    4.025480   4.080375   4.036725   4.718174   4.623177
    29  H    4.322501   3.529561   4.185123   6.244776   6.646404
    30  H    6.046598   4.261793   4.074422   6.229511   7.218776
    31  H    7.213010   5.314833   3.819735   4.655468   6.079938
    32  H    7.048142   5.703445   3.669462   2.245128   3.782557
    33  H    6.746756   5.277515   2.859108   3.417376   4.223754
                   26         27         28         29         30
    26  H    0.000000
    27  H    1.760713   0.000000
    28  H    3.206947   2.310995   0.000000
    29  H    5.123349   4.607356   2.452589   0.000000
    30  H    5.817268   5.802971   4.265278   2.471047   0.000000
    31  H    5.014927   5.475124   4.918730   4.269218   2.468913
    32  H    3.043566   3.768130   4.271376   4.925051   4.261685
    33  H    5.363827   5.092195   5.957789   6.657000   6.089185
                   31         32         33
    31  H    0.000000
    32  H    2.442164   0.000000
    33  H    4.593963   3.522562   0.000000
 Stoichiometry    C14H16N2S
 Framework group  C1[X(C14H16N2S)]
 Deg. of freedom    93
 Full point group                 C1      NOp   1
 Largest Abelian subgroup         C1      NOp   1
 Largest concise Abelian subgroup C1      NOp   1
                         Standard orientation:                         
 ---------------------------------------------------------------------
 Center     Atomic      Atomic             Coordinates (Angstroms)
 Number     Number       Type             X           Y           Z
 ---------------------------------------------------------------------
      1          7           0       -3.282450   -0.855877   -0.558948
      2         16           0       -1.758902   -0.929279   -0.393303
      3          6           0       -1.038684    0.746936   -0.261066
      4          6           0       -1.506438    1.640125    0.683668
      5          6           0       -0.978701    2.919915    0.727254
      6          6           0       -0.002225    3.295885   -0.181274
      7          6           0        0.447693    2.398139   -1.136029
      8          6           0       -0.073751    1.116859   -1.176261
      9          6           0       -1.230766   -1.735098    1.194715
     10          6           0       -0.030123   -1.103059    1.877988
     11          6           0        1.158645   -0.881508    0.979874
     12          6           0        1.910100    0.279680    1.116433
     13          6           0        3.013348    0.509331    0.315277
     14          6           0        3.381614   -0.423801   -0.638130
     15          6           0        2.646249   -1.588321   -0.773326
     16          6           0        1.546192   -1.820398    0.033350
     17          7           0       -1.066658   -1.764305   -1.463080
     18          1           0       -3.749235   -0.237247    0.083823
     19          1           0       -2.276419    1.340510    1.380983
     20          1           0       -1.331039    3.623395    1.467422
     21          1           0        0.406198    4.295002   -0.145301
     22          1           0        1.206009    2.694205   -1.844864
     23          1           0        0.262076    0.385504   -1.895421
     24          1           0       -1.035537   -2.759148    0.889348
     25          1           0       -2.103113   -1.719306    1.846556
     26          1           0        0.269354   -1.762202    2.701945
     27          1           0       -0.317702   -0.146405    2.321583
     28          1           0        1.622263    1.018450    1.852167
     29          1           0        3.581960    1.420318    0.433265
     30          1           0        4.238716   -0.244470   -1.270620
     31          1           0        2.928320   -2.322856   -1.512917
     32          1           0        0.982377   -2.729365   -0.094390
     33          1           0       -1.556962   -1.774758   -2.341372
 ---------------------------------------------------------------------
 Rotational constants (GHZ):           0.5794397           0.4784861           0.3416825
 Standard basis: def2SVP (5D, 7F)
 There are   339 symmetry adapted cartesian basis functions of A   symmetry.
 There are   322 symmetry adapted basis functions of A   symmetry.
   322 basis functions,   549 primitive gaussians,   339 cartesian basis functions
    65 alpha electrons       65 beta electrons
       nuclear repulsion energy      1378.2357166997 Hartrees.
 NAtoms=   33 NActive=   33 NUniq=   33 SFac= 1.00D+00 NAtFMM=   60 NAOKFM=F Big=F
 Integral buffers will be    131072 words long.
 Raffenetti 2 integral format.
 Two-electron integral symmetry is turned on.
 Nuclear repulsion after empirical dispersion term =     1378.1888858244 Hartrees.
 One-electron integrals computed using PRISM.
   1 Symmetry operations used in ECPInt.
 ECPInt:  NShTT=   11628 NPrTT=   42474 LenC2=   11297 LenP2D=   30296.
 LDataN:  DoStor=T MaxTD1= 4 Len=   56
 NBasis=   322 RedAO= T EigKep=  2.42D-04  NBF=   322
 NBsUse=   322 1.00D-06 EigRej= -1.00D+00 NBFU=   322
 ExpMin= 1.22D-01 ExpMax= 9.18D+03 ExpMxC= 1.38D+03 IAcc=3 IRadAn=         5 AccDes= 0.00D+00
 Harris functional with IExCor= 1009 and IRadAn=       5 diagonalized for initial guess.
 HarFok:  IExCor= 1009 AccDes= 0.00D+00 IRadAn=         5 IDoV= 1 UseB2=F ITyADJ=14
 ICtDFT=  3500011 ScaDFX=  1.000000  1.000000  1.000000  1.000000
 FoFCou: FMM=F IPFlag=           0 FMFlag=      100000 FMFlg1=           0
         NFxFlg=           0 DoJE=T BraDBF=F KetDBF=T FulRan=T
         wScrn=  0.000000 ICntrl=       500 IOpCl=  0 I1Cent=   200000004 NGrid=           0
         NMat0=    1 NMatS0=      1 NMatT0=    0 NMatD0=    1 NMtDS0=    0 NMtDT0=    0
 Petite list used in FoFCou.
 Requested convergence on RMS density matrix=1.00D-08 within 128 cycles.
 Requested convergence on MAX density matrix=1.00D-06.
 Requested convergence on             energy=1.00D-06.
 No special actions if energy rises.
 Integral accuracy reduced to 1.0D-05 until final iterations.
 Initial convergence to 1.0D-05 achieved.  Increase integral accuracy.
 SCF Done:  E(RPBE1PBE) =  -1049.21120144     A.U. after   15 cycles
            NFock= 15  Conv=0.67D-08     -V/T= 2.0069

 **********************************************************************

            Population analysis using the SCF Density.

 **********************************************************************

 Orbital symmetries:
       Occupied  (A) (A) (A) (A) (A) (A) (A) (A) (A) (A) (A) (A)
                 (A) (A) (A) (A) (A) (A) (A) (A) (A) (A) (A) (A)
                 (A) (A) (A) (A) (A) (A) (A) (A) (A) (A) (A) (A)
                 (A) (A) (A) (A) (A) (A) (A) (A) (A) (A) (A) (A)
                 (A) (A) (A) (A) (A) (A) (A) (A) (A) (A) (A) (A)
                 (A) (A) (A) (A) (A)
       Virtual   (A) (A) (A) (A) (A) (A) (A) (A) (A) (A) (A) (A)
                 (A) (A) (A) (A) (A) (A) (A) (A) (A) (A) (A) (A)
                 (A) (A) (A) (A) (A) (A) (A) (A) (A) (A) (A) (A)
                 (A) (A) (A) (A) (A) (A) (A) (A) (A) (A) (A) (A)
                 (A) (A) (A) (A) (A) (A) (A) (A) (A) (A) (A) (A)
                 (A) (A) (A) (A) (A) (A) (A) (A) (A) (A) (A) (A)
                 (A) (A) (A) (A) (A) (A) (A) (A) (A) (A) (A) (A)
                 (A) (A) (A) (A) (A) (A) (A) (A) (A) (A) (A) (A)
                 (A) (A) (A) (A) (A) (A) (A) (A) (A) (A) (A) (A)
                 (A) (A) (A) (A) (A) (A) (A) (A) (A) (A) (A) (A)
                 (A) (A) (A) (A) (A) (A) (A) (A) (A) (A) (A) (A)
                 (A) (A) (A) (A) (A) (A) (A) (A) (A) (A) (A) (A)
                 (A) (A) (A) (A) (A) (A) (A) (A) (A) (A) (A) (A)
                 (A) (A) (A) (A) (A) (A) (A) (A) (A) (A) (A) (A)
                 (A) (A) (A) (A) (A) (A) (A) (A) (A) (A) (A) (A)
                 (A) (A) (A) (A) (A) (A) (A) (A) (A) (A) (A) (A)
                 (A) (A) (A) (A) (A) (A) (A) (A) (A) (A) (A) (A)
                 (A) (A) (A) (A) (A) (A) (A) (A) (A) (A) (A) (A)
                 (A) (A) (A) (A) (A) (A) (A) (A) (A) (A) (A) (A)
                 (A) (A) (A) (A) (A) (A) (A) (A) (A) (A) (A) (A)
                 (A) (A) (A) (A) (A) (A) (A) (A) (A) (A) (A) (A)
                 (A) (A) (A) (A) (A)
 The electronic state is 1-A.
 Alpha  occ. eigenvalues --  -89.17600 -14.33878 -14.33360 -10.26466 -10.26199
 Alpha  occ. eigenvalues --  -10.25861 -10.25266 -10.25193 -10.25056 -10.24814
 Alpha  occ. eigenvalues --  -10.24762 -10.23993 -10.23017 -10.22971 -10.22938
 Alpha  occ. eigenvalues --  -10.22816 -10.22660  -8.15067  -6.09158  -6.09120
 Alpha  occ. eigenvalues --   -6.09078  -1.00234  -0.89642  -0.88108  -0.84452
 Alpha  occ. eigenvalues --   -0.82383  -0.78584  -0.78088  -0.75997  -0.75425
 Alpha  occ. eigenvalues --   -0.68606  -0.65483  -0.63870  -0.61826  -0.60718
 Alpha  occ. eigenvalues --   -0.58809  -0.55709  -0.53440  -0.51564  -0.50500
 Alpha  occ. eigenvalues --   -0.49532  -0.48668  -0.47185  -0.46813  -0.45769
 Alpha  occ. eigenvalues --   -0.45243  -0.44892  -0.43920  -0.42878  -0.40795
 Alpha  occ. eigenvalues --   -0.40649  -0.39344  -0.38146  -0.37503  -0.37038
 Alpha  occ. eigenvalues --   -0.35022  -0.34678  -0.30337  -0.29395  -0.28460
 Alpha  occ. eigenvalues --   -0.27399  -0.25652  -0.25175  -0.24479  -0.23921
 Alpha virt. eigenvalues --   -0.03328  -0.01738   0.00174   0.00688   0.04432
 Alpha virt. eigenvalues --    0.06662   0.07732   0.07966   0.08206   0.09369
 Alpha virt. eigenvalues --    0.09753   0.10826   0.11661   0.12496   0.13180
 Alpha virt. eigenvalues --    0.13258   0.14109   0.14654   0.15367   0.16460
 Alpha virt. eigenvalues --    0.17462   0.17615   0.18082   0.19464   0.20484
 Alpha virt. eigenvalues --    0.21906   0.24172   0.26364   0.28655   0.29023
 Alpha virt. eigenvalues --    0.30317   0.30656   0.31399   0.31854   0.33080
 Alpha virt. eigenvalues --    0.33267   0.34487   0.36939   0.39034   0.40189
 Alpha virt. eigenvalues --    0.41633   0.42374   0.43649   0.44122   0.44970
 Alpha virt. eigenvalues --    0.45817   0.46790   0.47256   0.47882   0.48288
 Alpha virt. eigenvalues --    0.49442   0.50200   0.50277   0.50633   0.52043
 Alpha virt. eigenvalues --    0.52560   0.53018   0.54811   0.56238   0.57020
 Alpha virt. eigenvalues --    0.58494   0.60149   0.61035   0.61695   0.62623
 Alpha virt. eigenvalues --    0.63373   0.64624   0.65498   0.65610   0.66097
 Alpha virt. eigenvalues --    0.66512   0.67066   0.67342   0.67805   0.68576
 Alpha virt. eigenvalues --    0.69101   0.69915   0.70297   0.70778   0.71063
 Alpha virt. eigenvalues --    0.71715   0.72144   0.73148   0.73236   0.74107
 Alpha virt. eigenvalues --    0.74577   0.75574   0.75806   0.77149   0.77716
 Alpha virt. eigenvalues --    0.78491   0.79388   0.80623   0.80961   0.82992
 Alpha virt. eigenvalues --    0.83660   0.84492   0.85089   0.85584   0.87478
 Alpha virt. eigenvalues --    0.87565   0.88992   0.89475   0.91241   0.93610
 Alpha virt. eigenvalues --    0.95639   0.97323   0.98721   0.99244   1.02422
 Alpha virt. eigenvalues --    1.02629   1.04142   1.06713   1.08607   1.10840
 Alpha virt. eigenvalues --    1.12161   1.12908   1.13756   1.16278   1.17756
 Alpha virt. eigenvalues --    1.20459   1.22914   1.23034   1.24259   1.24388
 Alpha virt. eigenvalues --    1.26082   1.26596   1.26844   1.28705   1.29808
 Alpha virt. eigenvalues --    1.30277   1.31188   1.31623   1.33503   1.35561
 Alpha virt. eigenvalues --    1.37523   1.39175   1.40511   1.44989   1.46590
 Alpha virt. eigenvalues --    1.49468   1.51218   1.52889   1.54683   1.57864
 Alpha virt. eigenvalues --    1.60104   1.67378   1.68097   1.69004   1.69667
 Alpha virt. eigenvalues --    1.70348   1.70576   1.71292   1.73683   1.75073
 Alpha virt. eigenvalues --    1.75742   1.76090   1.76489   1.77262   1.78020
 Alpha virt. eigenvalues --    1.78683   1.79685   1.80377   1.80577   1.82270
 Alpha virt. eigenvalues --    1.82383   1.82567   1.83569   1.85293   1.85687
 Alpha virt. eigenvalues --    1.86480   1.88130   1.90555   1.91439   1.92802
 Alpha virt. eigenvalues --    1.95045   1.96205   1.96660   1.97827   1.98453
 Alpha virt. eigenvalues --    1.99243   2.00647   2.02406   2.02748   2.03947
 Alpha virt. eigenvalues --    2.05721   2.06844   2.08547   2.10930   2.12920
 Alpha virt. eigenvalues --    2.13900   2.15198   2.16509   2.17237   2.18571
 Alpha virt. eigenvalues --    2.18700   2.20609   2.22751   2.23371   2.25409
 Alpha virt. eigenvalues --    2.28154   2.29056   2.31030   2.31405   2.31973
 Alpha virt. eigenvalues --    2.32891   2.34229   2.35522   2.36651   2.37398
 Alpha virt. eigenvalues --    2.38626   2.39144   2.41276   2.43589   2.44399
 Alpha virt. eigenvalues --    2.45807   2.50467   2.52210   2.53010   2.55601
 Alpha virt. eigenvalues --    2.59967   2.60290   2.62410   2.64555   2.65076
 Alpha virt. eigenvalues --    2.65580   2.66412   2.67337   2.67957   2.68378
 Alpha virt. eigenvalues --    2.71869   2.75795   2.77132   2.78161   2.78996
 Alpha virt. eigenvalues --    2.81706   2.84990   2.86977   2.87900   2.89541
 Alpha virt. eigenvalues --    2.92279   2.93156   2.93944   2.97920   2.99014
 Alpha virt. eigenvalues --    3.03844   3.05413   3.06940   3.14071   3.16266
 Alpha virt. eigenvalues --    3.18700   3.24467   3.28663   3.30836   3.33546
 Alpha virt. eigenvalues --    3.66115   3.70481
          Condensed to atoms (all electrons):
               1          2          3          4          5          6
     1  N    6.906678   0.335211  -0.036559  -0.001092   0.000002  -0.000022
     2  S    0.335211  14.739145   0.038656  -0.028921   0.000718   0.000296
     3  C   -0.036559   0.038656   6.048746   0.075899   0.103815  -0.196759
     4  C   -0.001092  -0.028921   0.075899   5.227762   0.302006   0.097789
     5  C    0.000002   0.000718   0.103815   0.302006   5.045387   0.264702
     6  C   -0.000022   0.000296  -0.196759   0.097789   0.264702   5.152373
     7  C   -0.000091   0.006360   0.118297  -0.152651   0.096075   0.234158
     8  C   -0.000444  -0.028569   0.271542   0.068381  -0.140222   0.118587
     9  C   -0.052618   0.203901  -0.111206  -0.012971  -0.000982  -0.000168
    10  C    0.003241  -0.012896   0.022149  -0.005142   0.000096   0.000019
    11  C    0.000124  -0.018370  -0.013999   0.000132   0.000068  -0.000191
    12  C   -0.000012   0.000191  -0.001952  -0.002180  -0.000169  -0.000064
    13  C    0.000000  -0.000089  -0.001117   0.000136  -0.000119   0.000335
    14  C   -0.000000  -0.000201   0.000223   0.000020  -0.000019   0.000097
    15  C   -0.000002   0.001059  -0.000446  -0.000011   0.000008  -0.000028
    16  C    0.000067  -0.002245  -0.000013   0.000616  -0.000021   0.000035
    17  N   -0.068009   0.359405  -0.077002   0.007344  -0.000011  -0.000044
    18  H    0.315525  -0.004047  -0.009956   0.007017   0.000747   0.000014
    19  H    0.001472  -0.002984  -0.095814   0.446858  -0.048015   0.013917
    20  H    0.000006  -0.000129   0.018270  -0.073994   0.455086  -0.073260
    21  H    0.000000   0.000020  -0.001576   0.015419  -0.070697   0.451241
    22  H    0.000003  -0.000180   0.017820  -0.001893   0.014596  -0.076404
    23  H    0.000757  -0.010667  -0.070135   0.017220  -0.002306   0.013169
    24  H    0.002849  -0.011133   0.008232  -0.000069   0.000010   0.000003
    25  H    0.007776  -0.004658   0.001203   0.002774   0.000106   0.000010
    26  H   -0.000123   0.004652  -0.000010  -0.000100  -0.000015  -0.000008
    27  H    0.000169  -0.009027   0.003703   0.006271  -0.000279  -0.000216
    28  H    0.000000   0.000062  -0.001283   0.000520   0.001677   0.001366
    29  H   -0.000000   0.000001  -0.000038  -0.000036   0.000046   0.000154
    30  H    0.000000  -0.000001  -0.000006   0.000000   0.000000  -0.000002
    31  H    0.000000   0.000016  -0.000028   0.000000  -0.000000   0.000000
    32  H    0.000031  -0.003894   0.000439  -0.000004  -0.000002   0.000002
    33  H    0.004450  -0.003890  -0.001518  -0.000729  -0.000018   0.000005
               7          8          9         10         11         12
     1  N   -0.000091  -0.000444  -0.052618   0.003241   0.000124  -0.000012
     2  S    0.006360  -0.028569   0.203901  -0.012896  -0.018370   0.000191
     3  C    0.118297   0.271542  -0.111206   0.022149  -0.013999  -0.001952
     4  C   -0.152651   0.068381  -0.012971  -0.005142   0.000132  -0.002180
     5  C    0.096075  -0.140222  -0.000982   0.000096   0.000068  -0.000169
     6  C    0.234158   0.118587  -0.000168   0.000019  -0.000191  -0.000064
     7  C    5.138464   0.210405  -0.000250   0.000560  -0.000639  -0.005019
     8  C    0.210405   5.096791   0.002967  -0.002016  -0.007401  -0.008658
     9  C   -0.000250   0.002967   5.273696   0.218381  -0.033229   0.009100
    10  C    0.000560  -0.002016   0.218381   4.929046   0.285262  -0.085722
    11  C   -0.000639  -0.007401  -0.033229   0.285262   5.529519   0.274446
    12  C   -0.005019  -0.008658   0.009100  -0.085722   0.274446   5.127516
    13  C    0.001145  -0.004532  -0.000770   0.014275   0.099136   0.293965
    14  C   -0.000199   0.001280   0.000155  -0.000799  -0.175653   0.099224
    15  C    0.000091  -0.000820  -0.000903   0.015187   0.101546  -0.145882
    16  C    0.000064  -0.001951  -0.005231  -0.109684   0.241607   0.064155
    17  N    0.001921   0.002147  -0.083985  -0.007010   0.001904  -0.000306
    18  H   -0.000074  -0.000801  -0.002439   0.000236  -0.000019   0.000009
    19  H   -0.001201   0.012373   0.002377  -0.002816   0.000474  -0.000116
    20  H    0.014782  -0.002113   0.000049  -0.000028  -0.000016  -0.000003
    21  H   -0.069778   0.014597  -0.000000   0.000001  -0.000014  -0.000020
    22  H    0.458369  -0.074180   0.000017  -0.000022  -0.000052  -0.000215
    23  H   -0.058048   0.437167   0.001595  -0.000393  -0.001847  -0.002104
    24  H   -0.000009   0.000064   0.329241   0.018893  -0.017626  -0.000223
    25  H    0.000009  -0.000330   0.322608   0.001724   0.008224  -0.000242
    26  H   -0.000010  -0.000009   0.003035   0.331777   0.000027   0.000709
    27  H    0.000104   0.000360  -0.017825   0.370766  -0.024816  -0.012592
    28  H    0.000203  -0.001695   0.000561  -0.020408  -0.077178   0.456388
    29  H    0.000595  -0.000092   0.000010  -0.000370   0.017878  -0.074349
    30  H   -0.000005  -0.000010  -0.000001   0.000041  -0.001444   0.014941
    31  H   -0.000002  -0.000004   0.000003  -0.000370   0.017392  -0.001968
    32  H   -0.000032   0.000004   0.008448  -0.026329  -0.072254   0.014966
    33  H   -0.000023   0.001707   0.007014  -0.000252   0.000176   0.000015
              13         14         15         16         17         18
     1  N    0.000000  -0.000000  -0.000002   0.000067  -0.068009   0.315525
     2  S   -0.000089  -0.000201   0.001059  -0.002245   0.359405  -0.004047
     3  C   -0.001117   0.000223  -0.000446  -0.000013  -0.077002  -0.009956
     4  C    0.000136   0.000020  -0.000011   0.000616   0.007344   0.007017
     5  C   -0.000119  -0.000019   0.000008  -0.000021  -0.000011   0.000747
     6  C    0.000335   0.000097  -0.000028   0.000035  -0.000044   0.000014
     7  C    0.001145  -0.000199   0.000091   0.000064   0.001921  -0.000074
     8  C   -0.004532   0.001280  -0.000820  -0.001951   0.002147  -0.000801
     9  C   -0.000770   0.000155  -0.000903  -0.005231  -0.083985  -0.002439
    10  C    0.014275  -0.000799   0.015187  -0.109684  -0.007010   0.000236
    11  C    0.099136  -0.175653   0.101546   0.241607   0.001904  -0.000019
    12  C    0.293965   0.099224  -0.145882   0.064155  -0.000306   0.000009
    13  C    5.080801   0.251724   0.092131  -0.144785   0.000127  -0.000000
    14  C    0.251724   5.162523   0.260426   0.090624  -0.000232   0.000000
    15  C    0.092131   0.260426   5.045420   0.315513  -0.001566   0.000000
    16  C   -0.144785   0.090624   0.315513   5.078337  -0.000805  -0.000008
    17  N    0.000127  -0.000232  -0.001566  -0.000805   6.903557   0.004609
    18  H   -0.000000   0.000000   0.000000  -0.000008   0.004609   0.576159
    19  H   -0.000009   0.000000   0.000001  -0.000014   0.000348   0.003691
    20  H   -0.000008   0.000000  -0.000000   0.000000   0.000001  -0.000012
    21  H   -0.000006  -0.000000  -0.000000   0.000001  -0.000000  -0.000000
    22  H    0.001041   0.000306   0.000090  -0.000057   0.000001   0.000000
    23  H    0.000602   0.000939   0.001733   0.000949   0.030490  -0.000159
    24  H    0.000051  -0.000011   0.000318   0.004654   0.011245  -0.000100
    25  H    0.000012   0.000001   0.000002   0.000436   0.004851   0.001497
    26  H   -0.000702   0.000111  -0.000193  -0.007189  -0.000338  -0.000003
    27  H    0.000671  -0.000027  -0.000357   0.011348  -0.000066  -0.000126
    28  H   -0.069676   0.015908  -0.002192   0.016402   0.000002  -0.000000
    29  H    0.453971  -0.077352   0.015071  -0.001995   0.000000  -0.000000
    30  H   -0.073613   0.451134  -0.071136   0.015044  -0.000001   0.000000
    31  H    0.015221  -0.078921   0.453084  -0.068686   0.000164  -0.000000
    32  H   -0.001859   0.015373  -0.055783   0.449524   0.014030  -0.000009
    33  H   -0.000004  -0.000007   0.000025   0.000079   0.322493  -0.000094
              19         20         21         22         23         24
     1  N    0.001472   0.000006   0.000000   0.000003   0.000757   0.002849
     2  S   -0.002984  -0.000129   0.000020  -0.000180  -0.010667  -0.011133
     3  C   -0.095814   0.018270  -0.001576   0.017820  -0.070135   0.008232
     4  C    0.446858  -0.073994   0.015419  -0.001893   0.017220  -0.000069
     5  C   -0.048015   0.455086  -0.070697   0.014596  -0.002306   0.000010
     6  C    0.013917  -0.073260   0.451241  -0.076404   0.013169   0.000003
     7  C   -0.001201   0.014782  -0.069778   0.458369  -0.058048  -0.000009
     8  C    0.012373  -0.002113   0.014597  -0.074180   0.437167   0.000064
     9  C    0.002377   0.000049  -0.000000   0.000017   0.001595   0.329241
    10  C   -0.002816  -0.000028   0.000001  -0.000022  -0.000393   0.018893
    11  C    0.000474  -0.000016  -0.000014  -0.000052  -0.001847  -0.017626
    12  C   -0.000116  -0.000003  -0.000020  -0.000215  -0.002104  -0.000223
    13  C   -0.000009  -0.000008  -0.000006   0.001041   0.000602   0.000051
    14  C    0.000000   0.000000  -0.000000   0.000306   0.000939  -0.000011
    15  C    0.000001  -0.000000  -0.000000   0.000090   0.001733   0.000318
    16  C   -0.000014   0.000000   0.000001  -0.000057   0.000949   0.004654
    17  N    0.000348   0.000001  -0.000000   0.000001   0.030490   0.011245
    18  H    0.003691  -0.000012  -0.000000   0.000000  -0.000159  -0.000100
    19  H    0.674742  -0.012695  -0.000278   0.000042  -0.000181  -0.000059
    20  H   -0.012695   0.667064  -0.012335  -0.000264   0.000033  -0.000001
    21  H   -0.000278  -0.012335   0.665244  -0.012216  -0.000217   0.000000
    22  H    0.000042  -0.000264  -0.012216   0.664320  -0.010910  -0.000000
    23  H   -0.000181   0.000033  -0.000217  -0.010910   0.623954  -0.000143
    24  H   -0.000059  -0.000001   0.000000  -0.000000  -0.000143   0.570318
    25  H    0.000003  -0.000009   0.000000  -0.000000  -0.000033  -0.006367
    26  H   -0.000047   0.000002   0.000000  -0.000000  -0.000003  -0.012068
    27  H    0.002339   0.000081  -0.000006   0.000003   0.000026   0.006018
    28  H   -0.000091   0.000004   0.000032  -0.000005  -0.000025  -0.000014
    29  H   -0.000000   0.000000   0.000001   0.000135  -0.000013  -0.000000
    30  H    0.000000   0.000000  -0.000000  -0.000000   0.000020   0.000000
    31  H    0.000000  -0.000000   0.000000   0.000000   0.000045   0.000022
    32  H   -0.000000  -0.000000   0.000000  -0.000000  -0.000027   0.001044
    33  H   -0.000038   0.000000   0.000000  -0.000001  -0.000059  -0.000410
              25         26         27         28         29         30
     1  N    0.007776  -0.000123   0.000169   0.000000  -0.000000   0.000000
     2  S   -0.004658   0.004652  -0.009027   0.000062   0.000001  -0.000001
     3  C    0.001203  -0.000010   0.003703  -0.001283  -0.000038  -0.000006
     4  C    0.002774  -0.000100   0.006271   0.000520  -0.000036   0.000000
     5  C    0.000106  -0.000015  -0.000279   0.001677   0.000046   0.000000
     6  C    0.000010  -0.000008  -0.000216   0.001366   0.000154  -0.000002
     7  C    0.000009  -0.000010   0.000104   0.000203   0.000595  -0.000005
     8  C   -0.000330  -0.000009   0.000360  -0.001695  -0.000092  -0.000010
     9  C    0.322608   0.003035  -0.017825   0.000561   0.000010  -0.000001
    10  C    0.001724   0.331777   0.370766  -0.020408  -0.000370   0.000041
    11  C    0.008224   0.000027  -0.024816  -0.077178   0.017878  -0.001444
    12  C   -0.000242   0.000709  -0.012592   0.456388  -0.074349   0.014941
    13  C    0.000012  -0.000702   0.000671  -0.069676   0.453971  -0.073613
    14  C    0.000001   0.000111  -0.000027   0.015908  -0.077352   0.451134
    15  C    0.000002  -0.000193  -0.000357  -0.002192   0.015071  -0.071136
    16  C    0.000436  -0.007189   0.011348   0.016402  -0.001995   0.015044
    17  N    0.004851  -0.000338  -0.000066   0.000002   0.000000  -0.000001
    18  H    0.001497  -0.000003  -0.000126  -0.000000  -0.000000   0.000000
    19  H    0.000003  -0.000047   0.002339  -0.000091  -0.000000   0.000000
    20  H   -0.000009   0.000002   0.000081   0.000004   0.000000   0.000000
    21  H    0.000000   0.000000  -0.000006   0.000032   0.000001  -0.000000
    22  H   -0.000000  -0.000000   0.000003  -0.000005   0.000135  -0.000000
    23  H   -0.000033  -0.000003   0.000026  -0.000025  -0.000013   0.000020
    24  H   -0.006367  -0.012068   0.006018  -0.000014  -0.000000   0.000000
    25  H    0.614003  -0.005001  -0.010545  -0.000033  -0.000000  -0.000000
    26  H   -0.005001   0.634354  -0.019744   0.000745   0.000010  -0.000001
    27  H   -0.010545  -0.019744   0.654816   0.007778  -0.000008  -0.000001
    28  H   -0.000033   0.000745   0.007778   0.689146  -0.013599  -0.000301
    29  H   -0.000000   0.000010  -0.000008  -0.013599   0.687860  -0.012737
    30  H   -0.000000  -0.000001  -0.000001  -0.000301  -0.012737   0.681394
    31  H   -0.000001   0.000006   0.000012   0.000037  -0.000309  -0.012559
    32  H   -0.000040   0.001395   0.000119  -0.000227   0.000033  -0.000285
    33  H   -0.000449   0.000029   0.000005  -0.000000   0.000000  -0.000000
              31         32         33
     1  N    0.000000   0.000031   0.004450
     2  S    0.000016  -0.003894  -0.003890
     3  C   -0.000028   0.000439  -0.001518
     4  C    0.000000  -0.000004  -0.000729
     5  C   -0.000000  -0.000002  -0.000018
     6  C    0.000000   0.000002   0.000005
     7  C   -0.000002  -0.000032  -0.000023
     8  C   -0.000004   0.000004   0.001707
     9  C    0.000003   0.008448   0.007014
    10  C   -0.000370  -0.026329  -0.000252
    11  C    0.017392  -0.072254   0.000176
    12  C   -0.001968   0.014966   0.000015
    13  C    0.015221  -0.001859  -0.000004
    14  C   -0.078921   0.015373  -0.000007
    15  C    0.453084  -0.055783   0.000025
    16  C   -0.068686   0.449524   0.000079
    17  N    0.000164   0.014030   0.322493
    18  H   -0.000000  -0.000009  -0.000094
    19  H    0.000000  -0.000000  -0.000038
    20  H   -0.000000  -0.000000   0.000000
    21  H    0.000000   0.000000   0.000000
    22  H    0.000000  -0.000000  -0.000001
    23  H    0.000045  -0.000027  -0.000059
    24  H    0.000022   0.001044  -0.000410
    25  H   -0.000001  -0.000040  -0.000449
    26  H    0.000006   0.001395   0.000029
    27  H    0.000012   0.000119   0.000005
    28  H    0.000037  -0.000227  -0.000000
    29  H   -0.000309   0.000033   0.000000
    30  H   -0.012559  -0.000285  -0.000000
    31  H    0.679366  -0.013837   0.000006
    32  H   -0.013837   0.663655  -0.000159
    33  H    0.000006  -0.000159   0.540347
 Mulliken charges:
               1
     1  N   -0.419389
     2  S    0.452207
     3  C   -0.109577
     4  C    0.003628
     5  C   -0.022273
     6  C   -0.001106
     7  C    0.006428
     8  C    0.035475
     9  C   -0.060580
    10  C    0.062603
    11  C   -0.133168
    12  C   -0.013830
    13  C   -0.008054
    14  C   -0.016648
    15  C   -0.022387
    16  C    0.053226
    17  N   -0.425263
    18  H    0.108342
    19  H    0.005720
    20  H    0.019490
    21  H    0.020587
    22  H    0.019657
    23  H    0.028571
    24  H    0.095270
    25  H    0.062469
    26  H    0.068713
    27  H    0.031045
    28  H   -0.004105
    29  H    0.005132
    30  H    0.009530
    31  H    0.011312
    32  H    0.005676
    33  H    0.131300
 Sum of Mulliken charges =  -0.00000
 Mulliken charges with hydrogens summed into heavy atoms:
               1
     1  N   -0.311047
     2  S    0.452207
     3  C   -0.109577
     4  C    0.009348
     5  C   -0.002783
     6  C    0.019481
     7  C    0.026084
     8  C    0.064046
     9  C    0.097159
    10  C    0.162361
    11  C   -0.133168
    12  C   -0.017935
    13  C   -0.002922
    14  C   -0.007119
    15  C   -0.011076
    16  C    0.058903
    17  N   -0.293962
 Electronic spatial extent (au):  <R**2>=           3613.3648
 Charge=             -0.0000 electrons
 Dipole moment (field-independent basis, Debye):
    X=              1.1758    Y=              2.5831    Z=              2.5322  Tot=              3.8036
 Quadrupole moment (field-independent basis, Debye-Ang):
   XX=           -113.8545   YY=           -102.4407   ZZ=           -102.8108
   XY=             -1.4077   XZ=            -11.5256   YZ=             -1.4251
 Traceless Quadrupole moment (field-independent basis, Debye-Ang):
   XX=             -7.4858   YY=              3.9279   ZZ=              3.5579
   XY=             -1.4077   XZ=            -11.5256   YZ=             -1.4251
 Octapole moment (field-independent basis, Debye-Ang**2):
  XXX=             18.7202  YYY=             16.4095  ZZZ=             -7.9899  XYY=              8.9515
  XXY=             23.1347  XXZ=              8.4481  XZZ=             -7.5383  YZZ=             -5.1635
  YYZ=             10.5351  XYZ=              2.7633
 Hexadecapole moment (field-independent basis, Debye-Ang**3):
 XXXX=          -2407.5407 YYYY=          -1757.6251 ZZZZ=           -711.6968 XXXY=            -25.4834
 XXXZ=           -138.3371 YYYX=             24.2610 YYYZ=             15.3783 ZZZX=             -2.6165
 ZZZY=             18.8618 XXYY=           -722.3342 XXZZ=           -504.0560 YYZZ=           -419.0338
 XXYZ=             12.9677 YYXZ=            -37.1206 ZZXY=             13.4532
 N-N= 1.378188885824D+03 E-N=-5.210708016041D+03  KE= 1.042059837970D+03
   1 Symmetry operations used in ECPInt.
 ECPInt:  NShTT=   11628 NPrTT=   42474 LenC2=   11297 LenP2D=   30296.
 LDataN:  DoStor=T MaxTD1= 5 Len=  102
 Calling FoFJK, ICntrl=      2127 FMM=F ISym2X=0 I1Cent= 0 IOpClX= 0 NMat=1 NMatS=1 NMatT=0.
 ***** Axes restored to original set *****
 -------------------------------------------------------------------
 Center     Atomic                   Forces (Hartrees/Bohr)
 Number     Number              X              Y              Z
 -------------------------------------------------------------------
      1        7           0.005896815   -0.001958306    0.005600252
      2       16           0.008224037   -0.001145050   -0.000389681
      3        6           0.008273966   -0.006978416    0.004044953
      4        6           0.001488961    0.000659589   -0.002084755
      5        6           0.001199774   -0.000890915   -0.001324135
      6        6          -0.001554556    0.000375189    0.000582070
      7        6           0.001985803    0.001441414   -0.000263613
      8        6           0.001420960    0.000257129    0.003260295
      9        6          -0.013032326    0.010400653   -0.000040551
     10        6          -0.000753077   -0.000311963    0.007880836
     11        6           0.002771230   -0.001987541   -0.008742124
     12        6          -0.001397377   -0.002136089   -0.001058643
     13        6          -0.000881954    0.000450162   -0.001859344
     14        6          -0.000925474    0.000281444    0.001138483
     15        6          -0.000464979   -0.001101019    0.000662250
     16        6          -0.001443947   -0.001347791   -0.001117137
     17        7          -0.014945714   -0.017738075   -0.002015742
     18        1           0.000269352    0.007624773   -0.010164198
     19        1           0.007188663   -0.000359040   -0.006246540
     20        1           0.001093040    0.004807003   -0.007421420
     21        1          -0.006389698    0.006098073   -0.002370964
     22        1          -0.007316548    0.000862723    0.005451303
     23        1          -0.001357468   -0.006563419    0.007926870
     24        1           0.003495728   -0.004713980    0.006361430
     25        1           0.006676257    0.003243082   -0.001954475
     26        1           0.001643633   -0.003382765   -0.004217343
     27        1          -0.000401470    0.002154956   -0.004003490
     28        1           0.001036485    0.005183816   -0.006858521
     29        1          -0.007053235    0.004851383   -0.002636834
     30        1          -0.007518878   -0.000136318    0.005117489
     31        1          -0.000123103   -0.004823607    0.007795822
     32        1           0.007241438   -0.003963785    0.003757334
     33        1           0.005653659    0.010846690    0.005190123
 -------------------------------------------------------------------
 Cartesian Forces:  Max     0.017738075 RMS     0.005195228

 GradGradGradGradGradGradGradGradGradGradGradGradGradGradGradGradGradGrad
 Berny optimization.
 FormGI is forming the generalized inverse of G from B-inverse, IUseBI=4.
 Internal  Forces:  Max     0.032300797 RMS     0.005664320
 Search for a local minimum.
 Step number   1 out of a maximum of  184
 All quantities printed in internal units (Hartrees-Bohrs-Radians)
 Mixed Optimization -- RFO/linear search
 Second derivative matrix not updated -- first step.
 ITU=  0
     Eigenvalues ---    0.00230   0.00230   0.00512   0.00683   0.01516
     Eigenvalues ---    0.01606   0.02241   0.02268   0.02275   0.02278
     Eigenvalues ---    0.02282   0.02283   0.02291   0.02293   0.02300
     Eigenvalues ---    0.02301   0.02303   0.02305   0.02309   0.02310
     Eigenvalues ---    0.02323   0.02335   0.03406   0.03488   0.03632
     Eigenvalues ---    0.03997   0.04745   0.05492   0.07006   0.08278
     Eigenvalues ---    0.08418   0.08736   0.09690   0.12420   0.13059
     Eigenvalues ---    0.15997   0.15998   0.15999   0.16000   0.16000
     Eigenvalues ---    0.16000   0.16000   0.16000   0.16000   0.16000
     Eigenvalues ---    0.16000   0.16000   0.16813   0.19382   0.21999
     Eigenvalues ---    0.21999   0.22000   0.22000   0.22003   0.22045
     Eigenvalues ---    0.22068   0.23473   0.23476   0.23947   0.24951
     Eigenvalues ---    0.24992   0.30447   0.31728   0.34034   0.34467
     Eigenvalues ---    0.34917   0.35244   0.35797   0.35856   0.35953
     Eigenvalues ---    0.35968   0.35970   0.35998   0.36011   0.36065
     Eigenvalues ---    0.36081   0.36331   0.43434   0.43556   0.43657
     Eigenvalues ---    0.43833   0.46504   0.46660   0.47659   0.47986
     Eigenvalues ---    0.48111   0.48305   0.48403   0.48502   0.48542
     Eigenvalues ---    0.48838   0.66358   0.69407
 RFO step:  Lambda=-2.12620140D-02 EMin= 2.30000000D-03
 Linear search not attempted -- first point.
 Iteration  1 RMS(Cart)=  0.29132202 RMS(Int)=  0.00919893
 Iteration  2 RMS(Cart)=  0.06795502 RMS(Int)=  0.00071508
 Iteration  3 RMS(Cart)=  0.00127846 RMS(Int)=  0.00060710
 Iteration  4 RMS(Cart)=  0.00000141 RMS(Int)=  0.00060710
 Iteration  5 RMS(Cart)=  0.00000000 RMS(Int)=  0.00060710
 Variable       Old X    -DE/DX   Delta X   Delta X   Delta X     New X
                                 (Linear)    (Quad)   (Total)
    R1        2.89937   0.00777   0.00000   0.01134   0.01134   2.91072
    R2        1.90267   0.01239   0.00000   0.02547   0.02547   1.92814
    R3        3.45665  -0.00489   0.00000  -0.01875  -0.01875   3.43790
    R4        3.51005  -0.00160   0.00000  -0.00660  -0.00660   3.50345
    R5        2.87890   0.00842   0.00000   0.01178   0.01178   2.89068
    R6        2.61104   0.01222   0.00000   0.02420   0.02421   2.63525
    R7        2.60859   0.00869   0.00000   0.01707   0.01709   2.62568
    R8        2.61730   0.00852   0.00000   0.01704   0.01704   2.63434
    R9        2.04308   0.00944   0.00000   0.02484   0.02484   2.06792
   R10        2.61868   0.01078   0.00000   0.02138   0.02137   2.64004
   R11        2.04132   0.00891   0.00000   0.02338   0.02338   2.06470
   R12        2.61843   0.00965   0.00000   0.01903   0.01901   2.63745
   R13        2.04085   0.00914   0.00000   0.02399   0.02399   2.06484
   R14        2.61521   0.00902   0.00000   0.01773   0.01773   2.63294
   R15        2.03981   0.00915   0.00000   0.02397   0.02397   2.06377
   R16        2.03955   0.01031   0.00000   0.02699   0.02699   2.06654
   R17        2.87082   0.00949   0.00000   0.02913   0.02913   2.89994
   R18        2.05281   0.00785   0.00000   0.02101   0.02101   2.07381
   R19        2.05810   0.00691   0.00000   0.01865   0.01865   2.07675
   R20        2.84645   0.00519   0.00000   0.01532   0.01532   2.86177
   R21        2.07273   0.00520   0.00000   0.01439   0.01439   2.08712
   R22        2.06548   0.00421   0.00000   0.01150   0.01150   2.07699
   R23        2.62644   0.00969   0.00000   0.01948   0.01949   2.64593
   R24        2.62367   0.01033   0.00000   0.02074   0.02076   2.64443
   R25        2.61285   0.00951   0.00000   0.01868   0.01868   2.63153
   R26        2.04400   0.00860   0.00000   0.02268   0.02268   2.06668
   R27        2.61530   0.01041   0.00000   0.02065   0.02063   2.63593
   R28        2.04155   0.00896   0.00000   0.02352   0.02352   2.06507
   R29        2.61517   0.00998   0.00000   0.01987   0.01985   2.63502
   R30        2.04128   0.00909   0.00000   0.02387   0.02387   2.06515
   R31        2.61487   0.01029   0.00000   0.02042   0.02042   2.63530
   R32        2.04064   0.00917   0.00000   0.02404   0.02404   2.06468
   R33        2.03567   0.00899   0.00000   0.02339   0.02339   2.05906
   R34        1.90094   0.01083   0.00000   0.02221   0.02221   1.92315
    A1        2.00516  -0.00454   0.00000  -0.02504  -0.02504   1.98012
    A2        1.93365  -0.00522   0.00000  -0.03720  -0.03707   1.89659
    A3        1.97730  -0.00423   0.00000  -0.02340  -0.02345   1.95386
    A4        1.98409   0.00631   0.00000   0.03930   0.03932   2.02341
    A5        1.79650   0.00693   0.00000   0.02603   0.02581   1.82231
    A6        1.95426  -0.00273   0.00000  -0.01200  -0.01203   1.94223
    A7        1.80633  -0.00088   0.00000   0.00810   0.00819   1.81452
    A8        2.10426   0.00154   0.00000   0.00496   0.00484   2.10910
    A9        2.06335  -0.00340   0.00000  -0.01328  -0.01338   2.04996
   A10        2.11382   0.00180   0.00000   0.00690   0.00684   2.12065
   A11        2.08272  -0.00123   0.00000  -0.00423  -0.00421   2.07851
   A12        2.09781   0.00198   0.00000   0.00966   0.00964   2.10745
   A13        2.10266  -0.00075   0.00000  -0.00542  -0.00543   2.09723
   A14        2.09274  -0.00013   0.00000  -0.00025  -0.00026   2.09248
   A15        2.09329  -0.00002   0.00000  -0.00034  -0.00035   2.09294
   A16        2.09715   0.00015   0.00000   0.00057   0.00056   2.09771
   A17        2.09992   0.00013   0.00000   0.00015   0.00013   2.10006
   A18        2.08938  -0.00002   0.00000   0.00016   0.00016   2.08954
   A19        2.09388  -0.00011   0.00000  -0.00031  -0.00030   2.09358
   A20        2.09156   0.00100   0.00000   0.00371   0.00369   2.09525
   A21        2.09773  -0.00013   0.00000   0.00019   0.00017   2.09791
   A22        2.09388  -0.00088   0.00000  -0.00394  -0.00395   2.08993
   A23        2.08543  -0.00158   0.00000  -0.00640  -0.00638   2.07905
   A24        2.06881   0.00071   0.00000   0.00274   0.00272   2.07153
   A25        2.12882   0.00087   0.00000   0.00361   0.00360   2.13241
   A26        2.01391   0.03230   0.00000   0.14042   0.13985   2.15376
   A27        1.79234  -0.01079   0.00000  -0.03034  -0.03384   1.75851
   A28        1.85216  -0.01474   0.00000  -0.07874  -0.07834   1.77382
   A29        1.95692  -0.00548   0.00000  -0.00103  -0.00269   1.95423
   A30        1.93672  -0.00657   0.00000  -0.02664  -0.02380   1.91292
   A31        1.90273   0.00414   0.00000  -0.01154  -0.01379   1.88894
   A32        2.00067   0.02273   0.00000   0.10259   0.10180   2.10247
   A33        1.87931  -0.00785   0.00000  -0.04581  -0.04487   1.83443
   A34        1.91637  -0.00524   0.00000  -0.00544  -0.00798   1.90839
   A35        1.89739  -0.00712   0.00000  -0.03749  -0.03608   1.86130
   A36        1.89747  -0.00562   0.00000  -0.00069  -0.00301   1.89446
   A37        1.86810   0.00192   0.00000  -0.02173  -0.02259   1.84550
   A38        2.08404  -0.00212   0.00000  -0.00782  -0.00797   2.07607
   A39        2.12624   0.00338   0.00000   0.01244   0.01227   2.13851
   A40        2.07265  -0.00128   0.00000  -0.00527  -0.00534   2.06731
   A41        2.10976   0.00130   0.00000   0.00493   0.00496   2.11472
   A42        2.08701  -0.00112   0.00000  -0.00509  -0.00511   2.08190
   A43        2.08636  -0.00018   0.00000   0.00008   0.00006   2.08642
   A44        2.09382  -0.00026   0.00000  -0.00123  -0.00123   2.09259
   A45        2.09063   0.00014   0.00000   0.00065   0.00065   2.09128
   A46        2.09872   0.00012   0.00000   0.00055   0.00055   2.09926
   A47        2.08665  -0.00039   0.00000  -0.00139  -0.00141   2.08524
   A48        2.09737   0.00038   0.00000   0.00171   0.00172   2.09909
   A49        2.09917   0.00001   0.00000  -0.00032  -0.00032   2.09885
   A50        2.10206   0.00005   0.00000   0.00045   0.00045   2.10251
   A51        2.09497   0.00014   0.00000   0.00068   0.00067   2.09564
   A52        2.08616  -0.00019   0.00000  -0.00113  -0.00114   2.08502
   A53        2.10125   0.00059   0.00000   0.00235   0.00238   2.10364
   A54        2.10060   0.00014   0.00000   0.00116   0.00113   2.10172
   A55        2.08115  -0.00074   0.00000  -0.00368  -0.00371   2.07744
   A56        1.97940  -0.01386   0.00000  -0.07649  -0.07649   1.90291
    D1       -0.82410  -0.00099   0.00000   0.01266   0.01206  -0.81203
    D2        1.18463   0.00166   0.00000   0.00645   0.00687   1.19149
    D3       -3.04276   0.00199   0.00000   0.02834   0.02852  -3.01423
    D4        0.94154  -0.00164   0.00000   0.00131   0.00112   0.94265
    D5       -2.13700  -0.00076   0.00000   0.02649   0.02620  -2.11080
    D6       -1.17743   0.00192   0.00000   0.03235   0.03245  -1.14499
    D7        2.02722   0.00279   0.00000   0.05753   0.05753   2.08475
    D8       -3.10668   0.00043   0.00000   0.01435   0.01459  -3.09208
    D9        0.09798   0.00130   0.00000   0.03953   0.03968   0.13765
   D10       -2.45909   0.00347   0.00000   0.03661   0.03741  -2.42168
   D11        1.68974  -0.00042   0.00000  -0.02028  -0.01946   1.67027
   D12       -0.30659   0.00509   0.00000   0.03502   0.03333  -0.27327
   D13       -0.37006  -0.00062   0.00000  -0.00372  -0.00303  -0.37310
   D14       -2.50442  -0.00451   0.00000  -0.06061  -0.05990  -2.56432
   D15        1.78243   0.00100   0.00000  -0.00532  -0.00711   1.77532
   D16        1.66736  -0.00128   0.00000  -0.00380  -0.00283   1.66453
   D17       -0.46700  -0.00517   0.00000  -0.06069  -0.05970  -0.52670
   D18       -2.46333   0.00035   0.00000  -0.00540  -0.00691  -2.47024
   D19        0.50047   0.00074   0.00000   0.01542   0.01509   0.51556
   D20       -1.70741   0.00498   0.00000   0.04401   0.04403  -1.66339
   D21        2.65275  -0.00145   0.00000   0.01469   0.01501   2.66776
   D22       -3.09806   0.00080   0.00000   0.01856   0.01871  -3.07934
   D23        0.04394   0.00076   0.00000   0.01827   0.01840   0.06234
   D24       -0.02137  -0.00028   0.00000  -0.00810  -0.00813  -0.02950
   D25        3.12063  -0.00033   0.00000  -0.00838  -0.00845   3.11218
   D26        3.09373  -0.00100   0.00000  -0.02602  -0.02593   3.06779
   D27       -0.06423  -0.00118   0.00000  -0.02990  -0.02984  -0.09407
   D28        0.01555  -0.00012   0.00000  -0.00062  -0.00059   0.01496
   D29        3.14079  -0.00029   0.00000  -0.00450  -0.00450   3.13629
   D30        0.01229   0.00038   0.00000   0.00939   0.00941   0.02170
   D31       -3.13223   0.00003   0.00000   0.00149   0.00148  -3.13076
   D32       -3.12971   0.00042   0.00000   0.00968   0.00972  -3.11999
   D33        0.00895   0.00008   0.00000   0.00178   0.00179   0.01075
   D34        0.00229  -0.00013   0.00000  -0.00226  -0.00229  -0.00000
   D35        3.14020  -0.00015   0.00000  -0.00325  -0.00327   3.13693
   D36       -3.13637   0.00022   0.00000   0.00566   0.00566  -3.13070
   D37        0.00154   0.00020   0.00000   0.00468   0.00468   0.00623
   D38       -0.00816  -0.00028   0.00000  -0.00653  -0.00656  -0.01472
   D39        3.13798   0.00023   0.00000   0.00426   0.00427  -3.14093
   D40        3.13712  -0.00026   0.00000  -0.00554  -0.00558   3.13155
   D41        0.00008   0.00024   0.00000   0.00525   0.00526   0.00534
   D42       -0.00066   0.00040   0.00000   0.00796   0.00797   0.00732
   D43       -3.12530   0.00058   0.00000   0.01199   0.01203  -3.11327
   D44        3.13639  -0.00010   0.00000  -0.00279  -0.00280   3.13359
   D45        0.01175   0.00008   0.00000   0.00124   0.00126   0.01300
   D46       -0.87269  -0.00497   0.00000  -0.10954  -0.11049  -0.98318
   D47       -2.98626  -0.00490   0.00000  -0.09487  -0.09473  -3.08100
   D48        1.26885  -0.00001   0.00000  -0.04058  -0.04084   1.22801
   D49        1.17104  -0.00056   0.00000  -0.05181  -0.05168   1.11936
   D50       -0.94254  -0.00050   0.00000  -0.03715  -0.03592  -0.97846
   D51       -2.97061   0.00440   0.00000   0.01714   0.01798  -2.95263
   D52       -2.97982  -0.00383   0.00000  -0.08666  -0.08764  -3.06746
   D53        1.18979  -0.00377   0.00000  -0.07200  -0.07188   1.11791
   D54       -0.83829   0.00113   0.00000  -0.01770  -0.01798  -0.85627
   D55        2.45900   0.00267   0.00000   0.05722   0.05791   2.51691
   D56       -0.70722   0.00151   0.00000   0.02627   0.02689  -0.68033
   D57       -1.72057   0.00246   0.00000   0.03900   0.03878  -1.68180
   D58        1.39639   0.00129   0.00000   0.00805   0.00775   1.40415
   D59        0.30729  -0.00220   0.00000  -0.00759  -0.00795   0.29934
   D60       -2.85892  -0.00336   0.00000  -0.03854  -0.03897  -2.89790
   D61        3.13275  -0.00083   0.00000  -0.02215  -0.02195   3.11080
   D62       -0.01999  -0.00114   0.00000  -0.02955  -0.02937  -0.04936
   D63        0.01502   0.00024   0.00000   0.00759   0.00755   0.02257
   D64       -3.13772  -0.00008   0.00000   0.00019   0.00013  -3.13760
   D65       -3.13767   0.00092   0.00000   0.02300   0.02314  -3.11453
   D66        0.02471   0.00132   0.00000   0.03228   0.03239   0.05710
   D67       -0.02055  -0.00025   0.00000  -0.00779  -0.00777  -0.02832
   D68       -3.14135   0.00015   0.00000   0.00148   0.00148  -3.13987
   D69        0.00018  -0.00004   0.00000  -0.00183  -0.00180  -0.00162
   D70        3.13636  -0.00027   0.00000  -0.00652  -0.00653   3.12983
   D71       -3.13027   0.00028   0.00000   0.00560   0.00568  -3.12459
   D72        0.00591   0.00006   0.00000   0.00091   0.00095   0.00686
   D73       -0.00999  -0.00016   0.00000  -0.00386  -0.00387  -0.01387
   D74        3.13389  -0.00012   0.00000  -0.00252  -0.00254   3.13135
   D75        3.13704   0.00007   0.00000   0.00086   0.00088   3.13791
   D76       -0.00227   0.00011   0.00000   0.00220   0.00221  -0.00005
   D77        0.00444   0.00014   0.00000   0.00364   0.00363   0.00807
   D78       -3.13873  -0.00003   0.00000  -0.00015  -0.00013  -3.13886
   D79       -3.13945   0.00011   0.00000   0.00230   0.00229  -3.13715
   D80        0.00057  -0.00007   0.00000  -0.00149  -0.00147  -0.00090
   D81        0.01103   0.00007   0.00000   0.00230   0.00233   0.01336
   D82        3.13206  -0.00031   0.00000  -0.00681  -0.00674   3.12533
   D83       -3.12900   0.00024   0.00000   0.00607   0.00607  -3.12293
   D84       -0.00796  -0.00014   0.00000  -0.00304  -0.00300  -0.01096
         Item               Value     Threshold  Converged?
[...]
    10  C    0.022281  -0.005270   0.012869  -0.121841   0.003835   0.000659
    11  C    0.042867  -0.105057   0.030977   0.389753   0.002919  -0.000197
    12  C    0.416461   0.042012  -0.087422   0.002258   0.000247   0.000050
    13  C    4.924526   0.449606   0.026791  -0.091992  -0.000033   0.000005
    14  C    0.449606   4.912402   0.457356   0.039680   0.000002  -0.000000
    15  C    0.026791   0.457356   4.905078   0.432655   0.000003  -0.000002
    16  C   -0.091992   0.039680   0.432655   5.155382  -0.000650   0.000009
    17  N   -0.000033   0.000002   0.000003  -0.000650   6.945634  -0.006327
    18  H    0.000005  -0.000000  -0.000002   0.000009  -0.006327   0.497695
    19  H   -0.000348   0.000081  -0.000023   0.000079   0.002278  -0.005230
    20  H   -0.000136  -0.000044   0.000010  -0.000007   0.000007   0.000027
    21  H    0.000323   0.000015   0.000047  -0.000072   0.000001  -0.000000
    22  H   -0.000828   0.000838   0.000643   0.000307  -0.000007   0.000000
    23  H   -0.000103   0.000258  -0.000748   0.001947   0.018110  -0.000053
    24  H   -0.000072  -0.000120   0.001629  -0.002369   0.010711  -0.000582
    25  H    0.000024   0.000001  -0.000137   0.000224   0.007917  -0.000309
    26  H   -0.001155   0.000314   0.000011   0.000582  -0.000333   0.000036
    27  H    0.001090   0.000094  -0.000200   0.008687   0.001158  -0.001424
    28  H   -0.047166   0.009531  -0.002161   0.013460   0.000004   0.000002
    29  H    0.425226  -0.054186   0.011496  -0.002605  -0.000000   0.000000
    30  H   -0.052312   0.424970  -0.052303   0.010889   0.000000  -0.000000
    31  H    0.010734  -0.052842   0.425536  -0.052920   0.000001  -0.000000
    32  H   -0.002518   0.010477  -0.046323   0.431658  -0.000204   0.000002
    33  H   -0.000001   0.000000  -0.000002   0.000065   0.303075   0.002706
              19         20         21         22         23         24
     1  N    0.031884   0.000022   0.000001   0.000004   0.001515   0.006175
     2  S   -0.001148  -0.000235   0.000038  -0.000195   0.003061  -0.019233
     3  C   -0.072532   0.014412  -0.003493   0.015539  -0.070735   0.003179
     4  C    0.423929  -0.058388   0.011640  -0.002483   0.007039  -0.000240
     5  C   -0.038392   0.430857  -0.052945   0.011223  -0.002767  -0.000160
     6  C    0.009580  -0.054947   0.427025  -0.056459   0.012490   0.000118
     7  C   -0.002545   0.010960  -0.052465   0.427809  -0.060773   0.000132
     8  C    0.006408  -0.001941   0.012048  -0.055464   0.446921  -0.000246
     9  C   -0.000633   0.000049  -0.000012   0.000144  -0.003400   0.387807
    10  C   -0.003977   0.000007   0.000018  -0.000078   0.000857  -0.038806
    11  C    0.000736   0.000084   0.000084  -0.000396  -0.000469  -0.004156
    12  C    0.001025  -0.000352  -0.000262   0.000018   0.000443   0.002341
    13  C   -0.000348  -0.000136   0.000323  -0.000828  -0.000103  -0.000072
    14  C    0.000081  -0.000044   0.000015   0.000838   0.000258  -0.000120
    15  C   -0.000023   0.000010   0.000047   0.000643  -0.000748   0.001629
    16  C    0.000079  -0.000007  -0.000072   0.000307   0.001947  -0.002369
    17  N    0.002278   0.000007   0.000001  -0.000007   0.018110   0.010711
    18  H   -0.005230   0.000027  -0.000000   0.000000  -0.000053  -0.000582
    19  H    0.502908  -0.007202  -0.000185   0.000097  -0.000338  -0.000032
    20  H   -0.007202   0.552803  -0.007739  -0.000239   0.000075   0.000000
    21  H   -0.000185  -0.007739   0.553360  -0.007894  -0.000124   0.000001
    22  H    0.000097  -0.000239  -0.007894   0.556020  -0.008063  -0.000031
    23  H   -0.000338   0.000075  -0.000124  -0.008063   0.514203   0.001160
    24  H   -0.000032   0.000000   0.000001  -0.000031   0.001160   0.506265
    25  H   -0.000094  -0.000002   0.000000  -0.000003  -0.000073  -0.012813
    26  H    0.000033   0.000000  -0.000000   0.000000  -0.000014  -0.001274
    27  H    0.001709  -0.000041  -0.000001   0.000001  -0.000135   0.004033
    28  H    0.000669   0.000161  -0.000057   0.000014  -0.000016   0.000019
    29  H   -0.000019   0.000063   0.000134  -0.000053   0.000001   0.000002
    30  H    0.000000  -0.000001   0.000011   0.000042  -0.000001  -0.000001
    31  H   -0.000000  -0.000000   0.000000   0.000019  -0.000022   0.000048
    32  H    0.000002  -0.000000  -0.000000   0.000007  -0.000160   0.001503
    33  H   -0.000193   0.000002  -0.000001   0.000017  -0.002285  -0.000786
              25         26         27         28         29         30
     1  N    0.005483   0.000125   0.014393   0.000437  -0.000002   0.000000
     2  S   -0.017615   0.004548  -0.001540   0.000133  -0.000007   0.000001
     3  C    0.009755  -0.000124  -0.001414  -0.002744  -0.000134   0.000030
     4  C   -0.000456   0.000548   0.004710   0.003305   0.000201   0.000003
     5  C   -0.000053   0.000029  -0.000212   0.003490   0.000758  -0.000046
     6  C    0.000011  -0.000031   0.000069  -0.001159   0.001654   0.000058
     7  C    0.000046   0.000004   0.000038   0.000546  -0.000928  -0.000021
     8  C   -0.000450  -0.000456  -0.002147  -0.000692   0.000002   0.000109
     9  C    0.361940  -0.026821  -0.022950   0.000238   0.000010  -0.000001
    10  C   -0.012210   0.368003   0.393077  -0.008534  -0.000347   0.000076
    11  C    0.007543  -0.027920  -0.046398  -0.048052   0.013684  -0.001562
    12  C   -0.000857   0.001835   0.001937   0.409747  -0.055134   0.010546
    13  C    0.000024  -0.001155   0.001090  -0.047166   0.425226  -0.052312
    14  C    0.000001   0.000314   0.000094   0.009531  -0.054186   0.424970
    15  C   -0.000137   0.000011  -0.000200  -0.002161   0.011496  -0.052303
    16  C    0.000224   0.000582   0.008687   0.013460  -0.002605   0.010889
    17  N    0.007917  -0.000333   0.001158   0.000004  -0.000000   0.000000
    18  H   -0.000309   0.000036  -0.001424   0.000002   0.000000  -0.000000
    19  H   -0.000094   0.000033   0.001709   0.000669  -0.000019   0.000000
    20  H   -0.000002   0.000000  -0.000041   0.000161   0.000063  -0.000001
    21  H    0.000000  -0.000000  -0.000001  -0.000057   0.000134   0.000011
    22  H   -0.000003   0.000000   0.000001   0.000014  -0.000053   0.000042
    23  H   -0.000073  -0.000014  -0.000135  -0.000016   0.000001  -0.000001
    24  H   -0.012813  -0.001274   0.004033   0.000019   0.000002  -0.000001
    25  H    0.513624  -0.008467   0.001617  -0.000040  -0.000000   0.000000
    26  H   -0.008467   0.574852  -0.018690   0.000449   0.000017  -0.000002
    27  H    0.001617  -0.018690   0.503870   0.004217  -0.000058  -0.000001
    28  H   -0.000040   0.000449   0.004217   0.558914  -0.008269  -0.000310
    29  H   -0.000000   0.000017  -0.000058  -0.008269   0.567864  -0.008057
    30  H    0.000000  -0.000002  -0.000001  -0.000310  -0.008057   0.561873
    31  H   -0.000001  -0.000009   0.000014   0.000084  -0.000307  -0.007932
    32  H    0.000081   0.001483   0.000061  -0.000280   0.000076  -0.000307
    33  H   -0.000532   0.000029  -0.000018   0.000000  -0.000000   0.000000
              31         32         33
     1  N   -0.000000  -0.000047  -0.005174
     2  S    0.000002  -0.000543  -0.015205
     3  C   -0.000019   0.001243   0.009291
     4  C    0.000010   0.000034   0.000470
     5  C    0.000003   0.000004   0.000225
     6  C   -0.000023  -0.000029  -0.000270
     7  C   -0.000030   0.000127   0.000575
     8  C   -0.000279  -0.000521  -0.011111
     9  C    0.000045   0.003013   0.011257
    10  C   -0.000373  -0.005643  -0.001063
    11  C    0.011836  -0.071363  -0.000026
    12  C   -0.002023   0.012832   0.000010
    13  C    0.010734  -0.002518  -0.000001
    14  C   -0.052842   0.010477   0.000000
    15  C    0.425536  -0.046323  -0.000002
    16  C   -0.052920   0.431658   0.000065
    17  N    0.000001  -0.000204   0.303075
    18  H   -0.000000   0.000002   0.002706
    19  H   -0.000000   0.000002  -0.000193
    20  H   -0.000000  -0.000000   0.000002
    21  H    0.000000  -0.000000  -0.000001
    22  H    0.000019   0.000007   0.000017
    23  H   -0.000022  -0.000160  -0.002285
    24  H    0.000048   0.001503  -0.000786
    25  H   -0.000001   0.000081  -0.000532
    26  H   -0.000009   0.001483   0.000029
    27  H    0.000014   0.000061  -0.000018
    28  H    0.000084  -0.000280   0.000000
    29  H   -0.000307   0.000076  -0.000000
    30  H   -0.007932  -0.000307   0.000000
    31  H    0.559664  -0.008219  -0.000000
    32  H   -0.008219   0.557798   0.000006
    33  H   -0.000000   0.000006   0.501684
 Mulliken charges:
               1
     1  N   -0.568489
     2  S    0.487613
     3  C    0.092945
     4  C   -0.257225
     5  C   -0.099104
     6  C   -0.117440
     7  C   -0.074568
     8  C   -0.167405
     9  C   -0.159695
    10  C   -0.210368
    11  C    0.161699
    12  C   -0.155651
    13  C   -0.101992
    14  C   -0.140902
    15  C   -0.103043
    16  C   -0.253025
    17  N   -0.566359
    18  H    0.211921
    19  H    0.151471
    20  H    0.121735
    21  H    0.120503
    22  H    0.119450
    23  H    0.142200
    24  H    0.155798
    25  H    0.145844
    26  H    0.132399
    27  H    0.154455
    28  H    0.114061
    29  H    0.108920
    30  H    0.114248
    31  H    0.117002
    32  H    0.115751
    33  H    0.207253
 Sum of Mulliken charges =  -0.00000
 Mulliken charges with hydrogens summed into heavy atoms:
               1
     1  N   -0.356568
     2  S    0.487613
     3  C    0.092945
     4  C   -0.105754
     5  C    0.022630
     6  C    0.003064
     7  C    0.044882
     8  C   -0.025205
     9  C    0.141947
    10  C    0.076485
    11  C    0.161699
    12  C   -0.041590
    13  C    0.006927
    14  C   -0.026653
    15  C    0.013959
    16  C   -0.137275
    17  N   -0.359106
 Electronic spatial extent (au):  <R**2>=           3754.6688
 Charge=              0.0000 electrons
 Dipole moment (field-independent basis, Debye):
    X=              3.0249    Y=              1.8148    Z=              0.0733  Tot=              3.5283
 Quadrupole moment (field-independent basis, Debye-Ang):
   XX=           -114.0543   YY=           -100.7772   ZZ=           -108.0367
   XY=             -0.8831   XZ=             -3.7324   YZ=              3.2834
 Traceless Quadrupole moment (field-independent basis, Debye-Ang):
   XX=             -6.4316   YY=              6.8456   ZZ=             -0.4140
   XY=             -0.8831   XZ=             -3.7324   YZ=              3.2834
 Octapole moment (field-independent basis, Debye-Ang**2):
  XXX=             22.6878  YYY=             -8.4016  ZZZ=              0.7845  XYY=             -4.7469
  XXY=             45.4725  XXZ=             -8.5868  XZZ=             17.6977  YZZ=             12.0609
  YYZ=              2.7494  XYZ=              7.0807
 Hexadecapole moment (field-independent basis, Debye-Ang**3):
 XXXX=          -2731.7480 YYYY=          -1639.9547 ZZZZ=           -762.9417 XXXY=            -62.5585
 XXXZ=            -39.0313 YYYX=             89.8842 YYYZ=             30.9575 ZZZX=            -22.0644
 ZZZY=             14.2374 XXYY=           -729.0595 XXZZ=           -613.9322 YYZZ=           -386.7817
 XXYZ=             15.5543 YYXZ=            -19.5174 ZZXY=            -22.1244
 N-N= 1.359466687706D+03 E-N=-5.178877013910D+03  KE= 1.045823142397D+03
 Breneman (CHELPG) radii used.
 Read replacement radii for each type of atom:
 Atom Element Radius
    1     7    1.70
    2    16    2.00
    3     6    1.50
    4     6    1.50
    5     6    1.50
    6     6    1.50
    7     6    1.50
    8     6    1.50
    9     6    1.50
   10     6    1.50
   11     6    1.50
   12     6    1.50
   13     6    1.50
   14     6    1.50
   15     6    1.50
   16     6    1.50
   17     7    1.70
   18     1    1.45
   19     1    1.45
   20     1    1.45
   21     1    1.45
   22     1    1.45
   23     1    1.45
   24     1    1.45
   25     1    1.45
   26     1    1.45
   27     1    1.45
   28     1    1.45
   29     1    1.45
   30     1    1.45
   31     1    1.45
   32     1    1.45
   33     1    1.45
 Generate Potential Derived Charges using the Breneman model, NDens= 1.
 Grid spacing= 0.300 Box extension= 2.800
 NStep X,Y,Z=   47     43     35   Total possible points=       70735
 Number of Points to Fit=   18788

 **********************************************************************

            Electrostatic Properties Using The SCF Density.

 **********************************************************************

       Atomic Center    1 is at  -2.966833 -0.247401  1.246694
       Atomic Center    2 is at  -2.265702 -0.285252 -0.141096
       Atomic Center    3 is at  -0.935640  0.953137 -0.160587
       Atomic Center    4 is at  -0.702098  1.716601  0.978689
       Atomic Center    5 is at   0.298427  2.686936  0.953318
       Atomic Center    6 is at   1.067690  2.862676 -0.195449
       Atomic Center    7 is at   0.825309  2.088219 -1.331770
       Atomic Center    8 is at  -0.194242  1.141139 -1.326008
       Atomic Center    9 is at  -1.431631 -1.868430 -0.111938
       Atomic Center   10 is at  -0.345020 -2.018054  0.939866
       Atomic Center   11 is at   1.008116 -1.489940  0.531719
       Atomic Center   12 is at   1.689709 -0.562997  1.324087
       Atomic Center   13 is at   2.933239 -0.066628  0.937967
       Atomic Center   14 is at   3.522618 -0.498108 -0.248042
       Atomic Center   15 is at   2.861208 -1.435527 -1.040529
       Atomic Center   16 is at   1.617411 -1.925527 -0.651609
       Atomic Center   17 is at  -2.944136 -0.323219 -1.537011
       Atomic Center   18 is at  -3.513145  0.613412  1.325943
       Atomic Center   19 is at  -1.299198  1.524481  1.873388
       Atomic Center   20 is at   0.487487  3.297993  1.839197
       Atomic Center   21 is at   1.863802  3.610859 -0.208520
       Atomic Center   22 is at   1.430814  2.229661 -2.229816
       Atomic Center   23 is at  -0.428334  0.547286 -2.212379
       Atomic Center   24 is at  -1.081744 -2.020374 -1.141045
       Atomic Center   25 is at  -2.283687 -2.538790  0.069917
       Atomic Center   26 is at  -0.257428 -3.095602  1.158979
       Atomic Center   27 is at  -0.689455 -1.544933  1.872387
       Atomic Center   28 is at   1.228787 -0.212079  2.250443
       Atomic Center   29 is at   3.440695  0.668815  1.566838
       Atomic Center   30 is at   4.495962 -0.107306 -0.553870
       Atomic Center   31 is at   3.317538 -1.788634 -1.968579
       Atomic Center   32 is at   1.111921 -2.661613 -1.283639
       Atomic Center   33 is at  -3.486581  0.534214 -1.667750
   18788 points will be used for fitting atomic charges
 Fitting point charges to electrostatic potential
 Charges from ESP fit, RMS=   0.00373 RRMS=   0.25662:
 ESP charges:
               1
     1  N   -0.756489
     2  S    0.522154
     3  C    0.089657
     4  C   -0.126295
     5  C   -0.077638
     6  C   -0.096973
     7  C   -0.033501
     8  C   -0.147489
     9  C    0.318062
    10  C   -0.281964
    11  C    0.158433
    12  C   -0.097475
    13  C   -0.074830
    14  C   -0.136177
    15  C   -0.077504
    16  C   -0.181608
    17  N   -0.773906
    18  H    0.324494
    19  H    0.103846
    20  H    0.094383
    21  H    0.094350
    22  H    0.078580
    23  H    0.112006
    24  H   -0.002099
    25  H    0.025628
    26  H    0.052335
    27  H    0.107586
    28  H    0.072996
    29  H    0.083163
    30  H    0.101760
    31  H    0.093363
    32  H    0.105349
    33  H    0.325804
 Sum of ESP charges =  -0.00000
 ESP charges with hydrogens summed into heavy atoms:
               1
     1  N   -0.431995
     2  S    0.522154
     3  C    0.089657
     4  C   -0.022449
     5  C    0.016744
     6  C   -0.002623
     7  C    0.045079
     8  C   -0.035483
     9  C    0.341592
    10  C   -0.122043
    11  C    0.158433
    12  C   -0.024479
    13  C    0.008332
    14  C   -0.034417
    15  C    0.015859
    16  C   -0.076260
    17  N   -0.448102
 Charge=  -0.00000 Dipole=     3.0401     1.7893     0.1671 Tot=     3.5316
 -----------------------------------------------------------------

              Electrostatic Properties (Atomic Units)

 -----------------------------------------------------------------
    Center     Electric         -------- Electric Field --------
               Potential          X             Y             Z
 -----------------------------------------------------------------
    1 Atom    -18.431056
    2 Atom    -59.080966
    3 Atom    -14.736000
    4 Atom    -14.749137
    5 Atom    -14.749953
    6 Atom    -14.748385
    7 Atom    -14.750149
    8 Atom    -14.748292
    9 Atom    -14.728002
   10 Atom    -14.743976
   11 Atom    -14.749336
   12 Atom    -14.763159
   13 Atom    -14.760931
   14 Atom    -14.761986
   15 Atom    -14.760200
   16 Atom    -14.761196
   17 Atom    -18.433156
   18 Atom     -1.052367
   19 Atom     -1.091287
   20 Atom     -1.091470
   21 Atom     -1.091127
   22 Atom     -1.093132
   23 Atom     -1.092260
   24 Atom     -1.084718
   25 Atom     -1.083243
   26 Atom     -1.099356
   27 Atom     -1.105579
   28 Atom     -1.102946
   29 Atom     -1.101459
   30 Atom     -1.101229
   31 Atom     -1.100636
   32 Atom     -1.098033
   33 Atom     -1.054849
 -----------------------------------------------------------------
 Unable to Open any file for archive entry.
 1\1\GINC-NOTCH400\SP\RPBE1PBE\def2TZVP\C14H16N2S1\U1414944\06-Jun-2025
 \0\\#N Guess=Read Geom=Check Integral(Ultrafine) Density Pop=(ChelpG,R
 eadRadii) NMR pbe1pbe EmpiricalDispersion=GD3BJ def2TZVP\\SDI0241_16\\
 0,1\N,0,3.0351129064,0.389013127,-1.2518899154\S,0,2.3088153042,0.1511
 038831,0.1026835704\C,0,0.7714581347,1.1202254212,0.1223989635\C,0,0.4
 367592478,1.8851164029,-0.9903840347\C,0,-0.7272685308,2.6516292806,-0
 .9631356172\C,0,-1.5525247414,2.6230916538,0.1595638305\C,0,-1.2070026
 582,1.8491940579,1.2692722602\C,0,-0.0292574652,1.1080065554,1.2634187
 938\C,0,1.7855841401,-1.5551238853,-0.0314521448\C,0,0.7804264839,-1.8
 482797372,-1.1328696878\C,0,-0.6598653686,-1.6005472187,-0.7578332224\
 C,0,-1.476197481,-0.7757058309,-1.5355707105\C,0,-2.802235563,-0.53777
 88596,-1.1794077748\C,0,-3.3389630001,-1.1310322179,-0.0391737145\C,0,
 -2.5405022303,-1.9698854153,0.7373830661\C,0,-1.2152980185,-2.20136722
 8,0.3787197809\N,0,2.9369697148,0.1671380573,1.5223515066\H,0,3.413815
 1018,1.3387461868,-1.2700509277\H,0,1.0877941791,1.852742539,-1.867327
 3245\H,0,-0.9980929122,3.2620968552,-1.8279466972\H,0,-2.4740523915,3.
 2099030174,0.1730758309\H,0,-1.8569616934,1.8301046847,2.146950463\H,0
 ,0.2825675485,0.5227051483,2.131348573\H,0,1.4370408415,-1.8217622535,
 0.9745243595\H,0,2.753008307,-2.0465462596,-0.2076569723\H,0,0.9021844
 504,-2.9107634802,-1.4032322055\H,0,1.0606764426,-1.2723850204,-2.0283
 479321\H,0,-1.0590008489,-0.2985826733,-2.4255302843\H,0,-3.4171894123
 ,0.1228136379,-1.7952940702\H,0,-4.3774290455,-0.9427470041,0.24330243
 66\H,0,-2.9528373474,-2.4483969277,1.629124792\H,0,-0.6022568894,-2.86
 31167349,0.9976488867\H,0,3.3057165271,1.1020320839,1.7134797744\\Vers
 ion=ES64L-G16RevC.01\State=1-A\HF=-1050.0922751\RMSD=5.120e-09\Dipole=
 -1.3006715,0.4827302,-0.0461232\Quadrupole=-4.5280325,5.2763907,-0.748
 3581,-0.9759344,-2.4614549,-2.656882\PG=C01 [X(C14H16N2S1)]\\@
 The archive entry for this job was punched.


 CHARLIE BROWN -- WHICH DO YOU THINK LASTS LONGER IN LIFE, THE GOOD THINGS 
                  OR THE BAD THINGS?
 LINUS --         GOOD THINGS LAST EIGHT SECONDS ..
                  BAD THINGS LAST THREE WEEKS
 CHARLIE BROWN -- WHAT ABOUT IN BETWEEN?
 SNOOPY --        IN BETWEEN YOU SHOULD TAKE A NAP ...
 Job cpu time:       0 days  1 hours  3 minutes  0.8 seconds.
 Elapsed time:       0 days  0 hours  4 minutes 14.9 seconds.
 File lengths (MBytes):  RWF=    238 Int=      0 D2E=      0 Chk=     37 Scr=      2
 Normal termination of Gaussian 16 at Fri Jun  6 22:15:39 2025.
