 Entering Gaussian System, Link 0=g16
 Input=SDI0241_12.com
 Output=SDI0241_12.log
 Initial command:
 /uufs/chpc.utah.edu/sys/installdir/gaussian16/C01/AVX/g16/l1.exe "/scratch/general/vast/u1414944/4689592-notchpeak.peaks/Gau-2028287.inp" -scrdir="/scratch/general/vast/u1414944/4689592-notchpeak.peaks/"
 Entering Link 1 = /uufs/chpc.utah.edu/sys/installdir/gaussian16/C01/AVX/g16/l1.exe PID=   2028288.
  
 Copyright (c) 1988-2019, Gaussian, Inc.  All Rights Reserved.
  
 This is part of the Gaussian(R) 16 program.  It is based on
 the Gaussian(R) 09 system (copyright 2009, Gaussian, Inc.),
 the Gaussian(R) 03 system (copyright 2003, Gaussian, Inc.),
 the Gaussian(R) 98 system (copyright 1998, Gaussian, Inc.),
 the Gaussian(R) 94 system (copyright 1995, Gaussian, Inc.),
 the Gaussian 92(TM) system (copyright 1992, Gaussian, Inc.),
 the Gaussian 90(TM) system (copyright 1990, Gaussian, Inc.),
 the Gaussian 88(TM) system (copyright 1988, Gaussian, Inc.),
 the Gaussian 86(TM) system (copyright 1986, Carnegie Mellon
 University), and the Gaussian 82(TM) system (copyright 1983,
 Carnegie Mellon University). Gaussian is a federally registered
 trademark of Gaussian, Inc.
  
 This software contains proprietary and confidential information,
 including trade secrets, belonging to Gaussian, Inc.
  
 This software is provided under written license and may be
 used, copied, transmitted, or stored only in accord with that
 written license.
  
 The following legend is applicable only to US Government
 contracts under FAR:
  
                    RESTRICTED RIGHTS LEGEND
  
 Use, reproduction and disclosure by the US Government is
 subject to restrictions as set forth in subparagraphs (a)
 and (c) of the Commercial Computer Software - Restricted
 Rights clause in FAR 52.227-19.
  
 Gaussian, Inc.
 340 Quinnipiac St., Bldg. 40, Wallingford CT 06492
  
  
 ---------------------------------------------------------------
 Warning -- This program may not be used in any manner that
 competes with the business of Gaussian, Inc. or will provide
 assistance to any competitor of Gaussian, Inc.  The licensee
 of this program is prohibited from giving any competitor of
 Gaussian, Inc. access to this program.  By using this program,
 the user acknowledges that Gaussian, Inc. is engaged in the
 business of creating and licensing software in the field of
 computational chemistry and represents and warrants to the
 licensee that it is not a competitor of Gaussian, Inc. and that
 it will not use this program in any manner prohibited above.
 ---------------------------------------------------------------
  

 Cite this work as:
 Gaussian 16, Revision C.01,
 M. J. Frisch, G. W. Trucks, H. B. Schlegel, G. E. Scuseria, 
 M. A. Robb, J. R. Cheeseman, G. Scalmani, V. Barone, 
 G. A. Petersson, H. Nakatsuji, X. Li, M. Caricato, A. V. Marenich, 
 J. Bloino, B. G. Janesko, R. Gomperts, B. Mennucci, H. P. Hratchian, 
 J. V. Ortiz, A. F. Izmaylov, J. L. Sonnenberg, D. Williams-Young, 
 F. Ding, F. Lipparini, F. Egidi, J. Goings, B. Peng, A. Petrone, 
 T. Henderson, D. Ranasinghe, V. G. Zakrzewski, J. Gao, N. Rega, 
 G. Zheng, W. Liang, M. Hada, M. Ehara, K. Toyota, R. Fukuda, 
 J. Hasegawa, M. Ishida, T. Nakajima, Y. Honda, O. Kitao, H. Nakai, 
 T. Vreven, K. Throssell, J. A. Montgomery, Jr., J. E. Peralta, 
 F. Ogliaro, M. J. Bearpark, J. J. Heyd, E. N. Brothers, K. N. Kudin, 
 V. N. Staroverov, T. A. Keith, R. Kobayashi, J. Normand, 
 K. Raghavachari, A. P. Rendell, J. C. Burant, S. S. Iyengar, 
 J. Tomasi, M. Cossi, J. M. Millam, M. Klene, C. Adamo, R. Cammi, 
 J. W. Ochterski, R. L. Martin, K. Morokuma, O. Farkas, 
 J. B. Foresman, and D. J. Fox, Gaussian, Inc., Wallingford CT, 2019.
 
 ******************************************
 Gaussian 16:  ES64L-G16RevC.01  3-Jul-2019
                 6-Jun-2025 
 ******************************************
 %NProcShared=16
 Will use up to   16 processors via shared memory.
 %Mem=40GB
 %chk=SDI0241_12.chk
 ----------------------------------------------------------------------
 #N OPT FREQ=NORAMAN Integral(Ultrafine) pbe1pbe EmpiricalDispersion=GD
 3BJ def2SVP
 ----------------------------------------------------------------------
 1/18=20,19=15,26=4,38=1/1,3;
 2/9=110,12=2,17=6,18=5,40=1/2;
 3/5=43,7=101,11=2,25=1,30=1,71=1,74=-13,75=-5,124=41/1,2,3;
 4//1;
 5/5=2,38=5/2;
 6/7=2,8=2,9=2,10=2,28=1/1;
 7//1,2,3,16;
 1/18=20,19=15,26=4/3(2);
 2/9=110/2;
 99//99;
 2/9=110/2;
 3/5=43,7=101,11=2,25=1,30=1,71=1,74=-13,75=-5,124=41/1,2,3;
 4/5=5,16=3,69=1/1;
 5/5=2,38=5/2;
 7//1,2,3,16;
 1/18=20,19=15,26=4/3(-5);
 2/9=110/2;
 6/7=2,8=2,9=2,10=2,19=2,28=1/1;
 99/9=1/99;
 ----------
 SDI0241_12
 ----------
 Symbolic Z-matrix:
 Charge =  0 Multiplicity = 1
 N                     3.3119    0.18261  -0.72268 
 S                     2.04036   0.25999   0.12987 
 C                     1.13785   1.83397   0.01547 
 C                     0.8447    2.37716  -1.22126 
 C                     0.15533   3.57641  -1.29076 
 C                    -0.23215   4.21901  -0.12568 
 C                     0.07164   3.66942   1.10987 
 C                     0.76195   2.47138   1.18168 
 C                     0.68641  -0.86648  -0.47447 
 C                    -0.45629  -0.8338    0.52412 
 C                    -1.48042  -1.88098   0.1867 
 C                    -2.57093  -1.57221  -0.61571 
 C                    -3.49179  -2.54641  -0.95928 
 C                    -3.33047  -3.84437  -0.50624 
 C                    -2.2451   -4.16233   0.29276 
 C                    -1.32621  -3.18678   0.63525 
 N                     2.26612   0.01362   1.61721 
 H                     3.17054   0.33238  -1.70799 
 H                     1.15771   1.87221  -2.12402 
 H                    -0.0777    4.00921  -2.25234 
 H                    -0.77001   5.15373  -0.18267 
 H                    -0.22882   4.17413   2.01577 
 H                     1.02273   2.00992   2.12098 
 H                     1.12978  -1.85818  -0.54555 
 H                     0.385    -0.52743  -1.46328 
 H                    -0.91354   0.15819   0.51654 
 H                    -0.03394  -1.00903   1.51593 
 H                    -2.70204  -0.5587   -0.96913 
 H                    -4.33767  -2.29168  -1.5812 
 H                    -4.0491   -4.60507  -0.77306 
 H                    -2.11564  -5.17315   0.65107 
 H                    -0.48144  -3.43565   1.26154 
 H                     3.17734  -0.35747   1.82183 
 

 GradGradGradGradGradGradGradGradGradGradGradGradGradGradGradGradGradGrad
 Berny optimization.
 Initialization pass.
                           ----------------------------
                           !    Initial Parameters    !
                           ! (Angstroms and Degrees)  !
 --------------------------                            --------------------------
 ! Name  Definition              Value          Derivative Info.                !
 --------------------------------------------------------------------------------
 ! R1    R(1,2)                  1.5329         estimate D2E/DX2                !
 ! R2    R(1,18)                 1.0066         estimate D2E/DX2                !
 ! R3    R(2,3)                  1.818          estimate D2E/DX2                !
 ! R4    R(2,9)                  1.8621         estimate D2E/DX2                !
 ! R5    R(2,17)                 1.5244         estimate D2E/DX2                !
 ! R6    R(3,4)                  1.3822         estimate D2E/DX2                !
 ! R7    R(3,8)                  1.3812         estimate D2E/DX2                !
 ! R8    R(4,5)                  1.385          estimate D2E/DX2                !
 ! R9    R(4,19)                 1.0807         estimate D2E/DX2                !
 ! R10   R(5,6)                  1.3858         estimate D2E/DX2                !
 ! R11   R(5,20)                 1.0799         estimate D2E/DX2                !
 ! R12   R(6,7)                  1.386          estimate D2E/DX2                !
 ! R13   R(6,21)                 1.0799         estimate D2E/DX2                !
 ! R14   R(7,8)                  1.3845         estimate D2E/DX2                !
 ! R15   R(7,22)                 1.0797         estimate D2E/DX2                !
 ! R16   R(8,23)                 1.0785         estimate D2E/DX2                !
 ! R17   R(9,10)                 1.5179         estimate D2E/DX2                !
 ! R18   R(9,24)                 1.0886         estimate D2E/DX2                !
 ! R19   R(9,25)                 1.0879         estimate D2E/DX2                !
 ! R20   R(10,11)                1.5031         estimate D2E/DX2                !
 ! R21   R(10,26)                1.0923         estimate D2E/DX2                !
 ! R22   R(10,27)                1.0921         estimate D2E/DX2                !
 ! R23   R(11,12)                1.3887         estimate D2E/DX2                !
 ! R24   R(11,16)                1.3893         estimate D2E/DX2                !
 ! R25   R(12,13)                1.3839         estimate D2E/DX2                !
 ! R26   R(12,28)                1.0813         estimate D2E/DX2                !
 ! R27   R(13,14)                1.3842         estimate D2E/DX2                !
 ! R28   R(13,29)                1.0804         estimate D2E/DX2                !
 ! R29   R(14,15)                1.3847         estimate D2E/DX2                !
 ! R30   R(14,30)                1.08           estimate D2E/DX2                !
 ! R31   R(15,16)                1.3832         estimate D2E/DX2                !
 ! R32   R(15,31)                1.0802         estimate D2E/DX2                !
 ! R33   R(16,32)                1.0806         estimate D2E/DX2                !
 ! R34   R(17,33)                1.0049         estimate D2E/DX2                !
 ! A1    A(2,1,18)             114.8608         estimate D2E/DX2                !
 ! A2    A(1,2,3)              114.867          estimate D2E/DX2                !
 ! A3    A(1,2,9)              113.086          estimate D2E/DX2                !
 ! A4    A(1,2,17)             114.3083         estimate D2E/DX2                !
 ! A5    A(3,2,9)               98.1849         estimate D2E/DX2                !
 ! A6    A(3,2,17)             105.9528         estimate D2E/DX2                !
 ! A7    A(9,2,17)             109.061          estimate D2E/DX2                !
 ! A8    A(2,3,4)              120.1218         estimate D2E/DX2                !
 ! A9    A(2,3,8)              118.786          estimate D2E/DX2                !
 ! A10   A(4,3,8)              121.0913         estimate D2E/DX2                !
 ! A11   A(3,4,5)              119.3895         estimate D2E/DX2                !
 ! A12   A(3,4,19)             120.1572         estimate D2E/DX2                !
 ! A13   A(5,4,19)             120.452          estimate D2E/DX2                !
 ! A14   A(4,5,6)              119.9            estimate D2E/DX2                !
 ! A15   A(4,5,20)             119.9404         estimate D2E/DX2                !
 ! A16   A(6,5,20)             120.1595         estimate D2E/DX2                !
 ! A17   A(5,6,7)              120.2857         estimate D2E/DX2                !
 ! A18   A(5,6,21)             119.7521         estimate D2E/DX2                !
 ! A19   A(7,6,21)             119.9619         estimate D2E/DX2                !
 ! A20   A(6,7,8)              119.9099         estimate D2E/DX2                !
 ! A21   A(6,7,22)             120.1077         estimate D2E/DX2                !
 ! A22   A(8,7,22)             119.9824         estimate D2E/DX2                !
 ! A23   A(3,8,7)              119.4218         estimate D2E/DX2                !
 ! A24   A(3,8,23)             118.1703         estimate D2E/DX2                !
 ! A25   A(7,8,23)             122.4079         estimate D2E/DX2                !
 ! A26   A(2,9,10)             108.7143         estimate D2E/DX2                !
 ! A27   A(2,9,24)             106.0303         estimate D2E/DX2                !
 ! A28   A(2,9,25)             107.9332         estimate D2E/DX2                !
 ! A29   A(10,9,24)            111.6639         estimate D2E/DX2                !
 ! A30   A(10,9,25)            112.4993         estimate D2E/DX2                !
 ! A31   A(24,9,25)            109.7185         estimate D2E/DX2                !
 ! A32   A(9,10,11)            110.5029         estimate D2E/DX2                !
 ! A33   A(9,10,26)            109.2753         estimate D2E/DX2                !
 ! A34   A(9,10,27)            107.6294         estimate D2E/DX2                !
 ! A35   A(11,10,26)           110.2382         estimate D2E/DX2                !
 ! A36   A(11,10,27)           110.8287         estimate D2E/DX2                !
 ! A37   A(26,10,27)           108.2934         estimate D2E/DX2                !
 ! A38   A(10,11,12)           120.6544         estimate D2E/DX2                !
 ! A39   A(10,11,16)           120.445          estimate D2E/DX2                !
 ! A40   A(12,11,16)           118.8634         estimate D2E/DX2                !
 ! A41   A(11,12,13)           120.6289         estimate D2E/DX2                !
 ! A42   A(11,12,28)           119.5037         estimate D2E/DX2                !
 ! A43   A(13,12,28)           119.8665         estimate D2E/DX2                !
 ! A44   A(12,13,14)           120.0863         estimate D2E/DX2                !
 ! A45   A(12,13,29)           119.8636         estimate D2E/DX2                !
 ! A46   A(14,13,29)           120.0501         estimate D2E/DX2                !
 ! A47   A(13,14,15)           119.7038         estimate D2E/DX2                !
 ! A48   A(13,14,30)           120.138          estimate D2E/DX2                !
 ! A49   A(15,14,30)           120.1581         estimate D2E/DX2                !
 ! A50   A(14,15,16)           120.1063         estimate D2E/DX2                !
 ! A51   A(14,15,31)           120.0119         estimate D2E/DX2                !
 ! A52   A(16,15,31)           119.8817         estimate D2E/DX2                !
 ! A53   A(11,16,15)           120.6108         estimate D2E/DX2                !
 ! A54   A(11,16,32)           119.3637         estimate D2E/DX2                !
 ! A55   A(15,16,32)           120.0247         estimate D2E/DX2                !
 ! A56   A(2,17,33)            113.1184         estimate D2E/DX2                !
 ! D1    D(18,1,2,3)           -57.943          estimate D2E/DX2                !
 ! D2    D(18,1,2,9)            53.6576         estimate D2E/DX2                !
 ! D3    D(18,1,2,17)          179.254          estimate D2E/DX2                !
 ! D4    D(1,2,3,4)             49.1884         estimate D2E/DX2                !
 ! D5    D(1,2,3,8)           -130.4778         estimate D2E/DX2                !
 ! D6    D(9,2,3,4)            -71.0297         estimate D2E/DX2                !
 ! D7    D(9,2,3,8)            109.3041         estimate D2E/DX2                !
 ! D8    D(17,2,3,4)           176.3721         estimate D2E/DX2                !
 ! D9    D(17,2,3,8)            -3.2941         estimate D2E/DX2                !
 ! D10   D(1,2,9,10)           173.4874         estimate D2E/DX2                !
 ! D11   D(1,2,9,24)            53.2974         estimate D2E/DX2                !
 ! D12   D(1,2,9,25)           -64.2163         estimate D2E/DX2                !
 ! D13   D(3,2,9,10)           -64.97           estimate D2E/DX2                !
 ! D14   D(3,2,9,24)           174.84           estimate D2E/DX2                !
 ! D15   D(3,2,9,25)            57.3263         estimate D2E/DX2                !
 ! D16   D(17,2,9,10)           45.1189         estimate D2E/DX2                !
 ! D17   D(17,2,9,24)          -75.0711         estimate D2E/DX2                !
 ! D18   D(17,2,9,25)          167.4152         estimate D2E/DX2                !
 ! D19   D(1,2,17,33)          -12.2148         estimate D2E/DX2                !
 ! D20   D(3,2,17,33)         -139.7335         estimate D2E/DX2                !
 ! D21   D(9,2,17,33)          115.4676         estimate D2E/DX2                !
 ! D22   D(2,3,4,5)            179.9398         estimate D2E/DX2                !
 ! D23   D(2,3,4,19)            -0.4841         estimate D2E/DX2                !
 ! D24   D(8,3,4,5)             -0.4018         estimate D2E/DX2                !
 ! D25   D(8,3,4,19)           179.1743         estimate D2E/DX2                !
 ! D26   D(2,3,8,7)           -179.8668         estimate D2E/DX2                !
 ! D27   D(2,3,8,23)             0.207          estimate D2E/DX2                !
 ! D28   D(4,3,8,7)              0.4704         estimate D2E/DX2                !
 ! D29   D(4,3,8,23)          -179.4558         estimate D2E/DX2                !
 ! D30   D(3,4,5,6)              0.0397         estimate D2E/DX2                !
 ! D31   D(3,4,5,20)           179.9504         estimate D2E/DX2                !
 ! D32   D(19,4,5,6)          -179.5352         estimate D2E/DX2                !
 ! D33   D(19,4,5,20)            0.3755         estimate D2E/DX2                !
 ! D34   D(4,5,6,7)              0.2481         estimate D2E/DX2                !
 ! D35   D(4,5,6,21)          -179.9688         estimate D2E/DX2                !
 ! D36   D(20,5,6,7)          -179.6624         estimate D2E/DX2                !
 ! D37   D(20,5,6,21)            0.1207         estimate D2E/DX2                !
 ! D38   D(5,6,7,8)             -0.1793         estimate D2E/DX2                !
 ! D39   D(5,6,7,22)           179.8003         estimate D2E/DX2                !
 ! D40   D(21,6,7,8)          -179.9619         estimate D2E/DX2                !
 ! D41   D(21,6,7,22)            0.0177         estimate D2E/DX2                !
 ! D42   D(6,7,8,3)             -0.1765         estimate D2E/DX2                !
 ! D43   D(6,7,8,23)           179.7465         estimate D2E/DX2                !
 ! D44   D(22,7,8,3)           179.8439         estimate D2E/DX2                !
 ! D45   D(22,7,8,23)           -0.2331         estimate D2E/DX2                !
 ! D46   D(2,9,10,11)         -171.4867         estimate D2E/DX2                !
 ! D47   D(2,9,10,26)           67.0453         estimate D2E/DX2                !
 ! D48   D(2,9,10,27)          -50.3445         estimate D2E/DX2                !
 ! D49   D(24,9,10,11)         -54.8533         estimate D2E/DX2                !
 ! D50   D(24,9,10,26)        -176.3212         estimate D2E/DX2                !
 ! D51   D(24,9,10,27)          66.2889         estimate D2E/DX2                !
 ! D52   D(25,9,10,11)          69.0284         estimate D2E/DX2                !
 ! D53   D(25,9,10,26)         -52.4395         estimate D2E/DX2                !
 ! D54   D(25,9,10,27)        -169.8293         estimate D2E/DX2                !
 ! D55   D(9,10,11,12)         -92.6492         estimate D2E/DX2                !
 ! D56   D(9,10,11,16)          85.1074         estimate D2E/DX2                !
 ! D57   D(26,10,11,12)         28.2473         estimate D2E/DX2                !
 ! D58   D(26,10,11,16)       -153.9961         estimate D2E/DX2                !
 ! D59   D(27,10,11,12)        148.1276         estimate D2E/DX2                !
 ! D60   D(27,10,11,16)        -34.1158         estimate D2E/DX2                !
 ! D61   D(10,11,12,13)        178.0333         estimate D2E/DX2                !
 ! D62   D(10,11,12,28)         -2.3208         estimate D2E/DX2                !
 ! D63   D(16,11,12,13)          0.2418         estimate D2E/DX2                !
 ! D64   D(16,11,12,28)        179.8877         estimate D2E/DX2                !
 ! D65   D(10,11,16,15)       -178.0151         estimate D2E/DX2                !
 ! D66   D(10,11,16,32)          2.3086         estimate D2E/DX2                !
 ! D67   D(12,11,16,15)         -0.2188         estimate D2E/DX2                !
 ! D68   D(12,11,16,32)       -179.8951         estimate D2E/DX2                !
 ! D69   D(11,12,13,14)         -0.1706         estimate D2E/DX2                !
 ! D70   D(11,12,13,29)        179.7703         estimate D2E/DX2                !
 ! D71   D(28,12,13,14)       -179.8151         estimate D2E/DX2                !
 ! D72   D(28,12,13,29)          0.1257         estimate D2E/DX2                !
 ! D73   D(12,13,14,15)          0.072          estimate D2E/DX2                !
 ! D74   D(12,13,14,30)        179.9412         estimate D2E/DX2                !
 ! D75   D(29,13,14,15)       -179.8688         estimate D2E/DX2                !
 ! D76   D(29,13,14,30)          0.0004         estimate D2E/DX2                !
 ! D77   D(13,14,15,16)         -0.0492         estimate D2E/DX2                !
 ! D78   D(13,14,15,31)        179.8516         estimate D2E/DX2                !
 ! D79   D(30,14,15,16)       -179.9184         estimate D2E/DX2                !
 ! D80   D(30,14,15,31)         -0.0176         estimate D2E/DX2                !
 ! D81   D(14,15,16,11)          0.1246         estimate D2E/DX2                !
 ! D82   D(14,15,16,32)        179.7987         estimate D2E/DX2                !
 ! D83   D(31,15,16,11)       -179.7763         estimate D2E/DX2                !
 ! D84   D(31,15,16,32)         -0.1022         estimate D2E/DX2                !
 --------------------------------------------------------------------------------
 Trust Radius=3.00D-01 FncErr=1.00D-07 GrdErr=1.00D-06 EigMax=2.50D+02 EigMin=1.00D-04
 Number of steps in this run=    184 maximum allowed number of steps=    198.
 GradGradGradGradGradGradGradGradGradGradGradGradGradGradGradGradGradGrad

                          Input orientation:                          
 ---------------------------------------------------------------------
 Center     Atomic      Atomic             Coordinates (Angstroms)
 Number     Number       Type             X           Y           Z
 ---------------------------------------------------------------------
      1          7           0        3.311901    0.182605   -0.722677
      2         16           0        2.040359    0.259986    0.129872
      3          6           0        1.137849    1.833969    0.015470
      4          6           0        0.844697    2.377162   -1.221260
      5          6           0        0.155326    3.576407   -1.290760
      6          6           0       -0.232153    4.219007   -0.125683
      7          6           0        0.071641    3.669419    1.109871
      8          6           0        0.761949    2.471384    1.181679
      9          6           0        0.686410   -0.866478   -0.474472
     10          6           0       -0.456294   -0.833805    0.524121
     11          6           0       -1.480423   -1.880980    0.186704
     12          6           0       -2.570926   -1.572206   -0.615710
     13          6           0       -3.491792   -2.546410   -0.959277
     14          6           0       -3.330467   -3.844367   -0.506235
     15          6           0       -2.245095   -4.162331    0.292762
     16          6           0       -1.326205   -3.186781    0.635254
     17          7           0        2.266122    0.013616    1.617207
     18          1           0        3.170542    0.332384   -1.707987
     19          1           0        1.157706    1.872209   -2.124025
     20          1           0       -0.077695    4.009215   -2.252338
     21          1           0       -0.770015    5.153732   -0.182665
     22          1           0       -0.228818    4.174133    2.015772
     23          1           0        1.022731    2.009923    2.120981
     24          1           0        1.129778   -1.858184   -0.545545
     25          1           0        0.385001   -0.527431   -1.463283
     26          1           0       -0.913537    0.158191    0.516539
     27          1           0       -0.033943   -1.009027    1.515935
     28          1           0       -2.702042   -0.558698   -0.969134
     29          1           0       -4.337671   -2.291683   -1.581195
     30          1           0       -4.049103   -4.605069   -0.773059
     31          1           0       -2.115641   -5.173155    0.651065
     32          1           0       -0.481440   -3.435655    1.261535
     33          1           0        3.177340   -0.357468    1.821831
 ---------------------------------------------------------------------
                    Distance matrix (angstroms):
                    1          2          3          4          5
     1  N    0.000000
     2  S    1.532857   0.000000
     3  C    2.828138   1.817975   0.000000
     4  C    3.339425   2.781654   1.382208   0.000000
     5  C    4.669536   4.070650   2.389074   1.385009   0.000000
     6  C    5.404560   4.572031   2.754131   2.398393   1.385813
     7  C    5.100528   4.057152   2.388177   2.775196   2.403889
     8  C    3.920119   2.762410   1.381174   2.406208   2.775251
     9  C    2.838201   1.862076   2.781412   3.332258   4.548362
    10  C    4.097181   2.754103   3.149132   3.879334   4.808101
    11  C    5.296388   4.121027   4.548133   5.051764   5.885715
    12  C    6.139907   5.017645   5.074980   5.256488   5.864840
    13  C    7.334422   6.298158   6.447590   6.566226   7.134439
    14  C    7.770741   6.789412   7.244413   7.526664   8.236147
    15  C    7.126696   6.160238   6.890342   7.389455   8.255763
    16  C    5.891416   4.844519   5.627044   6.254352   7.186458
    17  N    2.568516   1.524412   2.674368   3.957738   5.060158
    18  H    1.006604   2.158769   3.058905   3.134896   4.448515
    19  H    3.075563   2.908331   2.139929   1.080711   2.145550
    20  H    5.335932   4.921159   3.369302   2.139516   1.079933
    21  H    6.454901   5.651958   3.834061   3.375694   2.138243
    22  H    5.997340   4.901666   3.368286   3.854855   3.382010
    23  H    4.082375   2.839430   2.115984   3.367066   3.853081
    24  H    2.992968   2.402496   3.734541   4.298373   5.571326
    25  H    3.101515   2.428658   2.886122   2.950687   4.113879
    26  H    4.403474   2.980834   2.695827   3.321921   4.011607
    27  H    4.198338   2.798980   3.421566   4.441904   5.379549
    28  H    6.064469   4.936438   4.630234   4.611095   5.036575
    29  H    8.085488   7.079409   7.039294   6.984597   7.396340
    30  H    8.781159   7.846374   8.305869   8.538249   9.213131
    31  H    7.747874   6.860247   7.751707   8.323249   9.245691
    32  H    5.605207   4.614963   5.651876   6.458463   7.489238
    33  H    2.604671   2.129953   3.496407   4.709547   5.856293
                    6          7          8          9         10
     6  C    0.000000
     7  C    1.385977   0.000000
     8  C    2.398254   1.384547   0.000000
     9  C    5.179533   4.843804   3.726910   0.000000
    10  C    5.099352   4.571743   3.583402   1.517902   0.000000
    11  C    6.234229   5.836786   4.996127   2.482244   1.503086
    12  C    6.264832   6.118448   5.539790   3.335901   2.513189
    13  C    7.555857   7.457610   6.917821   4.529302   3.787840
    14  C    8.646524   8.404946   7.712693   5.000413   4.287889
    15  C    8.629824   8.207998   7.337483   4.477167   3.785819
    16  C    7.524738   7.013324   6.055890   3.265872   2.511094
    17  N    5.192722   4.293953   2.914248   2.764991   3.053605
    18  H    5.402579   5.355307   4.327448   3.021547   4.415455
    19  H    3.381204   3.855850   3.382796   3.231648   4.115845
    20  H    2.142552   3.382634   3.855178   5.245669   5.595257
    21  H    1.079931   2.140612   3.376883   6.200745   6.037264
    22  H    2.141928   1.079661   2.139319   5.696201   5.230316
    23  H    3.391502   2.163525   1.078537   3.888852   3.581099
    24  H    6.242066   5.866383   4.675870   1.088626   2.170060
    25  H    4.969781   4.932835   4.016317   1.087909   2.179774
    26  H    4.167368   3.694771   2.932665   2.142867   1.092330
    27  H    5.483296   4.697221   3.585865   2.121543   1.092144
    28  H    5.444100   5.467408   5.080023   3.438172   2.710882
    29  H    7.833446   7.887876   7.505092   5.338299   4.650038
    30  H    9.636001   9.433615   8.777437   6.040803   5.367810
    31  H    9.610597   9.120625   8.185417   5.259828   4.647527
    32  H    7.783339   7.128181   6.037011   3.313346   2.704447
    33  H    6.030057   5.134986   3.774429   3.425906   3.887704
                   11         12         13         14         15
    11  C    0.000000
    12  C    1.388671   0.000000
    13  C    2.408666   1.383874   0.000000
    14  C    2.785268   2.398250   1.384184   0.000000
    15  C    2.408430   2.764098   2.394380   1.384749   0.000000
    16  C    1.389279   2.391880   2.764483   2.398433   1.383241
    17  N    4.435361   5.558576   6.807758   7.121435   6.288383
    18  H    5.488198   6.146949   7.296212   7.820012   7.316734
    19  H    5.136694   5.295442   6.519100   7.445817   7.337274
    20  H    6.527708   6.328270   7.503617   8.678027   8.828891
    21  H    7.080133   6.976320   8.203863   9.360897   9.444094
    22  H    6.447976   6.740220   8.041368   8.959748   8.748187
    23  H    5.014613   5.765024   7.115411   7.754052   7.219266
    24  H    2.711062   3.712400   4.690814   4.882648   4.171525
    25  H    2.834494   3.247682   4.399979   5.071756   4.818049
    26  H    2.142048   2.650131   4.017498   4.786240   4.526592
    27  H    2.149293   3.361154   4.521829   4.795352   4.040875
    28  H    2.139333   1.081341   2.138878   3.377101   3.845433
    29  H    3.384969   2.138036   1.080361   2.140287   3.374895
    30  H    3.865219   3.377577   2.140876   1.079953   2.141596
    31  H    3.384900   3.844325   3.374431   2.140286   1.080233
    32  H    2.137812   3.370822   3.845124   3.377723   2.139407
    33  H    5.166187   6.360798   7.550056   7.741441   6.798370
                   16         17         18         19         20
    16  C    0.000000
    17  N    4.910355   0.000000
    18  H    6.172199   3.460709   0.000000
    19  H    6.275095   4.322009   2.568201   0.000000
    20  H    7.853619   6.035865   4.936238   2.471735   0.000000
    21  H    8.398958   6.235259   6.410927   4.272397   2.464299
    22  H    7.569224   4.867595   6.338853   4.935506   4.273967
    23  H    5.893270   2.405213   4.699811   4.249383   4.932953
    24  H    3.031717   3.077728   3.211632   4.050705   6.228764
    25  H    3.795290   3.649762   2.925475   2.606132   4.627943
    26  H    3.372422   3.367878   4.653876   3.768353   4.816191
    27  H    2.681074   2.519196   4.739386   4.792791   6.275711
    28  H    3.372508   5.630218   5.985581   4.705395   5.422143
    29  H    3.844837   7.691180   7.954563   6.916056   7.635387
    30  H    3.377729   8.180934   8.796352   8.419685   9.600324
    31  H    2.137554   6.858270   7.988731   8.249429   9.843723
    32  H    1.080646   4.424145   6.029358   6.505554   8.242354
    33  H    5.449303   1.004935   3.596604   4.961871   6.801620
                   21         22         23         24         25
    21  H    0.000000
    22  H    2.466908   0.000000
    23  H    4.290018   2.502248   0.000000
    24  H    7.273778   6.692904   4.699370   0.000000
    25  H    5.937142   5.880927   4.437546   1.779842   0.000000
    26  H    5.046277   4.341005   3.122865   3.060870   2.464949
    27  H    6.434799   5.210850   3.255258   2.514957   3.046832
    28  H    6.081375   6.117695   5.479103   4.068284   3.126499
    29  H    8.373664   8.463310   7.806653   5.581531   5.042828
    30  H   10.311895   9.972288   8.823667   5.866681   6.063400
    31  H   10.447507   9.632980   7.975378   4.790997   5.683874
    32  H    8.714732   7.651245   5.714499   2.889632   4.078372
    33  H    7.069154   5.672295   3.215023   3.471186   4.314860
                   26         27         28         29         30
    26  H    0.000000
    27  H    1.770558   0.000000
    28  H    2.433085   3.673842   0.000000
    29  H    4.703941   5.455226   2.460312   0.000000
    30  H    5.846664   5.855982   4.269208   2.467410   0.000000
    31  H    5.466846   4.735127   4.925659   4.268874   2.467615
    32  H    3.695600   2.480624   4.264251   4.925475   4.270284
    33  H    4.324925   3.290963   6.511307   8.473321   8.774796
                   31         32         33
    31  H    0.000000
    32  H    2.462153   0.000000
    33  H    7.251013   4.814129   0.000000
 Stoichiometry    C14H16N2S
 Framework group  C1[X(C14H16N2S)]
 Deg. of freedom    93
 Full point group                 C1      NOp   1
 Largest Abelian subgroup         C1      NOp   1
 Largest concise Abelian subgroup C1      NOp   1
                         Standard orientation:                         
 ---------------------------------------------------------------------
 Center     Atomic      Atomic             Coordinates (Angstroms)
 Number     Number       Type             X           Y           Z
 ---------------------------------------------------------------------
      1          7           0       -1.917486    2.517366   -1.284006
      2         16           0       -1.329343    1.590520   -0.214103
      3          6           0       -2.176403   -0.008426   -0.038332
      4          6           0       -2.444840   -0.777630   -1.154918
      5          6           0       -3.089803   -1.993896   -1.003364
      6          6           0       -3.459548   -2.427054    0.260021
      7          6           0       -3.191340   -1.645904    1.373035
      8          6           0       -2.547965   -0.429052    1.223673
      9          6           0        0.361794    0.947609   -0.654616
     10          6           0        0.914992    0.179268    0.531828
     11          6           0        2.355824   -0.180851    0.300347
     12          6           0        2.698310   -1.401476   -0.266383
     13          6           0        4.022576   -1.715882   -0.516533
     14          6           0        5.021617   -0.809761   -0.205358
     15          6           0        4.689733    0.410804    0.358204
     16          6           0        3.365412    0.722656    0.607761
     17          7           0       -1.283075    2.196083    1.184105
     18          1           0       -1.941147    2.130070   -2.212819
     19          1           0       -2.159199   -0.427725   -2.136709
     20          1           0       -3.304656   -2.601696   -1.869777
     21          1           0       -3.961880   -3.376044    0.375488
     22          1           0       -3.483555   -1.984693    2.355634
     23          1           0       -2.323045    0.212496    2.060972
     24          1           0        0.966267    1.823637   -0.883298
     25          1           0        0.263444    0.327422   -1.543009
     26          1           0        0.319878   -0.723666    0.685892
     27          1           0        0.810260    0.813640    1.414653
     28          1           0        1.920944   -2.113210   -0.508117
     29          1           0        4.275351   -2.670625   -0.954425
     30          1           0        6.055399   -1.054637   -0.399339
     31          1           0        5.465578    1.120695    0.605234
     32          1           0        3.108157    1.674239    1.050600
     33          1           0       -1.460531    3.185196    1.191778
 ---------------------------------------------------------------------
 Rotational constants (GHZ):           0.7121186           0.2403388           0.2038743
 Standard basis: def2SVP (5D, 7F)
 There are   339 symmetry adapted cartesian basis functions of A   symmetry.
 There are   322 symmetry adapted basis functions of A   symmetry.
   322 basis functions,   549 primitive gaussians,   339 cartesian basis functions
    65 alpha electrons       65 beta electrons
       nuclear repulsion energy      1272.2438800097 Hartrees.
 NAtoms=   33 NActive=   33 NUniq=   33 SFac= 1.00D+00 NAtFMM=   60 NAOKFM=F Big=F
 Integral buffers will be    131072 words long.
 Raffenetti 2 integral format.
 Two-electron integral symmetry is turned on.
 Nuclear repulsion after empirical dispersion term =     1272.2041769724 Hartrees.
 One-electron integrals computed using PRISM.
   1 Symmetry operations used in ECPInt.
 ECPInt:  NShTT=   11628 NPrTT=   42474 LenC2=   10657 LenP2D=   27763.
 LDataN:  DoStor=T MaxTD1= 4 Len=   56
 NBasis=   322 RedAO= T EigKep=  2.65D-04  NBF=   322
 NBsUse=   322 1.00D-06 EigRej= -1.00D+00 NBFU=   322
 ExpMin= 1.22D-01 ExpMax= 9.18D+03 ExpMxC= 1.38D+03 IAcc=3 IRadAn=         5 AccDes= 0.00D+00
 Harris functional with IExCor= 1009 and IRadAn=       5 diagonalized for initial guess.
 HarFok:  IExCor= 1009 AccDes= 0.00D+00 IRadAn=         5 IDoV= 1 UseB2=F ITyADJ=14
 ICtDFT=  3500011 ScaDFX=  1.000000  1.000000  1.000000  1.000000
 FoFCou: FMM=F IPFlag=           0 FMFlag=      100000 FMFlg1=           0
         NFxFlg=           0 DoJE=T BraDBF=F KetDBF=T FulRan=T
         wScrn=  0.000000 ICntrl=       500 IOpCl=  0 I1Cent=   200000004 NGrid=           0
         NMat0=    1 NMatS0=      1 NMatT0=    0 NMatD0=    1 NMtDS0=    0 NMtDT0=    0
 Petite list used in FoFCou.
 Requested convergence on RMS density matrix=1.00D-08 within 128 cycles.
 Requested convergence on MAX density matrix=1.00D-06.
 Requested convergence on             energy=1.00D-06.
 No special actions if energy rises.
 Integral accuracy reduced to 1.0D-05 until final iterations.
 Initial convergence to 1.0D-05 achieved.  Increase integral accuracy.
 SCF Done:  E(RPBE1PBE) =  -1049.21434287     A.U. after   14 cycles
            NFock= 14  Conv=0.76D-08     -V/T= 2.0069

 **********************************************************************

            Population analysis using the SCF Density.

 **********************************************************************

 Orbital symmetries:
       Occupied  (A) (A) (A) (A) (A) (A) (A) (A) (A) (A) (A) (A)
                 (A) (A) (A) (A) (A) (A) (A) (A) (A) (A) (A) (A)
                 (A) (A) (A) (A) (A) (A) (A) (A) (A) (A) (A) (A)
                 (A) (A) (A) (A) (A) (A) (A) (A) (A) (A) (A) (A)
                 (A) (A) (A) (A) (A) (A) (A) (A) (A) (A) (A) (A)
                 (A) (A) (A) (A) (A)
       Virtual   (A) (A) (A) (A) (A) (A) (A) (A) (A) (A) (A) (A)
                 (A) (A) (A) (A) (A) (A) (A) (A) (A) (A) (A) (A)
                 (A) (A) (A) (A) (A) (A) (A) (A) (A) (A) (A) (A)
                 (A) (A) (A) (A) (A) (A) (A) (A) (A) (A) (A) (A)
                 (A) (A) (A) (A) (A) (A) (A) (A) (A) (A) (A) (A)
                 (A) (A) (A) (A) (A) (A) (A) (A) (A) (A) (A) (A)
                 (A) (A) (A) (A) (A) (A) (A) (A) (A) (A) (A) (A)
                 (A) (A) (A) (A) (A) (A) (A) (A) (A) (A) (A) (A)
                 (A) (A) (A) (A) (A) (A) (A) (A) (A) (A) (A) (A)
                 (A) (A) (A) (A) (A) (A) (A) (A) (A) (A) (A) (A)
                 (A) (A) (A) (A) (A) (A) (A) (A) (A) (A) (A) (A)
                 (A) (A) (A) (A) (A) (A) (A) (A) (A) (A) (A) (A)
                 (A) (A) (A) (A) (A) (A) (A) (A) (A) (A) (A) (A)
                 (A) (A) (A) (A) (A) (A) (A) (A) (A) (A) (A) (A)
                 (A) (A) (A) (A) (A) (A) (A) (A) (A) (A) (A) (A)
                 (A) (A) (A) (A) (A) (A) (A) (A) (A) (A) (A) (A)
                 (A) (A) (A) (A) (A) (A) (A) (A) (A) (A) (A) (A)
                 (A) (A) (A) (A) (A) (A) (A) (A) (A) (A) (A) (A)
                 (A) (A) (A) (A) (A) (A) (A) (A) (A) (A) (A) (A)
                 (A) (A) (A) (A) (A) (A) (A) (A) (A) (A) (A) (A)
                 (A) (A) (A) (A) (A) (A) (A) (A) (A) (A) (A) (A)
                 (A) (A) (A) (A) (A)
 The electronic state is 1-A.
 Alpha  occ. eigenvalues --  -89.17930 -14.34473 -14.33761 -10.26649 -10.26231
 Alpha  occ. eigenvalues --  -10.26219 -10.25572 -10.25422 -10.25207 -10.25090
 Alpha  occ. eigenvalues --  -10.24532 -10.24062 -10.23706 -10.23676 -10.23551
 Alpha  occ. eigenvalues --  -10.23491 -10.23476  -8.15402  -6.09531  -6.09435
 Alpha  occ. eigenvalues --   -6.09396  -1.00649  -0.89978  -0.88693  -0.84953
 Alpha  occ. eigenvalues --   -0.82371  -0.79203  -0.78424  -0.76658  -0.75765
 Alpha  occ. eigenvalues --   -0.68612  -0.65393  -0.64131  -0.62561  -0.60588
 Alpha  occ. eigenvalues --   -0.59765  -0.55921  -0.53773  -0.52040  -0.50769
 Alpha  occ. eigenvalues --   -0.49915  -0.48910  -0.47740  -0.47046  -0.46474
 Alpha  occ. eigenvalues --   -0.45456  -0.45014  -0.43694  -0.43159  -0.41519
 Alpha  occ. eigenvalues --   -0.40658  -0.39013  -0.37983  -0.37749  -0.37596
 Alpha  occ. eigenvalues --   -0.35856  -0.35240  -0.31034  -0.29528  -0.28733
 Alpha  occ. eigenvalues --   -0.27572  -0.27049  -0.26521  -0.24476  -0.24222
 Alpha virt. eigenvalues --   -0.03333  -0.02082  -0.00519  -0.00415   0.04952
 Alpha virt. eigenvalues --    0.06703   0.07087   0.08120   0.09008   0.09478
 Alpha virt. eigenvalues --    0.10043   0.10949   0.11434   0.11649   0.12723
 Alpha virt. eigenvalues --    0.13476   0.14135   0.14254   0.15643   0.16399
 Alpha virt. eigenvalues --    0.16969   0.17303   0.17631   0.18796   0.19292
 Alpha virt. eigenvalues --    0.21092   0.23940   0.25540   0.28525   0.28895
 Alpha virt. eigenvalues --    0.30200   0.30279   0.30832   0.31637   0.32515
 Alpha virt. eigenvalues --    0.33206   0.35253   0.37320   0.39504   0.40201
 Alpha virt. eigenvalues --    0.41376   0.41497   0.42670   0.43411   0.43700
 Alpha virt. eigenvalues --    0.44748   0.46055   0.46405   0.47416   0.48238
 Alpha virt. eigenvalues --    0.48454   0.49396   0.49621   0.50928   0.51304
 Alpha virt. eigenvalues --    0.51513   0.52883   0.53710   0.54515   0.56033
 Alpha virt. eigenvalues --    0.56087   0.56815   0.58887   0.60732   0.61266
 Alpha virt. eigenvalues --    0.61503   0.62390   0.63759   0.64524   0.65360
 Alpha virt. eigenvalues --    0.65860   0.66079   0.66526   0.67418   0.67762
 Alpha virt. eigenvalues --    0.68351   0.68910   0.68999   0.69629   0.70051
 Alpha virt. eigenvalues --    0.70664   0.71413   0.71710   0.72849   0.73373
 Alpha virt. eigenvalues --    0.73842   0.74670   0.74776   0.75723   0.76047
 Alpha virt. eigenvalues --    0.76522   0.76852   0.77597   0.78425   0.79670
 Alpha virt. eigenvalues --    0.81234   0.81713   0.82918   0.84317   0.85186
 Alpha virt. eigenvalues --    0.86545   0.87241   0.88375   0.91822   0.93065
 Alpha virt. eigenvalues --    0.94844   0.95309   0.95936   0.98246   0.99730
 Alpha virt. eigenvalues --    1.02404   1.03839   1.04972   1.07373   1.07879
 Alpha virt. eigenvalues --    1.09614   1.10373   1.13889   1.16683   1.16935
 Alpha virt. eigenvalues --    1.18479   1.20032   1.21299   1.22759   1.23785
 Alpha virt. eigenvalues --    1.24551   1.25186   1.25381   1.26436   1.27323
 Alpha virt. eigenvalues --    1.28527   1.29452   1.30030   1.31071   1.31569
 Alpha virt. eigenvalues --    1.34293   1.34605   1.38381   1.39839   1.46117
 Alpha virt. eigenvalues --    1.50025   1.51045   1.53086   1.53636   1.55858
 Alpha virt. eigenvalues --    1.58972   1.66206   1.66836   1.67731   1.69442
 Alpha virt. eigenvalues --    1.69949   1.70715   1.71248   1.72449   1.74157
 Alpha virt. eigenvalues --    1.75098   1.75394   1.76130   1.76396   1.76858
 Alpha virt. eigenvalues --    1.77009   1.77321   1.77617   1.77763   1.79175
 Alpha virt. eigenvalues --    1.79521   1.81642   1.81850   1.83483   1.84757
 Alpha virt. eigenvalues --    1.85298   1.85962   1.89000   1.89864   1.90484
 Alpha virt. eigenvalues --    1.91795   1.95160   1.96451   1.96557   1.98042
 Alpha virt. eigenvalues --    1.98984   1.99834   1.99924   2.00664   2.01726
 Alpha virt. eigenvalues --    2.03594   2.06648   2.08014   2.11154   2.12633
 Alpha virt. eigenvalues --    2.12727   2.14587   2.15309   2.16101   2.16429
 Alpha virt. eigenvalues --    2.17345   2.18139   2.18791   2.21102   2.23923
 Alpha virt. eigenvalues --    2.28139   2.30208   2.30852   2.31201   2.31609
 Alpha virt. eigenvalues --    2.32472   2.32881   2.33487   2.36163   2.37055
 Alpha virt. eigenvalues --    2.37900   2.38409   2.39932   2.40304   2.43181
 Alpha virt. eigenvalues --    2.46230   2.50342   2.51600   2.53744   2.55292
 Alpha virt. eigenvalues --    2.59178   2.60638   2.61854   2.63465   2.64298
 Alpha virt. eigenvalues --    2.64548   2.65238   2.65961   2.67466   2.67511
 Alpha virt. eigenvalues --    2.72534   2.75389   2.75963   2.77110   2.77323
 Alpha virt. eigenvalues --    2.82034   2.84187   2.85635   2.88277   2.90936
 Alpha virt. eigenvalues --    2.91257   2.91765   2.92907   2.94966   2.97308
 Alpha virt. eigenvalues --    3.00964   3.06273   3.07200   3.13136   3.15580
 Alpha virt. eigenvalues --    3.18012   3.23968   3.27184   3.30616   3.34199
 Alpha virt. eigenvalues --    3.65650   3.69679
          Condensed to atoms (all electrons):
               1          2          3          4          5          6
     1  N    6.865463   0.359114  -0.033458  -0.000345   0.000225  -0.000017
     2  S    0.359114  14.647448   0.083784  -0.041735   0.001296   0.000181
     3  C   -0.033458   0.083784   5.935181   0.144306   0.101983  -0.187323
     4  C   -0.000345  -0.041735   0.144306   5.170664   0.307181   0.093515
     5  C    0.000225   0.001296   0.101983   0.307181   5.026395   0.275089
     6  C   -0.000017   0.000181  -0.187323   0.093515   0.275089   5.123780
     7  C   -0.000054   0.005460   0.108038  -0.149404   0.089418   0.249594
     8  C    0.001290  -0.033267   0.297650   0.060164  -0.136432   0.108462
     9  C   -0.058603   0.230765  -0.130036  -0.007322  -0.000331  -0.000190
    10  C    0.004761  -0.051899  -0.000553   0.002424  -0.000206   0.000079
    11  C   -0.000050   0.003314  -0.001867  -0.000132  -0.000014  -0.000004
    12  C   -0.000001  -0.000027   0.000080  -0.000013  -0.000007  -0.000001
    13  C   -0.000000   0.000003   0.000002   0.000000  -0.000000  -0.000000
    14  C   -0.000000   0.000000   0.000000   0.000000   0.000000  -0.000000
    15  C   -0.000000   0.000004  -0.000001   0.000000  -0.000000  -0.000000
    16  C   -0.000010  -0.000081  -0.000016  -0.000004   0.000000  -0.000000
    17  N   -0.065058   0.405380  -0.101403   0.007401  -0.000033  -0.000052
    18  H    0.319705  -0.007609  -0.010333   0.005783   0.000518   0.000005
    19  H    0.002416  -0.002315  -0.091744   0.441111  -0.045571   0.013526
    20  H    0.000002  -0.000144   0.016980  -0.071844   0.454050  -0.070706
    21  H   -0.000000   0.000021  -0.001511   0.014999  -0.068839   0.449724
    22  H    0.000001  -0.000146   0.017119  -0.001924   0.014457  -0.074404
    23  H    0.000542  -0.014464  -0.057003   0.015363  -0.002046   0.012444
    24  H    0.007605  -0.006511   0.009253  -0.000220  -0.000014   0.000003
    25  H    0.001662  -0.010231   0.001796   0.004532   0.000581   0.000046
    26  H   -0.000049  -0.005594   0.006605  -0.000949   0.000050   0.000008
    27  H    0.000592  -0.003758  -0.001393  -0.000152   0.000012   0.000010
    28  H    0.000001  -0.000097   0.000053   0.000150   0.000056   0.000002
    29  H    0.000000  -0.000000  -0.000000  -0.000000  -0.000000  -0.000000
    30  H   -0.000000   0.000000  -0.000000  -0.000000   0.000000   0.000000
    31  H    0.000000  -0.000000   0.000000   0.000000  -0.000000   0.000000
    32  H   -0.000001  -0.000105   0.000002  -0.000000   0.000000  -0.000000
    33  H    0.006404  -0.018679   0.007791  -0.000448  -0.000009   0.000007
               7          8          9         10         11         12
     1  N   -0.000054   0.001290  -0.058603   0.004761  -0.000050  -0.000001
     2  S    0.005460  -0.033267   0.230765  -0.051899   0.003314  -0.000027
     3  C    0.108038   0.297650  -0.130036  -0.000553  -0.001867   0.000080
     4  C   -0.149404   0.060164  -0.007322   0.002424  -0.000132  -0.000013
     5  C    0.089418  -0.136432  -0.000331  -0.000206  -0.000014  -0.000007
     6  C    0.249594   0.108462  -0.000190   0.000079  -0.000004  -0.000001
     7  C    5.147238   0.214257  -0.000499   0.000225   0.000021  -0.000001
     8  C    0.214257   5.074544  -0.003744  -0.000813   0.000122   0.000012
     9  C   -0.000499  -0.003744   5.304875   0.254136  -0.042209  -0.007334
    10  C    0.000225  -0.000813   0.254136   4.889614   0.355608  -0.079062
    11  C    0.000021   0.000122  -0.042209   0.355608   5.314077   0.296720
    12  C   -0.000001   0.000012  -0.007334  -0.079062   0.296720   5.104257
    13  C   -0.000000  -0.000000   0.000013   0.010748   0.086176   0.305441
    14  C    0.000000   0.000000   0.000113   0.000021  -0.158822   0.079838
    15  C   -0.000000   0.000000  -0.000014   0.011340   0.088985  -0.131895
    16  C   -0.000000  -0.000002  -0.005172  -0.097229   0.292715   0.042847
    17  N    0.002032   0.000638  -0.082374  -0.005671   0.000433  -0.000014
    18  H   -0.000031  -0.000726  -0.000353   0.000083  -0.000039   0.000000
    19  H   -0.001424   0.012000   0.000014  -0.000008   0.000030  -0.000015
    20  H    0.014248  -0.001917   0.000043  -0.000006   0.000000  -0.000000
    21  H   -0.067668   0.013991   0.000000   0.000000   0.000000   0.000000
    22  H    0.457944  -0.072887   0.000015  -0.000016   0.000001  -0.000000
    23  H   -0.064775   0.442368   0.000905   0.000031   0.000114  -0.000004
    24  H    0.000003  -0.000058   0.333991  -0.002969  -0.008301  -0.001344
    25  H   -0.000057   0.000323   0.330517  -0.016084  -0.003020   0.004974
    26  H   -0.000199   0.000086  -0.021791   0.368722  -0.010508  -0.010977
    27  H    0.000101   0.001495  -0.038570   0.369348  -0.009259   0.007203
    28  H   -0.000007  -0.000027  -0.000217  -0.016068  -0.072944   0.448538
    29  H    0.000000   0.000000  -0.000004  -0.000323   0.016536  -0.070923
    30  H    0.000000   0.000000   0.000001   0.000036  -0.001424   0.014513
    31  H    0.000000  -0.000000  -0.000007  -0.000337   0.016449  -0.001868
    32  H   -0.000000   0.000000  -0.000030  -0.014590  -0.073476   0.014909
    33  H   -0.000063  -0.000045   0.003459  -0.000856  -0.000007   0.000001
              13         14         15         16         17         18
     1  N   -0.000000  -0.000000  -0.000000  -0.000010  -0.065058   0.319705
     2  S    0.000003   0.000000   0.000004  -0.000081   0.405380  -0.007609
     3  C    0.000002   0.000000  -0.000001  -0.000016  -0.101403  -0.010333
     4  C    0.000000   0.000000   0.000000  -0.000004   0.007401   0.005783
     5  C   -0.000000   0.000000  -0.000000   0.000000  -0.000033   0.000518
     6  C   -0.000000  -0.000000  -0.000000  -0.000000  -0.000052   0.000005
     7  C   -0.000000   0.000000  -0.000000  -0.000000   0.002032  -0.000031
     8  C   -0.000000   0.000000   0.000000  -0.000002   0.000638  -0.000726
     9  C    0.000013   0.000113  -0.000014  -0.005172  -0.082374  -0.000353
    10  C    0.010748   0.000021   0.011340  -0.097229  -0.005671   0.000083
    11  C    0.086176  -0.158822   0.088985   0.292715   0.000433  -0.000039
    12  C    0.305441   0.079838  -0.131895   0.042847  -0.000014   0.000000
    13  C    5.042927   0.287247   0.078696  -0.131316  -0.000000  -0.000000
    14  C    0.287247   5.105432   0.283583   0.081979   0.000000  -0.000000
    15  C    0.078696   0.283583   5.043816   0.303459  -0.000002   0.000000
    16  C   -0.131316   0.081979   0.303459   5.114042   0.000045  -0.000000
    17  N   -0.000000   0.000000  -0.000002   0.000045   6.850166   0.004591
    18  H   -0.000000  -0.000000   0.000000  -0.000000   0.004591   0.572314
    19  H    0.000000  -0.000000   0.000000   0.000002   0.000381   0.003635
    20  H    0.000000  -0.000000   0.000000   0.000000   0.000001  -0.000003
    21  H    0.000000   0.000000   0.000000  -0.000000   0.000000  -0.000000
    22  H    0.000000   0.000000   0.000000   0.000000  -0.000007   0.000000
    23  H    0.000000   0.000000  -0.000000  -0.000001   0.035096  -0.000091
    24  H    0.000022  -0.000032  -0.000712   0.005690   0.000491  -0.000406
    25  H   -0.000496  -0.000015   0.000013  -0.000947   0.004250   0.000949
    26  H    0.000869   0.000024  -0.000595   0.009404   0.000151   0.000011
    27  H   -0.000571   0.000044   0.000544  -0.008751   0.035067  -0.000101
    28  H   -0.066206   0.014607  -0.001751   0.015159   0.000002  -0.000001
    29  H    0.451072  -0.073713   0.014864  -0.001928  -0.000000   0.000000
    30  H   -0.069861   0.449796  -0.069838   0.014501   0.000000  -0.000000
    31  H    0.014834  -0.073780   0.451873  -0.071083  -0.000000  -0.000000
    32  H   -0.001738   0.014438  -0.065210   0.450851   0.000078   0.000000
    33  H    0.000000  -0.000000   0.000000  -0.000001   0.340239  -0.000245
              19         20         21         22         23         24
     1  N    0.002416   0.000002  -0.000000   0.000001   0.000542   0.007605
     2  S   -0.002315  -0.000144   0.000021  -0.000146  -0.014464  -0.006511
     3  C   -0.091744   0.016980  -0.001511   0.017119  -0.057003   0.009253
     4  C    0.441111  -0.071844   0.014999  -0.001924   0.015363  -0.000220
     5  C   -0.045571   0.454050  -0.068839   0.014457  -0.002046  -0.000014
     6  C    0.013526  -0.070706   0.449724  -0.074404   0.012444   0.000003
     7  C   -0.001424   0.014248  -0.067668   0.457944  -0.064775   0.000003
     8  C    0.012000  -0.001917   0.013991  -0.072887   0.442368  -0.000058
     9  C    0.000014   0.000043   0.000000   0.000015   0.000905   0.333991
    10  C   -0.000008  -0.000006   0.000000  -0.000016   0.000031  -0.002969
    11  C    0.000030   0.000000   0.000000   0.000001   0.000114  -0.008301
    12  C   -0.000015  -0.000000   0.000000  -0.000000  -0.000004  -0.001344
    13  C    0.000000   0.000000   0.000000   0.000000   0.000000   0.000022
    14  C   -0.000000  -0.000000   0.000000   0.000000   0.000000  -0.000032
    15  C    0.000000   0.000000   0.000000   0.000000  -0.000000  -0.000712
    16  C    0.000002   0.000000  -0.000000   0.000000  -0.000001   0.005690
    17  N    0.000381   0.000001   0.000000  -0.000007   0.035096   0.000491
    18  H    0.003635  -0.000003  -0.000000   0.000000  -0.000091  -0.000406
    19  H    0.671023  -0.012499  -0.000277   0.000045  -0.000213  -0.000333
    20  H   -0.012499   0.661628  -0.012121  -0.000260   0.000027  -0.000001
    21  H   -0.000277  -0.012121   0.660180  -0.012139  -0.000197   0.000000
    22  H    0.000045  -0.000260  -0.012139   0.657716  -0.010395  -0.000000
    23  H   -0.000213   0.000027  -0.000197  -0.010395   0.599868  -0.000054
    24  H   -0.000333  -0.000001   0.000000  -0.000000  -0.000054   0.594583
    25  H    0.002162  -0.000028  -0.000001  -0.000000  -0.000117  -0.011797
    26  H    0.000067  -0.000003  -0.000004   0.000027   0.000145   0.007145
    27  H   -0.000028  -0.000000   0.000000  -0.000006   0.000287  -0.004507
    28  H   -0.000002   0.000000  -0.000000  -0.000000  -0.000001   0.000062
    29  H   -0.000000  -0.000000   0.000000  -0.000000  -0.000000   0.000001
    30  H    0.000000  -0.000000   0.000000   0.000000   0.000000  -0.000001
    31  H   -0.000000  -0.000000  -0.000000  -0.000000   0.000000   0.000022
    32  H    0.000000  -0.000000   0.000000   0.000000  -0.000002   0.001392
    33  H   -0.000041  -0.000000   0.000000  -0.000002  -0.000868   0.000644
              25         26         27         28         29         30
     1  N    0.001662  -0.000049   0.000592   0.000001   0.000000  -0.000000
     2  S   -0.010231  -0.005594  -0.003758  -0.000097  -0.000000   0.000000
     3  C    0.001796   0.006605  -0.001393   0.000053  -0.000000  -0.000000
     4  C    0.004532  -0.000949  -0.000152   0.000150  -0.000000  -0.000000
     5  C    0.000581   0.000050   0.000012   0.000056  -0.000000   0.000000
     6  C    0.000046   0.000008   0.000010   0.000002  -0.000000   0.000000
     7  C   -0.000057  -0.000199   0.000101  -0.000007   0.000000   0.000000
     8  C    0.000323   0.000086   0.001495  -0.000027   0.000000   0.000000
     9  C    0.330517  -0.021791  -0.038570  -0.000217  -0.000004   0.000001
    10  C   -0.016084   0.368722   0.369348  -0.016068  -0.000323   0.000036
    11  C   -0.003020  -0.010508  -0.009259  -0.072944   0.016536  -0.001424
    12  C    0.004974  -0.010977   0.007203   0.448538  -0.070923   0.014513
    13  C   -0.000496   0.000869  -0.000571  -0.066206   0.451072  -0.069861
    14  C   -0.000015   0.000024   0.000044   0.014607  -0.073713   0.449796
    15  C    0.000013  -0.000595   0.000544  -0.001751   0.014864  -0.069838
    16  C   -0.000947   0.009404  -0.008751   0.015159  -0.001928   0.014501
    17  N    0.004250   0.000151   0.035067   0.000002  -0.000000   0.000000
    18  H    0.000949   0.000011  -0.000101  -0.000001   0.000000  -0.000000
    19  H    0.002162   0.000067  -0.000028  -0.000002  -0.000000   0.000000
    20  H   -0.000028  -0.000003  -0.000000   0.000000  -0.000000  -0.000000
    21  H   -0.000001  -0.000004   0.000000  -0.000000   0.000000   0.000000
    22  H   -0.000000   0.000027  -0.000006  -0.000000  -0.000000   0.000000
    23  H   -0.000117   0.000145   0.000287  -0.000001  -0.000000   0.000000
    24  H   -0.011797   0.007145  -0.004507   0.000062   0.000001  -0.000001
    25  H    0.633191  -0.009949   0.009497   0.000977   0.000010  -0.000001
    26  H   -0.009949   0.629392  -0.024166   0.006367  -0.000010  -0.000001
    27  H    0.009497  -0.024166   0.598767   0.000210   0.000009  -0.000001
    28  H    0.000977   0.006367   0.000210   0.684768  -0.012902  -0.000301
    29  H    0.000010  -0.000010   0.000009  -0.012902   0.678218  -0.012627
    30  H   -0.000001  -0.000001  -0.000001  -0.000301  -0.012627   0.674178
    31  H    0.000001   0.000011  -0.000006   0.000039  -0.000300  -0.012583
    32  H    0.000116   0.000167   0.005197  -0.000276   0.000038  -0.000293
    33  H   -0.000183  -0.000029  -0.000643  -0.000000  -0.000000  -0.000000
              31         32         33
     1  N    0.000000  -0.000001   0.006404
     2  S   -0.000000  -0.000105  -0.018679
     3  C    0.000000   0.000002   0.007791
     4  C    0.000000  -0.000000  -0.000448
     5  C   -0.000000   0.000000  -0.000009
     6  C    0.000000  -0.000000   0.000007
     7  C    0.000000  -0.000000  -0.000063
     8  C   -0.000000   0.000000  -0.000045
     9  C   -0.000007  -0.000030   0.003459
    10  C   -0.000337  -0.014590  -0.000856
    11  C    0.016449  -0.073476  -0.000007
    12  C   -0.001868   0.014909   0.000001
    13  C    0.014834  -0.001738   0.000000
    14  C   -0.073780   0.014438  -0.000000
    15  C    0.451873  -0.065210   0.000000
    16  C   -0.071083   0.450851  -0.000001
    17  N   -0.000000   0.000078   0.340239
    18  H   -0.000000   0.000000  -0.000245
    19  H   -0.000000   0.000000  -0.000041
    20  H   -0.000000  -0.000000  -0.000000
    21  H   -0.000000   0.000000   0.000000
    22  H   -0.000000   0.000000  -0.000002
    23  H    0.000000  -0.000002  -0.000868
    24  H    0.000022   0.001392   0.000644
    25  H    0.000001   0.000116  -0.000183
    26  H    0.000011   0.000167  -0.000029
    27  H   -0.000006   0.005197  -0.000643
    28  H    0.000039  -0.000276  -0.000000
    29  H   -0.000300   0.000038  -0.000000
    30  H   -0.012583  -0.000293  -0.000000
    31  H    0.675694  -0.012664  -0.000000
    32  H   -0.012664   0.674596   0.000004
    33  H   -0.000000   0.000004   0.526899
 Mulliken charges:
               1
     1  N   -0.412138
     2  S    0.459894
     3  C   -0.113984
     4  C    0.006900
     5  C   -0.017808
     6  C    0.006225
     7  C   -0.004396
     8  C    0.022517
     9  C   -0.060046
    10  C    0.019513
    11  C   -0.089225
    12  C   -0.015848
    13  C   -0.007862
    14  C   -0.010759
    15  C   -0.007160
    16  C   -0.014150
    17  N   -0.431827
    18  H    0.112343
    19  H    0.008060
    20  H    0.022551
    21  H    0.023842
    22  H    0.024862
    23  H    0.043041
    24  H    0.076352
    25  H    0.057331
    26  H    0.055573
    27  H    0.063531
    28  H   -0.000193
    29  H    0.011982
    30  H    0.013907
    31  H    0.013704
    32  H    0.006595
    33  H    0.136671
 Sum of Mulliken charges =  -0.00000
 Mulliken charges with hydrogens summed into heavy atoms:
               1
     1  N   -0.299794
     2  S    0.459894
     3  C   -0.113984
     4  C    0.014960
     5  C    0.004743
     6  C    0.030067
     7  C    0.020466
     8  C    0.065558
     9  C    0.073637
    10  C    0.138616
    11  C   -0.089225
    12  C   -0.016040
    13  C    0.004120
    14  C    0.003148
    15  C    0.006545
    16  C   -0.007555
    17  N   -0.295156
 Electronic spatial extent (au):  <R**2>=           5396.4770
 Charge=             -0.0000 electrons
 Dipole moment (field-independent basis, Debye):
    X=              0.6686    Y=             -3.3174    Z=             -1.4277  Tot=              3.6730
 Quadrupole moment (field-independent basis, Debye-Ang):
   XX=           -105.0694   YY=           -108.1474   ZZ=           -105.2237
   XY=             12.3761   XZ=             -0.8466   YZ=              3.0103
 Traceless Quadrupole moment (field-independent basis, Debye-Ang):
   XX=              1.0774   YY=             -2.0006   ZZ=              0.9232
   XY=             12.3761   XZ=             -0.8466   YZ=              3.0103
 Octapole moment (field-independent basis, Debye-Ang**2):
  XXX=             40.3777  YYY=            -17.6830  ZZZ=            -13.2678  XYY=              5.8319
  XXY=            -30.0860  XXZ=              3.3123  XZZ=            -25.9796  YZZ=             -3.2012
  YYZ=              8.5508  XYZ=              6.2198
 Hexadecapole moment (field-independent basis, Debye-Ang**3):
 XXXX=          -5100.0038 YYYY=          -1522.1036 ZZZZ=           -546.9023 XXXY=             92.7241
 XXXZ=            -45.0507 YYYX=             79.5203 YYYZ=             75.8322 ZZZX=             14.1606
 ZZZY=            -23.1901 XXYY=          -1074.1387 XXZZ=           -985.3806 YYZZ=           -350.4355
 XXYZ=             49.5388 YYXZ=            -39.6138 ZZXY=             24.9849
 N-N= 1.272204176972D+03 E-N=-4.998289978103D+03  KE= 1.042072811596D+03
   1 Symmetry operations used in ECPInt.
 ECPInt:  NShTT=   11628 NPrTT=   42474 LenC2=   10657 LenP2D=   27763.
 LDataN:  DoStor=T MaxTD1= 5 Len=  102
 Calling FoFJK, ICntrl=      2127 FMM=F ISym2X=0 I1Cent= 0 IOpClX= 0 NMat=1 NMatS=1 NMatT=0.
 ***** Axes restored to original set *****
 -------------------------------------------------------------------
 Center     Atomic                   Forces (Hartrees/Bohr)
 Number     Number              X              Y              Z
 -------------------------------------------------------------------
      1        7           0.006407475   -0.000163700    0.003271629
      2       16           0.001723651   -0.006373872   -0.005392286
      3        6           0.003326245   -0.008915881    0.002956635
      4        6           0.000910388   -0.001466900   -0.002422820
      5        6           0.000366232   -0.001170571   -0.000573414
      6        6          -0.000478760    0.000868804    0.000649804
      7        6           0.000147262    0.000411952   -0.001884722
      8        6           0.000891340    0.000259270    0.002767947
      9        6           0.003811376    0.014562668    0.014373905
     10        6          -0.002097022   -0.007807938   -0.007400775
     11        6           0.005469512    0.008223053    0.002914512
     12        6          -0.000731114   -0.000268838   -0.000286607
     13        6          -0.000915352    0.000122655   -0.000954172
     14        6          -0.001093397   -0.001102469   -0.000468874
     15        6           0.000194055   -0.001201986    0.000069155
     16        6          -0.000376749   -0.000240076    0.000008785
     17        7          -0.019182929    0.004778604    0.011406474
     18        1          -0.004126684    0.000858701   -0.011910582
     19        1           0.002496986   -0.003533578   -0.008645189
     20        1          -0.001696437    0.003546051   -0.008074340
     21        1          -0.004606764    0.007896171   -0.000470997
     22        1          -0.002423893    0.004121884    0.007869377
     23        1           0.002664147   -0.004508458    0.009050131
     24        1           0.007209150   -0.005457331   -0.000125216
     25        1          -0.001466739    0.002215332   -0.008698908
     26        1          -0.002771412    0.004659568    0.001427072
     27        1           0.001609320    0.000052286    0.005426254
     28        1          -0.000984108    0.008552196   -0.002755962
     29        1          -0.007126430    0.002124581   -0.005117120
     30        1          -0.006089466   -0.006445226   -0.002196938
     31        1           0.001082914   -0.008465034    0.003130998
     32        1           0.007306218   -0.002238755    0.005653000
     33        1           0.010550985   -0.003893165   -0.003596758
 -------------------------------------------------------------------
 Cartesian Forces:  Max     0.019182929 RMS     0.005350196

 GradGradGradGradGradGradGradGradGradGradGradGradGradGradGradGradGradGrad
 Berny optimization.
 FormGI is forming the generalized inverse of G from B-inverse, IUseBI=4.
 Internal  Forces:  Max     0.012945709 RMS     0.004397281
 Search for a local minimum.
 Step number   1 out of a maximum of  184
 All quantities printed in internal units (Hartrees-Bohrs-Radians)
 Mixed Optimization -- RFO/linear search
 Second derivative matrix not updated -- first step.
 ITU=  0
     Eigenvalues ---    0.00230   0.00230   0.00529   0.00725   0.01503
     Eigenvalues ---    0.01626   0.02243   0.02267   0.02273   0.02275
     Eigenvalues ---    0.02279   0.02282   0.02284   0.02289   0.02294
     Eigenvalues ---    0.02295   0.02298   0.02300   0.02302   0.02305
     Eigenvalues ---    0.02314   0.02327   0.03507   0.03619   0.04033
     Eigenvalues ---    0.04481   0.04962   0.05675   0.06759   0.07661
     Eigenvalues ---    0.07831   0.08968   0.09383   0.11620   0.12600
     Eigenvalues ---    0.16000   0.16000   0.16000   0.16000   0.16000
     Eigenvalues ---    0.16000   0.16000   0.16000   0.16000   0.16000
     Eigenvalues ---    0.16000   0.16000   0.16226   0.19509   0.21779
     Eigenvalues ---    0.21933   0.21962   0.22000   0.22000   0.22000
     Eigenvalues ---    0.22000   0.23470   0.23495   0.24750   0.24980
     Eigenvalues ---    0.25000   0.30570   0.32056   0.34545   0.34566
     Eigenvalues ---    0.34972   0.35055   0.35833   0.35909   0.35916
     Eigenvalues ---    0.35951   0.35966   0.36000   0.36002   0.36003
     Eigenvalues ---    0.36035   0.36172   0.43458   0.43477   0.43607
     Eigenvalues ---    0.43787   0.46546   0.46831   0.47677   0.47923
     Eigenvalues ---    0.48077   0.48241   0.48327   0.48426   0.48464
     Eigenvalues ---    0.48724   0.66749   0.69129
 RFO step:  Lambda=-1.02985429D-02 EMin= 2.30000000D-03
 Linear search not attempted -- first point.
 Iteration  1 RMS(Cart)=  0.07429384 RMS(Int)=  0.00109350
 Iteration  2 RMS(Cart)=  0.00271927 RMS(Int)=  0.00016250
 Iteration  3 RMS(Cart)=  0.00000577 RMS(Int)=  0.00016249
 Iteration  4 RMS(Cart)=  0.00000000 RMS(Int)=  0.00016249
 Variable       Old X    -DE/DX   Delta X   Delta X   Delta X     New X
                                 (Linear)    (Quad)   (Total)
    R1        2.89668   0.00666   0.00000   0.00983   0.00983   2.90651
    R2        1.90221   0.01237   0.00000   0.02599   0.02599   1.92820
    R3        3.43548  -0.00302   0.00000  -0.01173  -0.01173   3.42374
    R4        3.51881  -0.00823   0.00000  -0.03610  -0.03610   3.48272
    R5        2.88072   0.00620   0.00000   0.00883   0.00883   2.88956
    R6        2.61199   0.01093   0.00000   0.02212   0.02213   2.63412
    R7        2.61004   0.01020   0.00000   0.02063   0.02064   2.63068
    R8        2.61729   0.00821   0.00000   0.01661   0.01660   2.63389
    R9        2.04225   0.00960   0.00000   0.02598   0.02598   2.06823
   R10        2.61881   0.01020   0.00000   0.02057   0.02056   2.63937
   R11        2.04078   0.00898   0.00000   0.02424   0.02424   2.06502
   R12        2.61912   0.00960   0.00000   0.01944   0.01943   2.63855
   R13        2.04077   0.00915   0.00000   0.02472   0.02472   2.06549
   R14        2.61641   0.00982   0.00000   0.01998   0.01998   2.63640
   R15        2.04026   0.00920   0.00000   0.02483   0.02483   2.06510
   R16        2.03814   0.01045   0.00000   0.02810   0.02810   2.06624
   R17        2.86842   0.00446   0.00000   0.01411   0.01411   2.88253
   R18        2.05721   0.00792   0.00000   0.02199   0.02199   2.07919
   R19        2.05585   0.00900   0.00000   0.02495   0.02495   2.08080
   R20        2.84042   0.00288   0.00000   0.00870   0.00870   2.84912
   R21        2.06420   0.00538   0.00000   0.01513   0.01513   2.07933
   R22        2.06385   0.00554   0.00000   0.01557   0.01557   2.07942
   R23        2.62421   0.01066   0.00000   0.02193   0.02193   2.64614
   R24        2.62536   0.01057   0.00000   0.02178   0.02178   2.64714
   R25        2.61514   0.01062   0.00000   0.02150   0.02150   2.63664
   R26        2.04344   0.00904   0.00000   0.02451   0.02451   2.06795
   R27        2.61573   0.01006   0.00000   0.02039   0.02039   2.63611
   R28        2.04159   0.00903   0.00000   0.02441   0.02441   2.06599
   R29        2.61680   0.01011   0.00000   0.02053   0.02053   2.63733
   R30        2.04082   0.00913   0.00000   0.02467   0.02467   2.06549
   R31        2.61395   0.01057   0.00000   0.02133   0.02133   2.63527
   R32        2.04135   0.00909   0.00000   0.02457   0.02457   2.06591
   R33        2.04212   0.00950   0.00000   0.02572   0.02572   2.06785
   R34        1.89905   0.01027   0.00000   0.02146   0.02146   1.92051
    A1        2.00470  -0.00428   0.00000  -0.02512  -0.02512   1.97957
    A2        2.00481  -0.00223   0.00000  -0.01732  -0.01767   1.98714
    A3        1.97372  -0.00436   0.00000  -0.02790  -0.02811   1.94561
    A4        1.99506   0.00669   0.00000   0.05243   0.05260   2.04765
    A5        1.71365   0.00324   0.00000   0.00020  -0.00014   1.71351
    A6        1.84922  -0.00228   0.00000  -0.00891  -0.00888   1.84034
    A7        1.90347  -0.00168   0.00000  -0.00599  -0.00587   1.89760
    A8        2.09652  -0.00321   0.00000  -0.01274  -0.01283   2.08369
    A9        2.07321   0.00130   0.00000   0.00456   0.00447   2.07768
   A10        2.11344   0.00190   0.00000   0.00806   0.00801   2.12145
   A11        2.08374  -0.00105   0.00000  -0.00427  -0.00425   2.07949
   A12        2.09714   0.00170   0.00000   0.00904   0.00903   2.10617
   A13        2.10228  -0.00065   0.00000  -0.00480  -0.00480   2.09748
   A14        2.09265   0.00023   0.00000   0.00058   0.00057   2.09322
   A15        2.09335  -0.00030   0.00000  -0.00140  -0.00140   2.09195
   A16        2.09718   0.00007   0.00000   0.00081   0.00081   2.09799
   A17        2.09938   0.00016   0.00000   0.00017   0.00016   2.09954
   A18        2.09007  -0.00007   0.00000  -0.00002  -0.00001   2.09006
   A19        2.09373  -0.00010   0.00000  -0.00017  -0.00016   2.09357
   A20        2.09282   0.00092   0.00000   0.00406   0.00406   2.09688
   A21        2.09627  -0.00019   0.00000  -0.00042  -0.00042   2.09585
   A22        2.09409  -0.00074   0.00000  -0.00364  -0.00364   2.09045
   A23        2.08430  -0.00217   0.00000  -0.00866  -0.00864   2.07566
   A24        2.06246   0.00097   0.00000   0.00365   0.00364   2.06610
   A25        2.13642   0.00120   0.00000   0.00501   0.00499   2.14141
   A26        1.89742   0.01295   0.00000   0.06032   0.06019   1.95762
   A27        1.85058  -0.00714   0.00000  -0.04872  -0.04906   1.80152
   A28        1.88379  -0.00391   0.00000  -0.01133  -0.01219   1.87160
   A29        1.94890  -0.00099   0.00000   0.00431   0.00523   1.95414
   A30        1.96348  -0.00300   0.00000   0.00030   0.00007   1.96355
   A31        1.91495   0.00189   0.00000  -0.00745  -0.00814   1.90681
   A32        1.92864   0.00205   0.00000   0.01172   0.01168   1.94032
   A33        1.90721   0.00036   0.00000   0.00509   0.00512   1.91233
   A34        1.87849  -0.00031   0.00000   0.00246   0.00243   1.88092
   A35        1.92402  -0.00133   0.00000  -0.00905  -0.00909   1.91493
   A36        1.93433  -0.00028   0.00000   0.00122   0.00114   1.93547
   A37        1.89008  -0.00050   0.00000  -0.01153  -0.01155   1.87853
   A38        2.10582   0.00097   0.00000   0.00382   0.00382   2.10963
   A39        2.10216   0.00044   0.00000   0.00178   0.00178   2.10394
   A40        2.07456  -0.00141   0.00000  -0.00556  -0.00555   2.06900
   A41        2.10537   0.00083   0.00000   0.00346   0.00346   2.10883
   A42        2.08573  -0.00063   0.00000  -0.00299  -0.00299   2.08274
   A43        2.09206  -0.00020   0.00000  -0.00047  -0.00047   2.09160
   A44        2.09590   0.00010   0.00000   0.00035   0.00035   2.09625
   A45        2.09201  -0.00002   0.00000  -0.00002  -0.00002   2.09199
   A46        2.09527  -0.00008   0.00000  -0.00033  -0.00033   2.09494
   A47        2.08923  -0.00048   0.00000  -0.00214  -0.00214   2.08709
   A48        2.09680   0.00027   0.00000   0.00127   0.00127   2.09807
   A49        2.09715   0.00021   0.00000   0.00087   0.00087   2.09802
   A50        2.09625   0.00023   0.00000   0.00089   0.00089   2.09714
   A51        2.09460  -0.00005   0.00000  -0.00008  -0.00008   2.09452
   A52        2.09233  -0.00018   0.00000  -0.00082  -0.00082   2.09151
   A53        2.10506   0.00073   0.00000   0.00300   0.00300   2.10805
   A54        2.08329  -0.00027   0.00000  -0.00094  -0.00094   2.08235
   A55        2.09483  -0.00046   0.00000  -0.00205  -0.00205   2.09277
   A56        1.97429  -0.01105   0.00000  -0.06488  -0.06488   1.90941
    D1       -1.01130  -0.00046   0.00000  -0.00069  -0.00091  -1.01220
    D2        0.93650  -0.00067   0.00000  -0.03017  -0.02984   0.90666
    D3        3.12857  -0.00108   0.00000  -0.01805  -0.01816   3.11041
    D4        0.85850  -0.00309   0.00000  -0.01248  -0.01237   0.84613
    D5       -2.27727  -0.00252   0.00000   0.01032   0.01034  -2.26692
    D6       -1.23970   0.00104   0.00000   0.02803   0.02807  -1.21163
    D7        1.90772   0.00161   0.00000   0.05083   0.05078   1.95850
    D8        3.07827   0.00228   0.00000   0.03685   0.03684   3.11511
    D9       -0.05749   0.00285   0.00000   0.05965   0.05954   0.00205
   D10        3.02793   0.00223   0.00000   0.01792   0.01753   3.04545
   D11        0.93021   0.00054   0.00000   0.00813   0.00863   0.93884
   D12       -1.12079   0.00395   0.00000   0.04743   0.04711  -1.07368
   D13       -1.13394  -0.00034   0.00000  -0.01423  -0.01449  -1.14843
   D14        3.05153  -0.00203   0.00000  -0.02401  -0.02339   3.02814
   D15        1.00053   0.00138   0.00000   0.01528   0.01509   1.01562
   D16        0.78747  -0.00195   0.00000  -0.02557  -0.02587   0.76160
   D17       -1.31024  -0.00363   0.00000  -0.03536  -0.03477  -1.34501
   D18        2.92195  -0.00023   0.00000   0.00394   0.00371   2.92566
   D19       -0.21319   0.00056   0.00000   0.00021   0.00020  -0.21299
   D20       -2.43881   0.00053   0.00000  -0.00723  -0.00733  -2.44614
   D21        2.01529  -0.00148   0.00000  -0.00127  -0.00115   2.01414
   D22        3.14054   0.00037   0.00000   0.01410   0.01403  -3.12861
   D23       -0.00845   0.00025   0.00000   0.01095   0.01088   0.00243
   D24       -0.00701  -0.00022   0.00000  -0.00925  -0.00928  -0.01629
   D25        3.12718  -0.00034   0.00000  -0.01240  -0.01243   3.11475
   D26       -3.13927  -0.00045   0.00000  -0.01616  -0.01631   3.12761
   D27        0.00361  -0.00032   0.00000  -0.01272  -0.01285  -0.00924
   D28        0.00821   0.00014   0.00000   0.00694   0.00699   0.01520
   D29       -3.13210   0.00027   0.00000   0.01038   0.01044  -3.12165
   D30        0.00069   0.00013   0.00000   0.00496   0.00493   0.00562
   D31        3.14073  -0.00005   0.00000  -0.00085  -0.00085   3.13987
   D32       -3.13348   0.00024   0.00000   0.00806   0.00800  -3.12548
   D33        0.00655   0.00006   0.00000   0.00225   0.00222   0.00878
   D34        0.00433   0.00003   0.00000   0.00143   0.00143   0.00576
   D35       -3.14105  -0.00006   0.00000  -0.00199  -0.00198   3.14016
   D36       -3.13570   0.00021   0.00000   0.00725   0.00723  -3.12847
   D37        0.00211   0.00012   0.00000   0.00384   0.00382   0.00593
   D38       -0.00313  -0.00010   0.00000  -0.00373  -0.00372  -0.00685
   D39        3.13811  -0.00011   0.00000  -0.00421  -0.00422   3.13389
   D40       -3.14093  -0.00002   0.00000  -0.00031  -0.00030  -3.14123
   D41        0.00031  -0.00002   0.00000  -0.00079  -0.00080  -0.00049
   D42       -0.00308   0.00002   0.00000  -0.00039  -0.00040  -0.00348
   D43        3.13717  -0.00011   0.00000  -0.00398  -0.00401   3.13315
   D44        3.13887   0.00003   0.00000   0.00010   0.00010   3.13897
   D45       -0.00407  -0.00011   0.00000  -0.00349  -0.00352  -0.00759
   D46       -2.99301   0.00065   0.00000   0.00149   0.00148  -2.99152
   D47        1.17016   0.00076   0.00000   0.00194   0.00191   1.17207
   D48       -0.87868   0.00134   0.00000   0.01153   0.01153  -0.86714
   D49       -0.95737  -0.00070   0.00000  -0.01848  -0.01828  -0.97565
   D50       -3.07739  -0.00059   0.00000  -0.01803  -0.01785  -3.09524
   D51        1.15696  -0.00001   0.00000  -0.00844  -0.00823   1.14873
   D52        1.20477  -0.00124   0.00000  -0.02480  -0.02497   1.17980
   D53       -0.91524  -0.00112   0.00000  -0.02435  -0.02455  -0.93979
   D54       -2.96408  -0.00055   0.00000  -0.01476  -0.01492  -2.97900
   D55       -1.61703  -0.00001   0.00000   0.00337   0.00339  -1.61364
   D56        1.48540   0.00000   0.00000   0.00461   0.00464   1.49004
   D57        0.49301   0.00091   0.00000   0.01146   0.01142   0.50443
   D58       -2.68774   0.00092   0.00000   0.01270   0.01266  -2.67508
   D59        2.58532  -0.00077   0.00000  -0.00805  -0.00804   2.57728
   D60       -0.59543  -0.00076   0.00000  -0.00680  -0.00680  -0.60223
   D61        3.10727  -0.00008   0.00000  -0.00244  -0.00244   3.10483
   D62       -0.04051  -0.00007   0.00000  -0.00224  -0.00224  -0.04274
   D63        0.00422  -0.00013   0.00000  -0.00382  -0.00382   0.00040
   D64        3.13963  -0.00012   0.00000  -0.00362  -0.00361   3.13602
   D65       -3.10695   0.00007   0.00000   0.00252   0.00252  -3.10443
   D66        0.04029   0.00009   0.00000   0.00301   0.00301   0.04330
   D67       -0.00382   0.00013   0.00000   0.00394   0.00394   0.00012
   D68       -3.13976   0.00015   0.00000   0.00444   0.00443  -3.13533
   D69       -0.00298   0.00006   0.00000   0.00173   0.00173  -0.00125
   D70        3.13758  -0.00003   0.00000  -0.00078  -0.00077   3.13681
   D71       -3.13837   0.00005   0.00000   0.00153   0.00153  -3.13683
   D72        0.00219  -0.00003   0.00000  -0.00097  -0.00097   0.00122
   D73        0.00126   0.00001   0.00000   0.00029   0.00029   0.00155
   D74        3.14057  -0.00007   0.00000  -0.00201  -0.00201   3.13855
   D75       -3.13930   0.00009   0.00000   0.00280   0.00280  -3.13650
   D76        0.00001   0.00002   0.00000   0.00049   0.00050   0.00050
   D77       -0.00086  -0.00000   0.00000  -0.00017  -0.00018  -0.00103
   D78        3.13900  -0.00011   0.00000  -0.00319  -0.00319   3.13581
   D79       -3.14017   0.00007   0.00000   0.00213   0.00213  -3.13804
   D80       -0.00031  -0.00003   0.00000  -0.00088  -0.00088  -0.00119
   D81        0.00217  -0.00007   0.00000  -0.00197  -0.00197   0.00020
   D82        3.13808  -0.00008   0.00000  -0.00246  -0.00246   3.13561
   D83       -3.13769   0.00003   0.00000   0.00104   0.00104  -3.13665
   D84       -0.00178   0.00002   0.00000   0.00055   0.00055  -0.00124
         Item               Value     Threshold  Converged?
 Maximum Force            0.012946     0.000450     NO 
[...]
     7  C    0.000002  -0.000000  -0.000000  -0.000005  -0.000732   0.000147
     8  C   -0.000009  -0.000001   0.000008  -0.000097   0.011437  -0.002737
     9  C    0.002670  -0.000284   0.001670  -0.000834  -0.027415  -0.006433
    10  C    0.007517  -0.001622   0.011834  -0.095227  -0.035714   0.002197
    11  C    0.014023  -0.084337   0.013651   0.441619   0.000736  -0.000256
    12  C    0.461002   0.018301  -0.075289   0.016456  -0.000142   0.000003
    13  C    4.875032   0.484535   0.009188  -0.077355  -0.000011   0.000001
    14  C    0.484535   4.865257   0.481584   0.022414   0.000004  -0.000000
    15  C    0.009188   0.481584   4.874569   0.459887  -0.000023   0.000001
    16  C   -0.077355   0.022414   0.459887   5.052675   0.000626  -0.000012
    17  N   -0.000011   0.000004  -0.000023   0.000626   6.967721   0.007483
    18  H    0.000001  -0.000000   0.000001  -0.000012   0.007483   0.494609
    19  H    0.000003  -0.000000  -0.000000   0.000015   0.002230   0.001620
    20  H    0.000000  -0.000000   0.000000  -0.000000  -0.000000  -0.000002
    21  H   -0.000000   0.000000  -0.000000   0.000000  -0.000001  -0.000001
    22  H    0.000000   0.000000  -0.000000   0.000000  -0.000131   0.000000
    23  H    0.000001  -0.000000   0.000000  -0.000012   0.021786  -0.000101
    24  H   -0.000341  -0.000005  -0.000110  -0.000825  -0.005217  -0.000135
    25  H   -0.000905   0.000139  -0.000450   0.004827   0.006024   0.000082
    26  H    0.001246   0.000083  -0.000783   0.004142   0.000724   0.000024
    27  H   -0.001190   0.000270   0.000565   0.005764   0.026911  -0.000247
    28  H   -0.054430   0.010423  -0.002533   0.012524   0.000012  -0.000000
    29  H    0.421253  -0.048959   0.009549  -0.001199  -0.000000   0.000000
    30  H   -0.046406   0.418076  -0.046385   0.008257   0.000000  -0.000000
    31  H    0.009438  -0.049655   0.420895  -0.049821  -0.000000   0.000000
    32  H   -0.002836   0.010880  -0.054018   0.434810   0.000509  -0.000002
    33  H   -0.000001   0.000000   0.000000   0.000002   0.306885   0.000255
              19         20         21         22         23         24
     1  N    0.022622  -0.000086  -0.000002   0.000004   0.000872   0.010176
     2  S    0.017273  -0.000473   0.000028  -0.000376  -0.007925  -0.025571
     3  C   -0.127797   0.011478  -0.001603   0.010783  -0.044503   0.011363
     4  C    0.437028  -0.047531   0.009248  -0.000310   0.016034  -0.002028
     5  C   -0.033222   0.420801  -0.047049   0.009316  -0.004268  -0.000053
     6  C    0.009547  -0.047313   0.420915  -0.052468   0.010602   0.000001
     7  C   -0.001432   0.008632  -0.049743   0.428636  -0.065487   0.000024
     8  C    0.006269  -0.001149   0.010174  -0.053319   0.429858   0.000020
     9  C    0.000424   0.000059  -0.000003   0.000045   0.001306   0.377953
    10  C   -0.001765   0.000011   0.000003  -0.000049  -0.000095  -0.025396
    11  C    0.000032  -0.000002   0.000001  -0.000009   0.000410  -0.001332
    12  C   -0.000012   0.000000  -0.000000   0.000000  -0.000006   0.003696
    13  C    0.000003   0.000000  -0.000000   0.000000   0.000001  -0.000341
    14  C   -0.000000  -0.000000   0.000000   0.000000  -0.000000  -0.000005
    15  C   -0.000000   0.000000  -0.000000  -0.000000   0.000000  -0.000110
    16  C    0.000015  -0.000000   0.000000   0.000000  -0.000012  -0.000825
    17  N    0.002230  -0.000000  -0.000001  -0.000131   0.021786  -0.005217
    18  H    0.001620  -0.000002  -0.000001   0.000000  -0.000101  -0.000135
    19  H    0.558056  -0.007544  -0.000370   0.000129  -0.000029  -0.000746
    20  H   -0.007544   0.544112  -0.007039  -0.000268   0.000046  -0.000000
    21  H   -0.000370  -0.007039   0.547696  -0.007820  -0.000141   0.000000
    22  H    0.000129  -0.000268  -0.007820   0.545721  -0.006404  -0.000001
    23  H   -0.000029   0.000046  -0.000141  -0.006404   0.486270  -0.000106
    24  H   -0.000746  -0.000000   0.000000  -0.000001  -0.000106   0.512650
    25  H    0.001898  -0.000016  -0.000001   0.000006  -0.000110  -0.015189
    26  H    0.000180  -0.000012  -0.000005   0.000017  -0.000799   0.004189
    27  H   -0.000041  -0.000000   0.000001  -0.000019   0.000227   0.000050
    28  H   -0.000005  -0.000000   0.000000  -0.000000  -0.000003   0.000150
    29  H    0.000000  -0.000000  -0.000000  -0.000000   0.000000   0.000002
    30  H    0.000000  -0.000000   0.000000  -0.000000   0.000000  -0.000002
    31  H   -0.000000   0.000000  -0.000000  -0.000000   0.000000   0.000029
    32  H   -0.000000  -0.000000   0.000000  -0.000000  -0.000003   0.001603
    33  H   -0.000143  -0.000000   0.000000  -0.000002  -0.001319   0.001800
              25         26         27         28         29         30
     1  N    0.002622  -0.000094   0.001683   0.000003   0.000000  -0.000000
     2  S   -0.010094  -0.003708   0.000578   0.000016  -0.000001   0.000000
     3  C    0.006212   0.002928  -0.004353  -0.000084   0.000000  -0.000000
     4  C   -0.004974   0.004361  -0.000246   0.000156   0.000000  -0.000000
     5  C    0.000696   0.000223  -0.000112   0.000102  -0.000000  -0.000000
     6  C   -0.000038  -0.000264   0.000119   0.000026  -0.000000   0.000000
     7  C    0.000002   0.001921  -0.000059  -0.000005  -0.000000   0.000000
     8  C    0.000710  -0.007348   0.003110   0.000009   0.000000   0.000000
     9  C    0.344129  -0.032263  -0.048991  -0.002597   0.000026   0.000002
    10  C   -0.019445   0.398534   0.409740  -0.001289  -0.000470   0.000075
    11  C   -0.007332  -0.037036  -0.049862  -0.067703   0.010609  -0.000266
    12  C   -0.000702   0.004944   0.003581   0.434015  -0.050207   0.008140
    13  C   -0.000905   0.001246  -0.001190  -0.054430   0.421253  -0.046406
    14  C    0.000139   0.000083   0.000270   0.010423  -0.048959   0.418076
    15  C   -0.000450  -0.000783   0.000565  -0.002533   0.009549  -0.046385
    16  C    0.004827   0.004142   0.005764   0.012524  -0.001199   0.008257
    17  N    0.006024   0.000724   0.026911   0.000012  -0.000000   0.000000
    18  H    0.000082   0.000024  -0.000247  -0.000000   0.000000  -0.000000
    19  H    0.001898   0.000180  -0.000041  -0.000005   0.000000   0.000000
    20  H   -0.000016  -0.000012  -0.000000  -0.000000  -0.000000  -0.000000
    21  H   -0.000001  -0.000005   0.000001   0.000000  -0.000000   0.000000
    22  H    0.000006   0.000017  -0.000019  -0.000000  -0.000000  -0.000000
    23  H   -0.000110  -0.000799   0.000227  -0.000003   0.000000   0.000000
    24  H   -0.015189   0.004189   0.000050   0.000150   0.000002  -0.000002
    25  H    0.544999  -0.001869   0.006602   0.001213   0.000007  -0.000001
    26  H   -0.001869   0.526958  -0.014829   0.002483  -0.000034  -0.000002
    27  H    0.006602  -0.014829   0.512041   0.000471   0.000011  -0.000002
    28  H    0.001213   0.002483   0.000471   0.558491  -0.007981  -0.000314
    29  H    0.000007  -0.000034   0.000011  -0.007981   0.556744  -0.007552
    30  H   -0.000001  -0.000002  -0.000002  -0.000314  -0.007552   0.554831
    31  H   -0.000003   0.000017  -0.000043   0.000086  -0.000310  -0.007512
    32  H    0.000381   0.000383   0.003355  -0.000224   0.000082  -0.000312
    33  H    0.000089  -0.000036  -0.000512   0.000000  -0.000000  -0.000000
              31         32         33
     1  N    0.000000   0.000006   0.000201
     2  S   -0.000001   0.000202  -0.010703
     3  C    0.000000   0.000069   0.016163
     4  C   -0.000000  -0.000002  -0.001725
     5  C   -0.000000   0.000000   0.000073
     6  C   -0.000000   0.000000  -0.000013
     7  C    0.000000  -0.000000   0.000037
     8  C    0.000000  -0.000001  -0.001488
     9  C   -0.000018  -0.001317  -0.006515
    10  C   -0.000561  -0.003209   0.000344
    11  C    0.011057  -0.070710  -0.000325
    12  C   -0.000934   0.013045   0.000008
    13  C    0.009438  -0.002836  -0.000001
    14  C   -0.049655   0.010880   0.000000
    15  C    0.420895  -0.054018   0.000000
    16  C   -0.049821   0.434810   0.000002
    17  N   -0.000000   0.000509   0.306885
    18  H    0.000000  -0.000002   0.000255
    19  H   -0.000000  -0.000000  -0.000143
    20  H    0.000000  -0.000000  -0.000000
    21  H   -0.000000   0.000000   0.000000
    22  H   -0.000000  -0.000000  -0.000002
    23  H    0.000000  -0.000003  -0.001319
    24  H    0.000029   0.001603   0.001800
    25  H   -0.000003   0.000381   0.000089
    26  H    0.000017   0.000383  -0.000036
    27  H   -0.000043   0.003355  -0.000512
    28  H    0.000086  -0.000224   0.000000
    29  H   -0.000310   0.000082  -0.000000
    30  H   -0.007512  -0.000312  -0.000000
    31  H    0.556114  -0.007978  -0.000000
    32  H   -0.007978   0.557152   0.000067
    33  H   -0.000000   0.000067   0.475407
 Mulliken charges:
               1
     1  N   -0.554704
     2  S    0.514398
     3  C    0.162653
     4  C   -0.203807
     5  C   -0.131846
     6  C   -0.098978
     7  C   -0.104792
     8  C   -0.159147
     9  C   -0.309632
    10  C   -0.308074
    11  C    0.294675
    12  C   -0.246513
    13  C   -0.102380
    14  C   -0.127118
    15  C   -0.103756
    16  C   -0.238719
    17  N   -0.555353
    18  H    0.216375
    19  H    0.115781
    20  H    0.126298
    21  H    0.125714
    22  H    0.126518
    23  H    0.163898
    24  H    0.153355
    25  H    0.140492
    26  H    0.145721
    27  H    0.145428
    28  H    0.116988
    29  H    0.118429
    30  H    0.119375
    31  H    0.119202
    32  H    0.118071
    33  H    0.221449
 Sum of Mulliken charges =  -0.00000
 Mulliken charges with hydrogens summed into heavy atoms:
               1
     1  N   -0.338329
     2  S    0.514398
     3  C    0.162653
     4  C   -0.088026
     5  C   -0.005548
     6  C    0.026736
     7  C    0.021726
     8  C    0.004751
     9  C   -0.015786
    10  C   -0.016925
    11  C    0.294675
    12  C   -0.129525
    13  C    0.016049
    14  C   -0.007743
    15  C    0.015447
    16  C   -0.120648
    17  N   -0.333904
 Electronic spatial extent (au):  <R**2>=           5511.0056
 Charge=             -0.0000 electrons
 Dipole moment (field-independent basis, Debye):
    X=              2.1644    Y=             -3.3451    Z=             -1.0148  Tot=              4.1115
 Quadrupole moment (field-independent basis, Debye-Ang):
   XX=           -107.6413   YY=           -108.6602   ZZ=           -106.4022
   XY=             16.1238   XZ=             -0.7164   YZ=              3.0994
 Traceless Quadrupole moment (field-independent basis, Debye-Ang):
   XX=             -0.0734   YY=             -1.0923   ZZ=              1.1657
   XY=             16.1238   XZ=             -0.7164   YZ=              3.0994
 Octapole moment (field-independent basis, Debye-Ang**2):
  XXX=             52.7894  YYY=            -15.2748  ZZZ=            -10.6752  XYY=             14.5329
  XXY=            -44.6028  XXZ=             -2.5476  XZZ=            -18.4746  YZZ=             -6.1088
  YYZ=              8.0418  XYZ=              8.8712
 Hexadecapole moment (field-independent basis, Debye-Ang**3):
 XXXX=          -5272.4908 YYYY=          -1485.6368 ZZZZ=           -589.4908 XXXY=            137.4945
 XXXZ=            -29.0218 YYYX=            103.4477 YYYZ=             65.5867 ZZZX=             10.0278
 ZZZY=            -24.1896 XXYY=          -1121.5274 XXZZ=          -1049.6525 YYZZ=           -353.4820
 XXYZ=             68.8326 YYXZ=            -39.7181 ZZXY=             46.8011
 N-N= 1.264295490080D+03 E-N=-4.988048745881D+03  KE= 1.045808550521D+03
 Breneman (CHELPG) radii used.
 Read replacement radii for each type of atom:
 Atom Element Radius
    1     7    1.70
    2    16    2.00
    3     6    1.50
    4     6    1.50
    5     6    1.50
    6     6    1.50
    7     6    1.50
    8     6    1.50
    9     6    1.50
   10     6    1.50
   11     6    1.50
   12     6    1.50
   13     6    1.50
   14     6    1.50
   15     6    1.50
   16     6    1.50
   17     7    1.70
   18     1    1.45
   19     1    1.45
   20     1    1.45
   21     1    1.45
   22     1    1.45
   23     1    1.45
   24     1    1.45
   25     1    1.45
   26     1    1.45
   27     1    1.45
   28     1    1.45
   29     1    1.45
   30     1    1.45
   31     1    1.45
   32     1    1.45
   33     1    1.45
 Generate Potential Derived Charges using the Breneman model, NDens= 1.
 Grid spacing= 0.300 Box extension= 2.800
 NStep X,Y,Z=   54     42     35   Total possible points=       79380
 Number of Points to Fit=   20032

 **********************************************************************

            Electrostatic Properties Using The SCF Density.

 **********************************************************************

       Atomic Center    1 is at  -1.786161  2.423064 -1.381654
       Atomic Center    2 is at  -1.318648  1.575022 -0.176359
       Atomic Center    3 is at  -2.213032  0.026677  0.015893
       Atomic Center    4 is at  -2.678690 -0.580307 -1.146377
       Atomic Center    5 is at  -3.367767 -1.787460 -1.052900
       Atomic Center    6 is at  -3.595180 -2.362799  0.197240
       Atomic Center    7 is at  -3.143906 -1.729782  1.356028
       Atomic Center    8 is at  -2.449443 -0.524384  1.273342
       Atomic Center    9 is at   0.359348  0.932043 -0.558000
       Atomic Center   10 is at   0.971631  0.157251  0.595474
       Atomic Center   11 is at   2.405909 -0.202905  0.315915
       Atomic Center   12 is at   2.730040 -1.404909 -0.322877
       Atomic Center   13 is at   4.053868 -1.720660 -0.621887
       Atomic Center   14 is at   5.076966 -0.835092 -0.286703
       Atomic Center   15 is at   4.766768  0.365326  0.350956
       Atomic Center   16 is at   3.441865  0.677150  0.648488
       Atomic Center   17 is at  -1.421834  2.180887  1.237912
       Atomic Center   18 is at  -1.252757  2.171932 -2.215796
       Atomic Center   19 is at  -2.527089 -0.087680 -2.110443
       Atomic Center   20 is at  -3.741657 -2.272628 -1.957382
       Atomic Center   21 is at  -4.140286 -3.306874  0.270090
       Atomic Center   22 is at  -3.340231 -2.174905  2.334257
       Atomic Center   23 is at  -2.101335  0.011122  2.157944
       Atomic Center   24 is at   0.930838  1.847131 -0.784154
       Atomic Center   25 is at   0.283830  0.332255 -1.478815
       Atomic Center   26 is at   0.383404 -0.755726  0.777348
       Atomic Center   27 is at   0.892184  0.775877  1.503243
       Atomic Center   28 is at   1.931310 -2.105832 -0.583137
       Atomic Center   29 is at   4.288418 -2.666535 -1.116315
       Atomic Center   30 is at   6.115725 -1.082203 -0.517981
       Atomic Center   31 is at   5.563052  1.062394  0.623252
       Atomic Center   32 is at   3.205025  1.617614  1.154698
       Atomic Center   33 is at  -1.086346  3.145159  1.183578
   20032 points will be used for fitting atomic charges
 Fitting point charges to electrostatic potential
 Charges from ESP fit, RMS=   0.00374 RRMS=   0.24084:
 ESP charges:
               1
     1  N   -0.797516
     2  S    0.733590
     3  C    0.110480
     4  C   -0.155141
     5  C   -0.076616
     6  C   -0.096152
     7  C   -0.109864
     8  C   -0.037501
     9  C   -0.032038
    10  C    0.027470
    11  C    0.122874
    12  C   -0.144469
    13  C   -0.100824
    14  C   -0.100495
    15  C   -0.063893
    16  C   -0.182803
    17  N   -0.770841
    18  H    0.332476
    19  H    0.111358
    20  H    0.098383
    21  H    0.102816
    22  H    0.100202
    23  H    0.096401
    24  H    0.023376
    25  H   -0.002449
    26  H   -0.042984
    27  H    0.018295
    28  H    0.097211
    29  H    0.097209
    30  H    0.091803
    31  H    0.085265
    32  H    0.112569
    33  H    0.351806
 Sum of ESP charges =  -0.00000
 ESP charges with hydrogens summed into heavy atoms:
               1
     1  N   -0.465040
     2  S    0.733590
     3  C    0.110480
     4  C   -0.043783
     5  C    0.021767
     6  C    0.006664
     7  C   -0.009663
     8  C    0.058900
     9  C   -0.011111
    10  C    0.002781
    11  C    0.122874
    12  C   -0.047258
    13  C   -0.003615
    14  C   -0.008692
    15  C    0.021373
    16  C   -0.070233
    17  N   -0.419034
 Charge=  -0.00000 Dipole=     2.1126    -3.3223    -0.9383 Tot=     4.0474
 -----------------------------------------------------------------

              Electrostatic Properties (Atomic Units)

 -----------------------------------------------------------------
    Center     Electric         -------- Electric Field --------
               Potential          X             Y             Z
 -----------------------------------------------------------------
    1 Atom    -18.426033
    2 Atom    -59.076468
    3 Atom    -14.730492
    4 Atom    -14.742338
    5 Atom    -14.745897
    6 Atom    -14.745604
    7 Atom    -14.747621
    8 Atom    -14.746648
    9 Atom    -14.727503
   10 Atom    -14.745551
   11 Atom    -14.745316
   12 Atom    -14.757836
   13 Atom    -14.756800
   14 Atom    -14.758495
   15 Atom    -14.756974
   16 Atom    -14.758101
   17 Atom    -18.426537
   18 Atom     -1.046392
   19 Atom     -1.083192
   20 Atom     -1.088339
   21 Atom     -1.088603
   22 Atom     -1.090586
   23 Atom     -1.093597
   24 Atom     -1.079999
   25 Atom     -1.078172
   26 Atom     -1.103993
   27 Atom     -1.106070
   28 Atom     -1.096084
   29 Atom     -1.097711
   30 Atom     -1.098613
   31 Atom     -1.098049
   32 Atom     -1.096573
   33 Atom     -1.050623
 -----------------------------------------------------------------
 Unable to Open any file for archive entry.
 1\1\GINC-NOTCH418\SP\RPBE1PBE\def2TZVP\C14H16N2S1\U1414944\06-Jun-2025
 \0\\#N Guess=Read Geom=Check Integral(Ultrafine) Density Pop=(ChelpG,R
 eadRadii) NMR pbe1pbe EmpiricalDispersion=GD3BJ def2TZVP\\SDI0241_12\\
 0,1\N,0,3.145949539,0.2109054173,-0.9858801567\S,0,2.0213435307,0.3268
 007207,0.0687805061\C,0,1.1492370734,1.899218602,0.0342986698\C,0,1.03
 78075802,2.5307880045,-1.2005454955\C,0,0.3614193367,3.7458751074,-1.2
 832843482\C,0,-0.1797225133,4.3197014429,-0.1328629297\C,0,-0.03838385
 36,3.6868581904,1.1027269127\C,0,0.6322456757,2.4687875938,1.195784258
 \C,0,0.6633463094,-0.8052858701,-0.4301855499\C,0,-0.4670716401,-0.854
 3447125,0.5824554595\C,0,-1.4742488373,-1.9160070508,0.2310492105\C,0,
 -2.5689776717,-1.620014035,-0.5886372757\C,0,-3.4788510216,-2.61122740
 32,-0.950924715\C,0,-3.3060374471,-3.9184221232,-0.4985005643\C,0,-2.2
 19694901,-4.2256030852,0.3196289964\C,0,-1.3123793811,-3.2315553594,0.
 6798695651\N,0,2.3911204439,0.199617578,1.5604144681\H,0,2.7732578471,
 -0.1729780484,-1.8560038245\H,0,1.5087549508,2.0835185715,-2.079889503
 \H,0,0.2698355553,4.2537882448,-2.246044284\H,0,-0.705461955,5.2752716
 248,-0.1977352422\H,0,-0.4480361434,4.1489975298,2.0039599165\H,0,0.78
 24296393,1.9557881309,2.1469639749\H,0,1.1721362825,-1.7788918804,-0.5
 216009279\H,0,0.3229283402,-0.4950577022,-1.4307965104\H,0,-0.95930759
 63,0.1295223213,0.6306744392\H,0,-0.0288169694,-1.0424842047,1.5752250
 709\H,0,-2.7121665338,-0.594491652,-0.9419063308\H,0,-4.3308432832,-2.
 3601940843,-1.5875121204\H,0,-4.019896099,-4.6962983835,-0.7793708099\
 H,0,-2.0801607006,-5.2462452422,0.6842347603\H,0,-0.465401961,-3.47706
 13889,1.3273030934\H,0,3.0397404276,-0.5856609605,1.6496044142\\Versio
 n=ES64L-G16RevC.01\State=1-A\HF=-1050.0891762\RMSD=2.411e-09\Dipole=-1
 .4968541,-0.0807854,-0.607833\Quadrupole=-11.6627995,10.1752998,1.4874
 998,-4.9191289,0.8320897,-2.0564046\PG=C01 [X(C14H16N2S1)]\\@
 The archive entry for this job was punched.


  THE LARGE PRINT GIVETH,
  AND THE SMALL PRINT TAKETH AWAY.

                     -- TOM WAITS
 Job cpu time:       0 days  1 hours  2 minutes 29.8 seconds.
 Elapsed time:       0 days  0 hours  4 minutes 15.5 seconds.
 File lengths (MBytes):  RWF=    238 Int=      0 D2E=      0 Chk=     37 Scr=      2
 Normal termination of Gaussian 16 at Fri Jun  6 20:48:20 2025.
