 Entering Gaussian System, Link 0=g16
 Input=SDI0241_14.com
 Output=SDI0241_14.log
 Initial command:
 /uufs/chpc.utah.edu/sys/installdir/gaussian16/C01/AVX/g16/l1.exe "/scratch/general/vast/u1414944/4689594-notchpeak.peaks/Gau-1805544.inp" -scrdir="/scratch/general/vast/u1414944/4689594-notchpeak.peaks/"
 Entering Link 1 = /uufs/chpc.utah.edu/sys/installdir/gaussian16/C01/AVX/g16/l1.exe PID=   1805545.
  
 Copyright (c) 1988-2019, Gaussian, Inc.  All Rights Reserved.
  
 This is part of the Gaussian(R) 16 program.  It is based on
 the Gaussian(R) 09 system (copyright 2009, Gaussian, Inc.),
 the Gaussian(R) 03 system (copyright 2003, Gaussian, Inc.),
 the Gaussian(R) 98 system (copyright 1998, Gaussian, Inc.),
 the Gaussian(R) 94 system (copyright 1995, Gaussian, Inc.),
 the Gaussian 92(TM) system (copyright 1992, Gaussian, Inc.),
 the Gaussian 90(TM) system (copyright 1990, Gaussian, Inc.),
 the Gaussian 88(TM) system (copyright 1988, Gaussian, Inc.),
 the Gaussian 86(TM) system (copyright 1986, Carnegie Mellon
 University), and the Gaussian 82(TM) system (copyright 1983,
 Carnegie Mellon University). Gaussian is a federally registered
 trademark of Gaussian, Inc.
  
 This software contains proprietary and confidential information,
 including trade secrets, belonging to Gaussian, Inc.
  
 This software is provided under written license and may be
 used, copied, transmitted, or stored only in accord with that
 written license.
  
 The following legend is applicable only to US Government
 contracts under FAR:
  
                    RESTRICTED RIGHTS LEGEND
  
 Use, reproduction and disclosure by the US Government is
 subject to restrictions as set forth in subparagraphs (a)
 and (c) of the Commercial Computer Software - Restricted
 Rights clause in FAR 52.227-19.
  
 Gaussian, Inc.
 340 Quinnipiac St., Bldg. 40, Wallingford CT 06492
  
  
 ---------------------------------------------------------------
 Warning -- This program may not be used in any manner that
 competes with the business of Gaussian, Inc. or will provide
 assistance to any competitor of Gaussian, Inc.  The licensee
 of this program is prohibited from giving any competitor of
 Gaussian, Inc. access to this program.  By using this program,
 the user acknowledges that Gaussian, Inc. is engaged in the
 business of creating and licensing software in the field of
 computational chemistry and represents and warrants to the
 licensee that it is not a competitor of Gaussian, Inc. and that
 it will not use this program in any manner prohibited above.
 ---------------------------------------------------------------
  

 Cite this work as:
 Gaussian 16, Revision C.01,
 M. J. Frisch, G. W. Trucks, H. B. Schlegel, G. E. Scuseria, 
 M. A. Robb, J. R. Cheeseman, G. Scalmani, V. Barone, 
 G. A. Petersson, H. Nakatsuji, X. Li, M. Caricato, A. V. Marenich, 
 J. Bloino, B. G. Janesko, R. Gomperts, B. Mennucci, H. P. Hratchian, 
 J. V. Ortiz, A. F. Izmaylov, J. L. Sonnenberg, D. Williams-Young, 
 F. Ding, F. Lipparini, F. Egidi, J. Goings, B. Peng, A. Petrone, 
 T. Henderson, D. Ranasinghe, V. G. Zakrzewski, J. Gao, N. Rega, 
 G. Zheng, W. Liang, M. Hada, M. Ehara, K. Toyota, R. Fukuda, 
 J. Hasegawa, M. Ishida, T. Nakajima, Y. Honda, O. Kitao, H. Nakai, 
 T. Vreven, K. Throssell, J. A. Montgomery, Jr., J. E. Peralta, 
 F. Ogliaro, M. J. Bearpark, J. J. Heyd, E. N. Brothers, K. N. Kudin, 
 V. N. Staroverov, T. A. Keith, R. Kobayashi, J. Normand, 
 K. Raghavachari, A. P. Rendell, J. C. Burant, S. S. Iyengar, 
 J. Tomasi, M. Cossi, J. M. Millam, M. Klene, C. Adamo, R. Cammi, 
 J. W. Ochterski, R. L. Martin, K. Morokuma, O. Farkas, 
 J. B. Foresman, and D. J. Fox, Gaussian, Inc., Wallingford CT, 2019.
 
 ******************************************
 Gaussian 16:  ES64L-G16RevC.01  3-Jul-2019
                 6-Jun-2025 
 ******************************************
 %NProcShared=16
 Will use up to   16 processors via shared memory.
 %Mem=40GB
 %chk=SDI0241_14.chk
 ----------------------------------------------------------------------
 #N OPT FREQ=NORAMAN Integral(Ultrafine) pbe1pbe EmpiricalDispersion=GD
 3BJ def2SVP
 ----------------------------------------------------------------------
 1/18=20,19=15,26=4,38=1/1,3;
 2/9=110,12=2,17=6,18=5,40=1/2;
 3/5=43,7=101,11=2,25=1,30=1,71=1,74=-13,75=-5,124=41/1,2,3;
 4//1;
 5/5=2,38=5/2;
 6/7=2,8=2,9=2,10=2,28=1/1;
 7//1,2,3,16;
 1/18=20,19=15,26=4/3(2);
 2/9=110/2;
 99//99;
 2/9=110/2;
 3/5=43,7=101,11=2,25=1,30=1,71=1,74=-13,75=-5,124=41/1,2,3;
 4/5=5,16=3,69=1/1;
 5/5=2,38=5/2;
 7//1,2,3,16;
 1/18=20,19=15,26=4/3(-5);
 2/9=110/2;
 6/7=2,8=2,9=2,10=2,19=2,28=1/1;
 99/9=1/99;
 ----------
 SDI0241_14
 ----------
 Symbolic Z-matrix:
 Charge =  0 Multiplicity = 1
 N                     1.90782  -0.40632   0.57516 
 S                     0.54712   0.26363   0.31105 
 C                     0.68339   2.05164   0.06672 
 C                    -0.39596   2.87547   0.31696 
 C                    -0.26472   4.23897   0.11195 
 C                     0.93838   4.75991  -0.3379 
 C                     2.01798   3.92418  -0.57857 
 C                     1.89058   2.56106  -0.37415 
 C                     0.22537  -0.22116  -1.44134 
 C                     0.40873  -1.72161  -1.6053 
 C                    -0.51831  -2.46824  -0.68708 
 C                    -1.88323  -2.50924  -0.94298 
 C                    -2.74457  -3.15245  -0.07271 
 C                    -2.25051  -3.76564   1.06605 
 C                    -0.89097  -3.73678   1.32551 
 C                    -0.03052  -3.09237   0.45334 
 N                    -0.67321   0.17157   1.24018 
 H                     2.15946  -0.43658   1.55011 
 H                    -1.30799   2.43137   0.68103 
 H                    -1.09987   4.89591   0.30428 
 H                     1.03793   5.82369  -0.49648 
 H                     2.95613   4.33486  -0.92114 
 H                     2.71372   1.88099  -0.53751 
 H                     0.93163   0.33739  -2.05035 
 H                    -0.79307   0.10114  -1.64867 
 H                     1.44332  -1.9608   -1.35722 
 H                     0.21733  -1.99849  -2.64596 
 H                    -2.27412  -2.03371  -1.83182 
 H                    -3.80418  -3.17439  -0.28194 
 H                    -2.92274  -4.26487   1.7483 
 H                    -0.49946  -4.21503   2.21183 
 H                     1.02886  -3.05902   0.66123 
 H                    -0.80893  -0.73194   1.66226 
 

 GradGradGradGradGradGradGradGradGradGradGradGradGradGradGradGradGradGrad
 Berny optimization.
 Initialization pass.
                           ----------------------------
                           !    Initial Parameters    !
                           ! (Angstroms and Degrees)  !
 --------------------------                            --------------------------
 ! Name  Definition              Value          Derivative Info.                !
 --------------------------------------------------------------------------------
 ! R1    R(1,2)                  1.5395         estimate D2E/DX2                !
 ! R2    R(1,18)                 1.0074         estimate D2E/DX2                !
 ! R3    R(2,3)                  1.8098         estimate D2E/DX2                !
 ! R4    R(2,9)                  1.8465         estimate D2E/DX2                !
 ! R5    R(2,17)                 1.5365         estimate D2E/DX2                !
 ! R6    R(3,4)                  1.3807         estimate D2E/DX2                !
 ! R7    R(3,8)                  1.3825         estimate D2E/DX2                !
 ! R8    R(4,5)                  1.3851         estimate D2E/DX2                !
 ! R9    R(4,19)                 1.0778         estimate D2E/DX2                !
 ! R10   R(5,6)                  1.3861         estimate D2E/DX2                !
 ! R11   R(5,20)                 1.0798         estimate D2E/DX2                !
 ! R12   R(6,7)                  1.3863         estimate D2E/DX2                !
 ! R13   R(6,21)                 1.0801         estimate D2E/DX2                !
 ! R14   R(7,8)                  1.3842         estimate D2E/DX2                !
 ! R15   R(7,22)                 1.0799         estimate D2E/DX2                !
 ! R16   R(8,23)                 1.0802         estimate D2E/DX2                !
 ! R17   R(9,10)                 1.5205         estimate D2E/DX2                !
 ! R18   R(9,24)                 1.0871         estimate D2E/DX2                !
 ! R19   R(9,25)                 1.0882         estimate D2E/DX2                !
 ! R20   R(10,11)                1.5033         estimate D2E/DX2                !
 ! R21   R(10,26)                1.0905         estimate D2E/DX2                !
 ! R22   R(10,27)                1.0937         estimate D2E/DX2                !
 ! R23   R(11,12)                1.3893         estimate D2E/DX2                !
 ! R24   R(11,16)                1.3885         estimate D2E/DX2                !
 ! R25   R(12,13)                1.3831         estimate D2E/DX2                !
 ! R26   R(12,28)                1.0812         estimate D2E/DX2                !
 ! R27   R(13,14)                1.3845         estimate D2E/DX2                !
 ! R28   R(13,29)                1.0803         estimate D2E/DX2                !
 ! R29   R(14,15)                1.3844         estimate D2E/DX2                !
 ! R30   R(14,30)                1.0801         estimate D2E/DX2                !
 ! R31   R(15,16)                1.3843         estimate D2E/DX2                !
 ! R32   R(15,31)                1.0805         estimate D2E/DX2                !
 ! R33   R(16,32)                1.0801         estimate D2E/DX2                !
 ! R34   R(17,33)                1.0064         estimate D2E/DX2                !
 ! A1    A(2,1,18)             113.5716         estimate D2E/DX2                !
 ! A2    A(1,2,3)              112.7397         estimate D2E/DX2                !
 ! A3    A(1,2,9)              101.6876         estimate D2E/DX2                !
 ! A4    A(1,2,17)             124.9005         estimate D2E/DX2                !
 ! A5    A(3,2,9)               98.3021         estimate D2E/DX2                !
 ! A6    A(3,2,17)             101.5735         estimate D2E/DX2                !
 ! A7    A(9,2,17)             114.8195         estimate D2E/DX2                !
 ! A8    A(2,3,4)              120.4094         estimate D2E/DX2                !
 ! A9    A(2,3,8)              118.2202         estimate D2E/DX2                !
 ! A10   A(4,3,8)              121.3703         estimate D2E/DX2                !
 ! A11   A(3,4,5)              119.1101         estimate D2E/DX2                !
 ! A12   A(3,4,19)             118.4825         estimate D2E/DX2                !
 ! A13   A(5,4,19)             122.4003         estimate D2E/DX2                !
 ! A14   A(4,5,6)              120.0184         estimate D2E/DX2                !
 ! A15   A(4,5,20)             119.9509         estimate D2E/DX2                !
 ! A16   A(6,5,20)             120.0307         estimate D2E/DX2                !
 ! A17   A(5,6,7)              120.3791         estimate D2E/DX2                !
 ! A18   A(5,6,21)             119.8545         estimate D2E/DX2                !
 ! A19   A(7,6,21)             119.7653         estimate D2E/DX2                !
 ! A20   A(6,7,8)              119.7574         estimate D2E/DX2                !
 ! A21   A(6,7,22)             120.1563         estimate D2E/DX2                !
 ! A22   A(8,7,22)             120.0859         estimate D2E/DX2                !
 ! A23   A(3,8,7)              119.3623         estimate D2E/DX2                !
 ! A24   A(3,8,23)             118.7946         estimate D2E/DX2                !
 ! A25   A(7,8,23)             121.8385         estimate D2E/DX2                !
 ! A26   A(2,9,10)             109.9025         estimate D2E/DX2                !
 ! A27   A(2,9,24)             106.4735         estimate D2E/DX2                !
 ! A28   A(2,9,25)             105.4352         estimate D2E/DX2                !
 ! A29   A(10,9,24)            111.6106         estimate D2E/DX2                !
 ! A30   A(10,9,25)            112.6199         estimate D2E/DX2                !
 ! A31   A(24,9,25)            110.4348         estimate D2E/DX2                !
 ! A32   A(9,10,11)            110.4798         estimate D2E/DX2                !
 ! A33   A(9,10,26)            107.8384         estimate D2E/DX2                !
 ! A34   A(9,10,27)            109.3481         estimate D2E/DX2                !
 ! A35   A(11,10,26)           109.7042         estimate D2E/DX2                !
 ! A36   A(11,10,27)           110.3354         estimate D2E/DX2                !
 ! A37   A(26,10,27)           109.0849         estimate D2E/DX2                !
 ! A38   A(10,11,12)           120.5301         estimate D2E/DX2                !
 ! A39   A(10,11,16)           120.5478         estimate D2E/DX2                !
 ! A40   A(12,11,16)           118.891          estimate D2E/DX2                !
 ! A41   A(11,12,13)           120.6411         estimate D2E/DX2                !
 ! A42   A(11,12,28)           119.5797         estimate D2E/DX2                !
 ! A43   A(13,12,28)           119.7792         estimate D2E/DX2                !
 ! A44   A(12,13,14)           120.0836         estimate D2E/DX2                !
 ! A45   A(12,13,29)           119.8955         estimate D2E/DX2                !
 ! A46   A(14,13,29)           120.0208         estimate D2E/DX2                !
 ! A47   A(13,14,15)           119.6939         estimate D2E/DX2                !
 ! A48   A(13,14,30)           120.1429         estimate D2E/DX2                !
 ! A49   A(15,14,30)           120.1632         estimate D2E/DX2                !
 ! A50   A(14,15,16)           120.135          estimate D2E/DX2                !
 ! A51   A(14,15,31)           120.0224         estimate D2E/DX2                !
 ! A52   A(16,15,31)           119.8424         estimate D2E/DX2                !
 ! A53   A(11,16,15)           120.5533         estimate D2E/DX2                !
 ! A54   A(11,16,32)           119.2593         estimate D2E/DX2                !
 ! A55   A(15,16,32)           120.1824         estimate D2E/DX2                !
 ! A56   A(2,17,33)            114.4865         estimate D2E/DX2                !
 ! D1    D(18,1,2,3)            89.116          estimate D2E/DX2                !
 ! D2    D(18,1,2,9)          -166.609          estimate D2E/DX2                !
 ! D3    D(18,1,2,17)          -34.7759         estimate D2E/DX2                !
 ! D4    D(1,2,3,4)           -155.5128         estimate D2E/DX2                !
 ! D5    D(1,2,3,8)             24.4923         estimate D2E/DX2                !
 ! D6    D(9,2,3,4)             98.0399         estimate D2E/DX2                !
 ! D7    D(9,2,3,8)            -81.955          estimate D2E/DX2                !
 ! D8    D(17,2,3,4)           -19.5341         estimate D2E/DX2                !
 ! D9    D(17,2,3,8)           160.471          estimate D2E/DX2                !
 ! D10   D(1,2,9,10)            50.4358         estimate D2E/DX2                !
 ! D11   D(1,2,9,24)           -70.5964         estimate D2E/DX2                !
 ! D12   D(1,2,9,25)           172.0579         estimate D2E/DX2                !
 ! D13   D(3,2,9,10)           165.8459         estimate D2E/DX2                !
 ! D14   D(3,2,9,24)            44.8138         estimate D2E/DX2                !
 ! D15   D(3,2,9,25)           -72.5319         estimate D2E/DX2                !
 ! D16   D(17,2,9,10)          -87.2442         estimate D2E/DX2                !
 ! D17   D(17,2,9,24)          151.7237         estimate D2E/DX2                !
 ! D18   D(17,2,9,25)           34.378          estimate D2E/DX2                !
 ! D19   D(1,2,17,33)          -38.9362         estimate D2E/DX2                !
 ! D20   D(3,2,17,33)         -167.542          estimate D2E/DX2                !
 ! D21   D(9,2,17,33)           87.5601         estimate D2E/DX2                !
 ! D22   D(2,3,4,5)           -179.5505         estimate D2E/DX2                !
 ! D23   D(2,3,4,19)             1.4001         estimate D2E/DX2                !
 ! D24   D(8,3,4,5)              0.4442         estimate D2E/DX2                !
 ! D25   D(8,3,4,19)          -178.6053         estimate D2E/DX2                !
 ! D26   D(2,3,8,7)            179.5188         estimate D2E/DX2                !
 ! D27   D(2,3,8,23)            -1.247          estimate D2E/DX2                !
 ! D28   D(4,3,8,7)             -0.476          estimate D2E/DX2                !
 ! D29   D(4,3,8,23)           178.7582         estimate D2E/DX2                !
 ! D30   D(3,4,5,6)             -0.0337         estimate D2E/DX2                !
 ! D31   D(3,4,5,20)          -179.9399         estimate D2E/DX2                !
 ! D32   D(19,4,5,6)           178.9767         estimate D2E/DX2                !
 ! D33   D(19,4,5,20)           -0.9295         estimate D2E/DX2                !
 ! D34   D(4,5,6,7)             -0.3389         estimate D2E/DX2                !
 ! D35   D(4,5,6,21)          -179.9738         estimate D2E/DX2                !
 ! D36   D(20,5,6,7)           179.5673         estimate D2E/DX2                !
 ! D37   D(20,5,6,21)           -0.0677         estimate D2E/DX2                !
 ! D38   D(5,6,7,8)              0.3071         estimate D2E/DX2                !
 ! D39   D(5,6,7,22)          -179.4909         estimate D2E/DX2                !
 ! D40   D(21,6,7,8)           179.9424         estimate D2E/DX2                !
 ! D41   D(21,6,7,22)            0.1444         estimate D2E/DX2                !
 ! D42   D(6,7,8,3)              0.0957         estimate D2E/DX2                !
 ! D43   D(6,7,8,23)          -179.1144         estimate D2E/DX2                !
 ! D44   D(22,7,8,3)           179.8938         estimate D2E/DX2                !
 ! D45   D(22,7,8,23)            0.6837         estimate D2E/DX2                !
 ! D46   D(2,9,10,11)           58.4472         estimate D2E/DX2                !
 ! D47   D(2,9,10,26)          -61.4389         estimate D2E/DX2                !
 ! D48   D(2,9,10,27)         -179.931          estimate D2E/DX2                !
 ! D49   D(24,9,10,11)         176.3393         estimate D2E/DX2                !
 ! D50   D(24,9,10,26)          56.4532         estimate D2E/DX2                !
 ! D51   D(24,9,10,27)         -62.0389         estimate D2E/DX2                !
 ! D52   D(25,9,10,11)         -58.7783         estimate D2E/DX2                !
 ! D53   D(25,9,10,26)        -178.6644         estimate D2E/DX2                !
 ! D54   D(25,9,10,27)          62.8435         estimate D2E/DX2                !
 ! D55   D(9,10,11,12)          72.1587         estimate D2E/DX2                !
 ! D56   D(9,10,11,16)        -105.7904         estimate D2E/DX2                !
 ! D57   D(26,10,11,12)       -169.0843         estimate D2E/DX2                !
 ! D58   D(26,10,11,16)         12.9666         estimate D2E/DX2                !
 ! D59   D(27,10,11,12)        -48.8778         estimate D2E/DX2                !
 ! D60   D(27,10,11,16)        133.1731         estimate D2E/DX2                !
 ! D61   D(10,11,12,13)       -177.5348         estimate D2E/DX2                !
 ! D62   D(10,11,12,28)          2.5014         estimate D2E/DX2                !
 ! D63   D(16,11,12,13)          0.4479         estimate D2E/DX2                !
 ! D64   D(16,11,12,28)       -179.5159         estimate D2E/DX2                !
 ! D65   D(10,11,16,15)        177.5422         estimate D2E/DX2                !
 ! D66   D(10,11,16,32)         -1.6477         estimate D2E/DX2                !
 ! D67   D(12,11,16,15)         -0.4401         estimate D2E/DX2                !
 ! D68   D(12,11,16,32)       -179.63           estimate D2E/DX2                !
 ! D69   D(11,12,13,14)         -0.0855         estimate D2E/DX2                !
 ! D70   D(11,12,13,29)        179.8144         estimate D2E/DX2                !
 ! D71   D(28,12,13,14)        179.8782         estimate D2E/DX2                !
 ! D72   D(28,12,13,29)         -0.2219         estimate D2E/DX2                !
 ! D73   D(12,13,14,15)         -0.2903         estimate D2E/DX2                !
 ! D74   D(12,13,14,30)        179.7606         estimate D2E/DX2                !
 ! D75   D(29,13,14,15)        179.8099         estimate D2E/DX2                !
 ! D76   D(29,13,14,30)         -0.1391         estimate D2E/DX2                !
 ! D77   D(13,14,15,16)          0.2978         estimate D2E/DX2                !
 ! D78   D(13,14,15,31)       -179.8989         estimate D2E/DX2                !
 ! D79   D(30,14,15,16)       -179.7531         estimate D2E/DX2                !
 ! D80   D(30,14,15,31)          0.0502         estimate D2E/DX2                !
 ! D81   D(14,15,16,11)          0.0705         estimate D2E/DX2                !
 ! D82   D(14,15,16,32)        179.2529         estimate D2E/DX2                !
 ! D83   D(31,15,16,11)       -179.7331         estimate D2E/DX2                !
 ! D84   D(31,15,16,32)         -0.5507         estimate D2E/DX2                !
 --------------------------------------------------------------------------------
 Trust Radius=3.00D-01 FncErr=1.00D-07 GrdErr=1.00D-06 EigMax=2.50D+02 EigMin=1.00D-04
 Number of steps in this run=    184 maximum allowed number of steps=    198.
 GradGradGradGradGradGradGradGradGradGradGradGradGradGradGradGradGradGrad

                          Input orientation:                          
 ---------------------------------------------------------------------
 Center     Atomic      Atomic             Coordinates (Angstroms)
 Number     Number       Type             X           Y           Z
 ---------------------------------------------------------------------
      1          7           0        1.907823   -0.406316    0.575156
      2         16           0        0.547118    0.263627    0.311047
      3          6           0        0.683385    2.051639    0.066725
      4          6           0       -0.395964    2.875467    0.316964
      5          6           0       -0.264723    4.238967    0.111950
      6          6           0        0.938380    4.759912   -0.337904
      7          6           0        2.017979    3.924185   -0.578573
      8          6           0        1.890580    2.561059   -0.374145
      9          6           0        0.225366   -0.221165   -1.441344
     10          6           0        0.408728   -1.721615   -1.605305
     11          6           0       -0.518310   -2.468241   -0.687082
     12          6           0       -1.883225   -2.509244   -0.942976
     13          6           0       -2.744566   -3.152447   -0.072709
     14          6           0       -2.250512   -3.765635    1.066050
     15          6           0       -0.890968   -3.736781    1.325514
     16          6           0       -0.030515   -3.092371    0.453336
     17          7           0       -0.673214    0.171572    1.240182
     18          1           0        2.159458   -0.436583    1.550105
     19          1           0       -1.307989    2.431368    0.681034
     20          1           0       -1.099870    4.895910    0.304283
     21          1           0        1.037931    5.823689   -0.496484
     22          1           0        2.956134    4.334858   -0.921144
     23          1           0        2.713718    1.880989   -0.537507
     24          1           0        0.931628    0.337395   -2.050348
     25          1           0       -0.793067    0.101140   -1.648672
     26          1           0        1.443324   -1.960801   -1.357218
     27          1           0        0.217325   -1.998485   -2.645958
     28          1           0       -2.274120   -2.033709   -1.831825
     29          1           0       -3.804182   -3.174392   -0.281937
     30          1           0       -2.922740   -4.264866    1.748297
     31          1           0       -0.499458   -4.215028    2.211829
     32          1           0        1.028863   -3.059018    0.661229
     33          1           0       -0.808930   -0.731941    1.662265
 ---------------------------------------------------------------------
                    Distance matrix (angstroms):
                    1          2          3          4          5
     1  N    0.000000
     2  S    1.539512   0.000000
     3  C    2.792722   1.809765   0.000000
     4  C    4.017985   2.776895   1.380691   0.000000
     5  C    5.149095   4.062273   2.384399   1.385059   0.000000
     6  C    5.335111   4.559694   2.750180   2.400096   1.386076
     7  C    4.482908   4.044075   2.388300   2.780093   2.405543
     8  C    3.115572   2.748195   1.382459   2.409309   2.774345
     9  C    2.632721   1.846462   2.765807   3.614806   4.748230
    10  C    2.954946   2.762741   4.136250   5.047356   6.239474
    11  C    3.425040   3.097498   4.737257   5.438592   6.759393
    12  C    4.593374   3.894606   5.329976   5.726649   7.019315
    13  C    5.441111   4.759413   6.233201   6.481012   7.798508
    14  C    5.368217   4.963035   6.591440   6.935756   8.302249
    15  C    4.414551   4.370411   6.129350   6.707013   8.091815
    16  C    3.314647   3.408317   5.207682   5.980572   7.343018
    17  N    2.727263   1.536546   2.598464   2.870583   4.240693
    18  H    1.007354   2.150627   3.251223   4.361249   5.459460
    19  H    4.290118   2.877049   2.118288   1.077757   2.163257
    20  H    6.101901   4.916367   3.365458   2.139587   1.079832
    21  H    6.381073   5.639796   3.830310   3.377835   2.139729
    22  H    5.081004   4.888413   3.369623   3.859961   3.383843
    23  H    2.668192   2.833736   2.125198   3.374793   3.853954
    24  H    2.898160   2.393632   2.735371   3.715976   4.618339
    25  H    3.535213   2.379705   2.987799   3.423201   4.527753
    26  H    2.523143   2.921365   4.324903   5.438322   6.596438
    27  H    3.970939   3.737618   4.896873   5.736762   6.836976
    28  H    5.092211   4.222444   5.389007   5.678448   6.867489
    29  H    6.404986   5.577222   6.897189   6.969606   8.224403
    30  H    6.292774   5.883268   7.465256   7.708285   9.058579
    31  H    4.793744   4.976609   6.728425   7.340050   8.714048
    32  H    2.795856   3.375600   5.156705   6.112836   7.432070
    33  H    2.944246   2.157732   3.538512   3.872179   5.235415
                    6          7          8          9         10
     6  C    0.000000
     7  C    1.386325   0.000000
     8  C    2.396446   1.384244   0.000000
     9  C    5.151417   4.598017   3.413593   0.000000
    10  C    6.625483   5.959775   4.696055   1.520479   0.000000
    11  C    7.381738   6.878055   5.585207   2.484213   1.503324
    12  C    7.821010   7.532675   6.346113   3.151164   2.512387
    13  C    8.731543   8.544966   7.363395   4.391591   3.786739
    14  C    9.210053   8.947521   7.697393   4.998026   4.287856
    15  C    8.849139   8.412961   7.091448   4.610993   3.786793
    16  C    7.951300   7.381952   6.027985   3.449509   2.511954
    17  N    5.112773   4.963113   3.858593   2.855218   3.584906
    18  H    5.662081   4.854645   3.572239   3.568737   3.830532
    19  H    3.392127   3.857094   3.370618   3.727143   5.041996
    20  H    2.141345   3.382996   3.854164   5.566679   7.050817
    21  H    1.080130   2.139007   3.374423   6.171976   7.652254
    22  H    2.142935   1.079881   2.140321   5.337138   6.605923
    23  H    3.388195   2.158793   1.080157   3.380513   4.408166
    24  H    4.742485   4.026331   2.945153   1.087052   2.170486
    25  H    5.140056   4.864438   3.857147   1.088150   2.183719
    26  H    6.816300   5.964023   4.649052   2.125284   1.090480
    27  H    7.177950   6.526442   5.361936   2.147097   1.093732
    28  H    7.661935   7.449111   6.370357   3.112109   2.710422
    29  H    9.243819   9.185604   8.082957   5.128647   4.648706
    30  H   10.035292   9.843047   8.617775   6.036215   5.367816
    31  H    9.440236   8.964965   7.636419   5.460951   4.648916
    32  H    7.883028   7.161046   5.779258   3.622131   2.703773
    33  H    6.100345   5.890015   4.719975   3.311049   3.624797
                   11         12         13         14         15
    11  C    0.000000
    12  C    1.389301   0.000000
    13  C    2.408695   1.383106   0.000000
    14  C    2.785180   2.397833   1.384508   0.000000
    15  C    2.408030   2.763597   2.394222   1.384382   0.000000
    16  C    1.388537   2.392125   2.765214   2.399393   1.384318
    17  N    3.272148   3.662934   4.130773   4.244973   3.915344
    18  H    4.037707   5.182149   5.836000   5.546597   4.499650
    19  H    5.147961   5.232394   5.814711   6.280082   6.215731
    20  H    7.453303   7.550206   8.223332   8.770783   8.695395
    21  H    8.438858   8.841396   9.749763  10.257218   9.921840
    22  H    7.642558   8.382220   9.448680   9.832400   9.219491
    23  H    5.420717   6.369493   7.439380   7.687609   6.929931
    24  H    3.439826   4.153676   5.440998   6.055808   5.596178
    25  H    2.757148   2.915572   4.108264   4.944271   4.856439
    26  H    2.134147   3.396810   4.539649   4.772220   3.974931
    27  H    2.144534   2.751969   4.089748   4.795002   4.474659
    28  H    2.140590   1.081196   2.137143   3.376064   3.844782
    29  H    3.385225   2.137631   1.080297   2.140217   3.374462
    30  H    3.865257   3.377240   2.141328   1.080084   2.141429
    31  H    3.384569   3.844126   3.374716   2.140316   1.080535
    32  H    2.135580   3.369864   3.845277   3.378977   2.141585
    33  H    2.935749   3.331696   3.551854   3.411295   3.024763
                   16         17         18         19         20
    16  C    0.000000
    17  N    3.418408   0.000000
    18  H    3.612768   2.913749   0.000000
    19  H    5.674105   2.412936   4.582970   0.000000
    20  H    8.060916   4.835009   6.372658   2.501844   0.000000
    21  H    9.029943   6.155522   6.681119   4.289258   2.464182
    22  H    8.122376   5.930973   5.432164   4.936902   4.274063
    23  H    5.766012   4.189700   3.168038   4.238146   4.933742
    24  H    4.354015   3.664779   3.881993   4.106222   5.518272
    25  H    3.898517   2.892197   4.386197   3.335062   5.186326
    26  H    2.594371   3.971553   3.359854   5.569142   7.499527
    27  H    3.296003   4.539195   4.880406   5.746221   7.613909
    28  H    3.372905   4.106506   5.800421   5.213903   7.345845
    29  H    3.845506   4.828590   6.813000   6.211507   8.531513
    30  H    3.378851   5.000053   6.365828   6.970366   9.451340
    31  H    2.138355   4.496281   4.667372   6.868160   9.327830
    32  H    1.080099   3.697156   2.990906   5.967043   8.242560
    33  H    2.763886   1.006434   2.985154   3.349387   5.796677
                   21         22         23         24         25
    21  H    0.000000
    22  H    2.465048   0.000000
    23  H    4.284254   2.495479   0.000000
    24  H    5.703089   4.620977   2.801287   0.000000
    25  H    6.117815   5.701769   4.086574   1.786543   0.000000
    26  H    7.842416   6.489535   4.128580   2.454376   3.055813
    27  H    8.153530   7.112474   5.072263   2.514223   2.534541
    28  H    8.630847   8.291172   6.471371   3.993333   2.604735
    29  H   10.220447  10.124193   8.252587   6.155308   4.654448
    30  H   11.068193  10.753712   8.646738   7.103989   5.927639
    31  H   10.510679   9.739465   7.419216   6.398337   5.798188
    32  H    8.957839   7.803056   5.355313   4.347151   4.317600
    33  H    7.144745   6.820715   4.906674   4.237513   3.414173
                   26         27         28         29         30
    26  H    0.000000
    27  H    1.779141   0.000000
    28  H    3.748327   2.621327   0.000000
    29  H    5.492299   4.810808   2.458536   0.000000
    30  H    5.832277   5.857129   4.268025   2.467371   0.000000
    31  H    4.646939   5.387479   4.925314   4.268840   2.467720
    32  H    2.334949   3.566624   4.263364   4.925565   4.272113
    33  H    3.962325   4.606312   4.006251   4.326317   4.117906
                   31         32         33
    31  H    0.000000
    32  H    2.465052   0.000000
    33  H    3.539730   3.129671   0.000000
 Stoichiometry    C14H16N2S
 Framework group  C1[X(C14H16N2S)]
 Deg. of freedom    93
 Full point group                 C1      NOp   1
 Largest Abelian subgroup         C1      NOp   1
 Largest concise Abelian subgroup C1      NOp   1
                         Standard orientation:                         
 ---------------------------------------------------------------------
 Center     Atomic      Atomic             Coordinates (Angstroms)
 Number     Number       Type             X           Y           Z
 ---------------------------------------------------------------------
      1          7           0       -0.216763   -1.743425   -1.034850
      2         16           0       -0.417851   -0.338505   -0.438308
      3          6           0       -2.162781    0.074147   -0.192983
      4          6           0       -2.571099    1.392654   -0.159454
      5          6           0       -3.911799    1.678005    0.039254
      6          6           0       -4.823753    0.646729    0.200554
      7          6           0       -4.403737   -0.673733    0.157405
      8          6           0       -3.064684   -0.962609   -0.041643
      9          6           0        0.042169   -0.613081    1.328726
     10          6           0        1.387268   -1.317325    1.409987
     11          6           0        2.448937   -0.504426    0.722939
     12          6           0        2.920078    0.670052    1.296339
     13          6           0        3.859881    1.446107    0.642512
     14          6           0        4.342766    1.055666   -0.594921
     15          6           0        3.885050   -0.117107   -1.170780
     16          6           0        2.944287   -0.892393   -0.514860
     17          7           0        0.123396    0.962494   -1.051029
     18          1           0       -0.213647   -1.756714   -2.042111
     19          1           0       -1.832049    2.163443   -0.305230
     20          1           0       -4.246202    2.704381    0.066891
     21          1           0       -5.868731    0.872271    0.354933
     22          1           0       -5.118576   -1.474512    0.275309
     23          1           0       -2.702841   -1.978952   -0.095065
     24          1           0       -0.751690   -1.214735    1.764020
     25          1           0        0.059995    0.376689    1.780510
     26          1           0        1.288155   -2.284774    0.916665
     27          1           0        1.650166   -1.476417    2.459666
     28          1           0        2.547801    0.978595    2.263394
     29          1           0        4.215697    2.358707    1.098143
     30          1           0        5.073812    1.662958   -1.108097
     31          1           0        4.259535   -0.427703   -2.135584
     32          1           0        2.577715   -1.801296   -0.968878
     33          1           0        1.044538    0.884547   -1.448937
 ---------------------------------------------------------------------
 Rotational constants (GHZ):           1.1587092           0.2317300           0.2222359
 Standard basis: def2SVP (5D, 7F)
 There are   339 symmetry adapted cartesian basis functions of A   symmetry.
 There are   322 symmetry adapted basis functions of A   symmetry.
   322 basis functions,   549 primitive gaussians,   339 cartesian basis functions
    65 alpha electrons       65 beta electrons
       nuclear repulsion energy      1309.3348251951 Hartrees.
 NAtoms=   33 NActive=   33 NUniq=   33 SFac= 1.00D+00 NAtFMM=   60 NAOKFM=F Big=F
 Integral buffers will be    131072 words long.
 Raffenetti 2 integral format.
 Two-electron integral symmetry is turned on.
 Nuclear repulsion after empirical dispersion term =     1309.2927309604 Hartrees.
 One-electron integrals computed using PRISM.
   1 Symmetry operations used in ECPInt.
 ECPInt:  NShTT=   11628 NPrTT=   42474 LenC2=   10746 LenP2D=   28219.
 LDataN:  DoStor=T MaxTD1= 4 Len=   56
 NBasis=   322 RedAO= T EigKep=  2.65D-04  NBF=   322
 NBsUse=   322 1.00D-06 EigRej= -1.00D+00 NBFU=   322
 ExpMin= 1.22D-01 ExpMax= 9.18D+03 ExpMxC= 1.38D+03 IAcc=3 IRadAn=         5 AccDes= 0.00D+00
 Harris functional with IExCor= 1009 and IRadAn=       5 diagonalized for initial guess.
 HarFok:  IExCor= 1009 AccDes= 0.00D+00 IRadAn=         5 IDoV= 1 UseB2=F ITyADJ=14
 ICtDFT=  3500011 ScaDFX=  1.000000  1.000000  1.000000  1.000000
 FoFCou: FMM=F IPFlag=           0 FMFlag=      100000 FMFlg1=           0
         NFxFlg=           0 DoJE=T BraDBF=F KetDBF=T FulRan=T
         wScrn=  0.000000 ICntrl=       500 IOpCl=  0 I1Cent=   200000004 NGrid=           0
         NMat0=    1 NMatS0=      1 NMatT0=    0 NMatD0=    1 NMtDS0=    0 NMtDT0=    0
 Petite list used in FoFCou.
 Requested convergence on RMS density matrix=1.00D-08 within 128 cycles.
 Requested convergence on MAX density matrix=1.00D-06.
 Requested convergence on             energy=1.00D-06.
 No special actions if energy rises.
 Integral accuracy reduced to 1.0D-05 until final iterations.
 EnCoef did     2 forward-backward iterations
 Initial convergence to 1.0D-05 achieved.  Increase integral accuracy.
 SCF Done:  E(RPBE1PBE) =  -1049.22711912     A.U. after   14 cycles
            NFock= 14  Conv=0.74D-08     -V/T= 2.0069

 **********************************************************************

            Population analysis using the SCF Density.

 **********************************************************************

 Orbital symmetries:
       Occupied  (A) (A) (A) (A) (A) (A) (A) (A) (A) (A) (A) (A)
                 (A) (A) (A) (A) (A) (A) (A) (A) (A) (A) (A) (A)
                 (A) (A) (A) (A) (A) (A) (A) (A) (A) (A) (A) (A)
                 (A) (A) (A) (A) (A) (A) (A) (A) (A) (A) (A) (A)
                 (A) (A) (A) (A) (A) (A) (A) (A) (A) (A) (A) (A)
                 (A) (A) (A) (A) (A)
       Virtual   (A) (A) (A) (A) (A) (A) (A) (A) (A) (A) (A) (A)
                 (A) (A) (A) (A) (A) (A) (A) (A) (A) (A) (A) (A)
                 (A) (A) (A) (A) (A) (A) (A) (A) (A) (A) (A) (A)
                 (A) (A) (A) (A) (A) (A) (A) (A) (A) (A) (A) (A)
                 (A) (A) (A) (A) (A) (A) (A) (A) (A) (A) (A) (A)
                 (A) (A) (A) (A) (A) (A) (A) (A) (A) (A) (A) (A)
                 (A) (A) (A) (A) (A) (A) (A) (A) (A) (A) (A) (A)
                 (A) (A) (A) (A) (A) (A) (A) (A) (A) (A) (A) (A)
                 (A) (A) (A) (A) (A) (A) (A) (A) (A) (A) (A) (A)
                 (A) (A) (A) (A) (A) (A) (A) (A) (A) (A) (A) (A)
                 (A) (A) (A) (A) (A) (A) (A) (A) (A) (A) (A) (A)
                 (A) (A) (A) (A) (A) (A) (A) (A) (A) (A) (A) (A)
                 (A) (A) (A) (A) (A) (A) (A) (A) (A) (A) (A) (A)
                 (A) (A) (A) (A) (A) (A) (A) (A) (A) (A) (A) (A)
                 (A) (A) (A) (A) (A) (A) (A) (A) (A) (A) (A) (A)
                 (A) (A) (A) (A) (A) (A) (A) (A) (A) (A) (A) (A)
                 (A) (A) (A) (A) (A) (A) (A) (A) (A) (A) (A) (A)
                 (A) (A) (A) (A) (A) (A) (A) (A) (A) (A) (A) (A)
                 (A) (A) (A) (A) (A) (A) (A) (A) (A) (A) (A) (A)
                 (A) (A) (A) (A) (A) (A) (A) (A) (A) (A) (A) (A)
                 (A) (A) (A) (A) (A) (A) (A) (A) (A) (A) (A) (A)
                 (A) (A) (A) (A) (A)
 The electronic state is 1-A.
 Alpha  occ. eigenvalues --  -89.17577 -14.34371 -14.33801 -10.26092 -10.25888
 Alpha  occ. eigenvalues --  -10.24921 -10.24743 -10.24674 -10.24517 -10.24461
 Alpha  occ. eigenvalues --  -10.24155 -10.24114 -10.23429 -10.23378 -10.23318
 Alpha  occ. eigenvalues --  -10.23290 -10.22982  -8.14975  -6.09112  -6.09011
 Alpha  occ. eigenvalues --   -6.08976  -1.00038  -0.89174  -0.88377  -0.84836
 Alpha  occ. eigenvalues --   -0.81986  -0.78576  -0.77586  -0.76347  -0.75438
 Alpha  occ. eigenvalues --   -0.68993  -0.64385  -0.63435  -0.62271  -0.60552
 Alpha  occ. eigenvalues --   -0.58825  -0.55482  -0.53354  -0.52739  -0.49527
 Alpha  occ. eigenvalues --   -0.48721  -0.47793  -0.47194  -0.46125  -0.45431
 Alpha  occ. eigenvalues --   -0.44787  -0.44642  -0.43401  -0.43242  -0.40888
 Alpha  occ. eigenvalues --   -0.39738  -0.38182  -0.37871  -0.37700  -0.36714
 Alpha  occ. eigenvalues --   -0.35069  -0.34968  -0.34170  -0.28457  -0.27979
 Alpha  occ. eigenvalues --   -0.27285  -0.26671  -0.25600  -0.25083  -0.23380
 Alpha virt. eigenvalues --   -0.02575  -0.01298  -0.00487   0.00018   0.06471
 Alpha virt. eigenvalues --    0.07004   0.07917   0.08664   0.09617   0.09785
 Alpha virt. eigenvalues --    0.10742   0.11588   0.11920   0.12677   0.13080
 Alpha virt. eigenvalues --    0.14182   0.14356   0.14631   0.16041   0.16581
 Alpha virt. eigenvalues --    0.16969   0.17651   0.18817   0.18980   0.19568
 Alpha virt. eigenvalues --    0.20264   0.22981   0.25410   0.28912   0.29515
 Alpha virt. eigenvalues --    0.30421   0.30758   0.31390   0.32162   0.33040
 Alpha virt. eigenvalues --    0.33886   0.35881   0.38184   0.40402   0.41522
 Alpha virt. eigenvalues --    0.41967   0.42081   0.42950   0.43759   0.44032
 Alpha virt. eigenvalues --    0.45072   0.45751   0.46245   0.48405   0.48646
 Alpha virt. eigenvalues --    0.49118   0.49446   0.50417   0.50972   0.51943
 Alpha virt. eigenvalues --    0.52723   0.53840   0.54161   0.55076   0.55707
 Alpha virt. eigenvalues --    0.56415   0.57223   0.58093   0.60636   0.61617
 Alpha virt. eigenvalues --    0.61970   0.62820   0.63272   0.64167   0.65506
 Alpha virt. eigenvalues --    0.66039   0.66564   0.66984   0.67298   0.67683
 Alpha virt. eigenvalues --    0.67868   0.69311   0.70219   0.70257   0.70820
 Alpha virt. eigenvalues --    0.71361   0.71894   0.72302   0.72647   0.73572
 Alpha virt. eigenvalues --    0.74627   0.75147   0.75415   0.76071   0.76347
 Alpha virt. eigenvalues --    0.76823   0.77232   0.78647   0.79179   0.79957
 Alpha virt. eigenvalues --    0.81551   0.83146   0.83753   0.85872   0.86510
 Alpha virt. eigenvalues --    0.88338   0.89365   0.90458   0.92357   0.93193
 Alpha virt. eigenvalues --    0.94761   0.96722   0.98001   0.98444   1.00474
 Alpha virt. eigenvalues --    1.01714   1.02929   1.06735   1.08447   1.10390
 Alpha virt. eigenvalues --    1.11441   1.13753   1.15417   1.17323   1.18197
 Alpha virt. eigenvalues --    1.20107   1.21345   1.23149   1.24005   1.24351
 Alpha virt. eigenvalues --    1.25793   1.25972   1.26946   1.27748   1.28481
 Alpha virt. eigenvalues --    1.29657   1.30376   1.31146   1.31470   1.34417
 Alpha virt. eigenvalues --    1.34907   1.36970   1.41316   1.45759   1.47315
 Alpha virt. eigenvalues --    1.49967   1.52849   1.53090   1.55390   1.57615
 Alpha virt. eigenvalues --    1.62650   1.66899   1.66975   1.67886   1.69019
 Alpha virt. eigenvalues --    1.70631   1.70878   1.71595   1.73189   1.74875
 Alpha virt. eigenvalues --    1.75189   1.75764   1.76694   1.76822   1.77588
 Alpha virt. eigenvalues --    1.77833   1.78539   1.78856   1.79795   1.80241
 Alpha virt. eigenvalues --    1.81398   1.81641   1.82028   1.83391   1.84678
 Alpha virt. eigenvalues --    1.85821   1.86665   1.89268   1.90374   1.92015
 Alpha virt. eigenvalues --    1.94100   1.95403   1.95949   1.96207   1.97178
 Alpha virt. eigenvalues --    1.98814   1.99823   2.00461   2.00898   2.02501
 Alpha virt. eigenvalues --    2.03112   2.06792   2.08874   2.11291   2.11926
 Alpha virt. eigenvalues --    2.13729   2.14519   2.15162   2.16263   2.16771
 Alpha virt. eigenvalues --    2.18067   2.20423   2.20714   2.22785   2.25096
 Alpha virt. eigenvalues --    2.27268   2.29978   2.30433   2.31104   2.31868
 Alpha virt. eigenvalues --    2.32364   2.33154   2.34420   2.35136   2.37047
 Alpha virt. eigenvalues --    2.37824   2.38737   2.41380   2.42471   2.44046
 Alpha virt. eigenvalues --    2.45013   2.51017   2.53243   2.55638   2.56675
 Alpha virt. eigenvalues --    2.59104   2.60550   2.61500   2.62497   2.64322
 Alpha virt. eigenvalues --    2.65044   2.65657   2.66941   2.67222   2.68177
 Alpha virt. eigenvalues --    2.70512   2.76298   2.76447   2.77348   2.78033
 Alpha virt. eigenvalues --    2.84834   2.85837   2.88166   2.88819   2.90170
 Alpha virt. eigenvalues --    2.91913   2.92660   2.93189   2.94183   2.96692
 Alpha virt. eigenvalues --    3.01449   3.06473   3.07486   3.13565   3.16643
 Alpha virt. eigenvalues --    3.18460   3.24852   3.29800   3.30549   3.36611
 Alpha virt. eigenvalues --    3.66551   3.70026
          Condensed to atoms (all electrons):
               1          2          3          4          5          6
     1  N    6.895350   0.339380  -0.065306   0.004108   0.000017  -0.000038
     2  S    0.339380  14.720463   0.149591  -0.034340   0.004556   0.000221
     3  C   -0.065306   0.149591   5.813701   0.259570   0.104121  -0.182903
     4  C    0.004108  -0.034340   0.259570   5.100862   0.228583   0.099996
     5  C    0.000017   0.004556   0.104121   0.228583   5.139575   0.256238
     6  C   -0.000038   0.000221  -0.182903   0.099996   0.256238   5.130177
     7  C    0.001520   0.002169   0.099982  -0.138841   0.090774   0.260467
     8  C    0.007519  -0.061984   0.229827   0.052671  -0.148836   0.100456
     9  C   -0.107499   0.241145  -0.118547  -0.004663  -0.000421  -0.000100
    10  C    0.013988  -0.047897   0.008568  -0.000267   0.000010   0.000001
    11  C   -0.017486  -0.016088  -0.000281   0.000099  -0.000001   0.000000
    12  C    0.000417   0.001346  -0.000107   0.000007   0.000000  -0.000000
    13  C   -0.000043  -0.000493  -0.000009  -0.000001  -0.000000  -0.000000
    14  C    0.000056   0.000113   0.000004  -0.000000   0.000000   0.000000
    15  C   -0.000517  -0.001363  -0.000033   0.000001   0.000000  -0.000000
    16  C    0.004419   0.013785   0.000544  -0.000016  -0.000000   0.000000
    17  N   -0.040692   0.385823  -0.096595  -0.000600   0.001591  -0.000030
    18  H    0.322572  -0.009850  -0.002018  -0.000039  -0.000033   0.000001
    19  H    0.000370  -0.012851  -0.059987   0.445628  -0.063238   0.012693
    20  H    0.000001  -0.000146   0.016613  -0.071359   0.454762  -0.073455
    21  H    0.000000   0.000022  -0.001523   0.014033  -0.067730   0.448715
    22  H   -0.000007  -0.000171   0.016755  -0.001803   0.014300  -0.072438
    23  H    0.025485  -0.009693  -0.076908   0.012936  -0.002032   0.013154
    24  H    0.001333  -0.009271   0.002141  -0.000395   0.000016   0.000034
    25  H    0.005851  -0.017243   0.002016   0.003348   0.000167  -0.000010
    26  H    0.021308  -0.015322   0.000120  -0.000009  -0.000001   0.000000
    27  H    0.000250   0.006060  -0.000170  -0.000015   0.000000   0.000000
    28  H   -0.000008   0.000319   0.000012  -0.000006  -0.000000   0.000000
    29  H   -0.000000  -0.000005  -0.000000  -0.000000  -0.000000  -0.000000
    30  H    0.000000  -0.000001   0.000000  -0.000000   0.000000   0.000000
    31  H   -0.000036   0.000014  -0.000001   0.000000   0.000000  -0.000000
    32  H    0.015002   0.000713   0.000167  -0.000003   0.000000   0.000000
    33  H   -0.001757  -0.024184   0.008405  -0.000404  -0.000031   0.000005
               7          8          9         10         11         12
     1  N    0.001520   0.007519  -0.107499   0.013988  -0.017486   0.000417
     2  S    0.002169  -0.061984   0.241145  -0.047897  -0.016088   0.001346
     3  C    0.099982   0.229827  -0.118547   0.008568  -0.000281  -0.000107
     4  C   -0.138841   0.052671  -0.004663  -0.000267   0.000099   0.000007
     5  C    0.090774  -0.148836  -0.000421   0.000010  -0.000001   0.000000
     6  C    0.260467   0.100456  -0.000100   0.000001   0.000000  -0.000000
     7  C    5.089020   0.258196  -0.000581  -0.000029   0.000001  -0.000000
     8  C    0.258196   5.154148  -0.002605   0.000024  -0.000027  -0.000003
     9  C   -0.000581  -0.002605   5.110317   0.381204  -0.074719  -0.007289
    10  C   -0.000029   0.000024   0.381204   4.756631   0.299817  -0.095710
    11  C    0.000001  -0.000027  -0.074719   0.299817   5.544833   0.246775
    12  C   -0.000000  -0.000003  -0.007289  -0.095710   0.246775   5.138938
    13  C    0.000000   0.000000   0.001026   0.010348   0.101232   0.309408
    14  C   -0.000000  -0.000000  -0.000231   0.000082  -0.169677   0.088596
    15  C    0.000000   0.000000   0.000958   0.012224   0.100244  -0.140996
    16  C   -0.000000   0.000001  -0.021563  -0.068273   0.246884   0.048808
    17  N   -0.000085   0.006544  -0.041883  -0.013257   0.013769   0.002415
    18  H   -0.000128  -0.000903   0.009512   0.000198  -0.000322   0.000002
    19  H   -0.001868   0.013364   0.000634  -0.000018   0.000013   0.000030
    20  H    0.014559  -0.001930   0.000015  -0.000000   0.000000  -0.000000
    21  H   -0.068681   0.014590   0.000000   0.000000   0.000000   0.000000
    22  H    0.456714  -0.073911   0.000018  -0.000000  -0.000000   0.000000
    23  H   -0.049951   0.436894   0.001191  -0.000560   0.000012  -0.000001
    24  H    0.000017   0.004585   0.356080  -0.019681   0.012710  -0.000055
    25  H    0.000048  -0.000744   0.357960  -0.015445  -0.009759   0.007755
    26  H    0.000012   0.000077  -0.011005   0.361888  -0.011253   0.009324
    27  H   -0.000001  -0.000013  -0.024617   0.381031  -0.022246  -0.009572
    28  H    0.000000   0.000000  -0.001187  -0.011847  -0.077326   0.446073
    29  H    0.000000   0.000000   0.000015  -0.000331   0.016348  -0.071507
    30  H   -0.000000  -0.000000  -0.000001   0.000041  -0.001516   0.014645
    31  H   -0.000000  -0.000000   0.000010  -0.000293   0.017601  -0.002103
    32  H   -0.000000  -0.000001  -0.002032  -0.014447  -0.073020   0.015684
    33  H   -0.000008  -0.000287  -0.001220  -0.000177  -0.003612  -0.001529
              13         14         15         16         17         18
     1  N   -0.000043   0.000056  -0.000517   0.004419  -0.040692   0.322572
     2  S   -0.000493   0.000113  -0.001363   0.013785   0.385823  -0.009850
     3  C   -0.000009   0.000004  -0.000033   0.000544  -0.096595  -0.002018
     4  C   -0.000001  -0.000000   0.000001  -0.000016  -0.000600  -0.000039
     5  C   -0.000000   0.000000   0.000000  -0.000000   0.001591  -0.000033
     6  C   -0.000000   0.000000  -0.000000   0.000000  -0.000030   0.000001
     7  C    0.000000  -0.000000   0.000000  -0.000000  -0.000085  -0.000128
     8  C    0.000000  -0.000000   0.000000   0.000001   0.006544  -0.000903
     9  C    0.001026  -0.000231   0.000958  -0.021563  -0.041883   0.009512
    10  C    0.010348   0.000082   0.012224  -0.068273  -0.013257   0.000198
    11  C    0.101232  -0.169677   0.100244   0.246884   0.013769  -0.000322
    12  C    0.309408   0.088596  -0.140996   0.048808   0.002415   0.000002
    13  C    5.032961   0.274997   0.087968  -0.142419  -0.000434   0.000001
    14  C    0.274997   5.127271   0.260096   0.096443   0.000064  -0.000008
    15  C    0.087968   0.260096   5.113306   0.257383  -0.000684  -0.000028
    16  C   -0.142419   0.096443   0.257383   5.184609  -0.003381   0.000155
    17  N   -0.000434   0.000064  -0.000684  -0.003381   6.803073  -0.000919
    18  H    0.000001  -0.000008  -0.000028   0.000155  -0.000919   0.557118
    19  H   -0.000002  -0.000001   0.000001  -0.000014   0.030870  -0.000006
    20  H    0.000000  -0.000000   0.000000  -0.000000  -0.000024   0.000000
    21  H    0.000000  -0.000000   0.000000  -0.000000   0.000000  -0.000000
    22  H    0.000000  -0.000000   0.000000  -0.000000   0.000002   0.000004
    23  H    0.000000  -0.000000   0.000000   0.000004   0.000706  -0.000495
    24  H   -0.000001   0.000000   0.000002  -0.000007   0.002757  -0.000531
    25  H   -0.000684   0.000006   0.000055  -0.000031   0.005757  -0.000419
    26  H   -0.000396  -0.000024   0.000816  -0.010004   0.000790  -0.001196
    27  H    0.000497   0.000072  -0.000667   0.007733  -0.000226   0.000037
    28  H   -0.062604   0.014839  -0.001833   0.015534  -0.000189   0.000001
    29  H    0.451875  -0.073265   0.014952  -0.001969  -0.000009   0.000000
    30  H   -0.069768   0.450038  -0.070602   0.014469  -0.000006  -0.000000
    31  H    0.015169  -0.076106   0.455550  -0.074497  -0.000022   0.000017
    32  H   -0.002197   0.015109  -0.073332   0.460952  -0.000320   0.000092
    33  H   -0.000502   0.001443   0.000898   0.007826   0.357764   0.001881
              19         20         21         22         23         24
     1  N    0.000370   0.000001   0.000000  -0.000007   0.025485   0.001333
     2  S   -0.012851  -0.000146   0.000022  -0.000171  -0.009693  -0.009271
     3  C   -0.059987   0.016613  -0.001523   0.016755  -0.076908   0.002141
     4  C    0.445628  -0.071359   0.014033  -0.001803   0.012936  -0.000395
     5  C   -0.063238   0.454762  -0.067730   0.014300  -0.002032   0.000016
     6  C    0.012693  -0.073455   0.448715  -0.072438   0.013154   0.000034
     7  C   -0.001868   0.014559  -0.068681   0.456714  -0.049951   0.000017
     8  C    0.013364  -0.001930   0.014590  -0.073911   0.436894   0.004585
     9  C    0.000634   0.000015   0.000000   0.000018   0.001191   0.356080
    10  C   -0.000018  -0.000000   0.000000  -0.000000  -0.000560  -0.019681
    11  C    0.000013   0.000000   0.000000  -0.000000   0.000012   0.012710
    12  C    0.000030  -0.000000   0.000000   0.000000  -0.000001  -0.000055
    13  C   -0.000002   0.000000   0.000000   0.000000   0.000000  -0.000001
    14  C   -0.000001  -0.000000  -0.000000  -0.000000  -0.000000   0.000000
    15  C    0.000001   0.000000   0.000000   0.000000   0.000000   0.000002
    16  C   -0.000014  -0.000000  -0.000000  -0.000000   0.000004  -0.000007
    17  N    0.030870  -0.000024   0.000000   0.000002   0.000706   0.002757
    18  H   -0.000006   0.000000  -0.000000   0.000004  -0.000495  -0.000531
    19  H    0.608451  -0.010830  -0.000204   0.000032  -0.000341  -0.000012
    20  H   -0.010830   0.663126  -0.012309  -0.000264   0.000042  -0.000000
    21  H   -0.000204  -0.012309   0.664986  -0.012282  -0.000234  -0.000002
    22  H    0.000032  -0.000264  -0.012282   0.663904  -0.011293  -0.000003
    23  H   -0.000341   0.000042  -0.000234  -0.011293   0.635809   0.001086
    24  H   -0.000012  -0.000000  -0.000002  -0.000003   0.001086   0.601627
    25  H    0.000513  -0.000008  -0.000000  -0.000000  -0.000019  -0.014266
    26  H   -0.000006   0.000000   0.000000  -0.000000   0.000289  -0.006168
    27  H    0.000001   0.000000  -0.000000   0.000000   0.000006  -0.005423
    28  H   -0.000005  -0.000000   0.000000  -0.000000   0.000000  -0.000179
    29  H    0.000000   0.000000  -0.000000   0.000000   0.000000  -0.000001
    30  H    0.000000  -0.000000   0.000000  -0.000000  -0.000000   0.000000
    31  H    0.000000   0.000000   0.000000   0.000000  -0.000000  -0.000001
    32  H   -0.000001  -0.000000   0.000000  -0.000000  -0.000005  -0.000061
    33  H   -0.000734  -0.000002   0.000000  -0.000000  -0.000047  -0.000167
              25         26         27         28         29         30
     1  N    0.005851   0.021308   0.000250  -0.000008  -0.000000   0.000000
     2  S   -0.017243  -0.015322   0.006060   0.000319  -0.000005  -0.000001
     3  C    0.002016   0.000120  -0.000170   0.000012  -0.000000   0.000000
     4  C    0.003348  -0.000009  -0.000015  -0.000006  -0.000000  -0.000000
     5  C    0.000167  -0.000001   0.000000  -0.000000  -0.000000   0.000000
     6  C   -0.000010   0.000000   0.000000   0.000000  -0.000000   0.000000
     7  C    0.000048   0.000012  -0.000001   0.000000   0.000000  -0.000000
     8  C   -0.000744   0.000077  -0.000013   0.000000   0.000000  -0.000000
     9  C    0.357960  -0.011005  -0.024617  -0.001187   0.000015  -0.000001
    10  C   -0.015445   0.361888   0.381031  -0.011847  -0.000331   0.000041
    11  C   -0.009759  -0.011253  -0.022246  -0.077326   0.016348  -0.001516
    12  C    0.007755   0.009324  -0.009572   0.446073  -0.071507   0.014645
    13  C   -0.000684  -0.000396   0.000497  -0.062604   0.451875  -0.069768
    14  C    0.000006  -0.000024   0.000072   0.014839  -0.073265   0.450038
    15  C    0.000055   0.000816  -0.000667  -0.001833   0.014952  -0.070602
    16  C   -0.000031  -0.010004   0.007733   0.015534  -0.001969   0.014469
    17  N    0.005757   0.000790  -0.000226  -0.000189  -0.000009  -0.000006
    18  H   -0.000419  -0.001196   0.000037   0.000001   0.000000  -0.000000
    19  H    0.000513  -0.000006   0.000001  -0.000005   0.000000   0.000000
    20  H   -0.000008   0.000000   0.000000  -0.000000   0.000000  -0.000000
    21  H   -0.000000   0.000000  -0.000000   0.000000  -0.000000   0.000000
    22  H   -0.000000  -0.000000   0.000000  -0.000000   0.000000  -0.000000
    23  H   -0.000019   0.000289   0.000006   0.000000   0.000000  -0.000000
    24  H   -0.014266  -0.006168  -0.005423  -0.000179  -0.000001   0.000000
    25  H    0.603716   0.007189  -0.006761   0.002225   0.000017  -0.000001
    26  H    0.007189   0.605012  -0.022359   0.000096   0.000010  -0.000001
    27  H   -0.006761  -0.022359   0.638668   0.004248  -0.000005  -0.000001
    28  H    0.002225   0.000096   0.004248   0.686945  -0.013145  -0.000303
    29  H    0.000017   0.000010  -0.000005  -0.013145   0.677539  -0.012611
    30  H   -0.000001  -0.000001  -0.000001  -0.000303  -0.012611   0.674674
    31  H    0.000001  -0.000012   0.000012   0.000037  -0.000299  -0.012657
    32  H    0.000043   0.005429   0.000355  -0.000260   0.000030  -0.000254
    33  H   -0.000399  -0.000044   0.000004   0.000046  -0.000003   0.000034
              31         32         33
     1  N   -0.000036   0.015002  -0.001757
     2  S    0.000014   0.000713  -0.024184
     3  C   -0.000001   0.000167   0.008405
     4  C    0.000000  -0.000003  -0.000404
     5  C    0.000000   0.000000  -0.000031
     6  C   -0.000000   0.000000   0.000005
     7  C   -0.000000  -0.000000  -0.000008
     8  C   -0.000000  -0.000001  -0.000287
     9  C    0.000010  -0.002032  -0.001220
    10  C   -0.000293  -0.014447  -0.000177
    11  C    0.017601  -0.073020  -0.003612
    12  C   -0.002103   0.015684  -0.001529
    13  C    0.015169  -0.002197  -0.000502
    14  C   -0.076106   0.015109   0.001443
    15  C    0.455550  -0.073332   0.000898
    16  C   -0.074497   0.460952   0.007826
    17  N   -0.000022  -0.000320   0.357764
    18  H    0.000017   0.000092   0.001881
    19  H    0.000000  -0.000001  -0.000734
    20  H    0.000000  -0.000000  -0.000002
    21  H    0.000000   0.000000   0.000000
    22  H    0.000000  -0.000000  -0.000000
    23  H   -0.000000  -0.000005  -0.000047
    24  H   -0.000001  -0.000061  -0.000167
    25  H    0.000001   0.000043  -0.000399
    26  H   -0.000012   0.005429  -0.000044
    27  H    0.000012   0.000355   0.000004
    28  H    0.000037  -0.000260   0.000046
    29  H   -0.000299   0.000030  -0.000003
    30  H   -0.012657  -0.000254   0.000034
    31  H    0.677657  -0.012693   0.000015
    32  H   -0.012693   0.653400   0.000570
    33  H    0.000015   0.000570   0.519166
 Mulliken charges:
               1
     1  N   -0.425556
     2  S    0.395180
     3  C   -0.107752
     4  C    0.030917
     5  C   -0.012387
     6  C    0.006816
     7  C   -0.013306
     8  C    0.012347
     9  C   -0.039919
    10  C    0.062180
    11  C   -0.123004
    12  C   -0.001351
    13  C   -0.005930
    14  C   -0.009917
    15  C   -0.014399
    16  C   -0.037375
    17  N   -0.412568
    18  H    0.125307
    19  H    0.037517
    20  H    0.021208
    21  H    0.020618
    22  H    0.020444
    23  H    0.023964
    24  H    0.073833
    25  H    0.069126
    26  H    0.065441
    27  H    0.053103
    28  H   -0.001484
    29  H    0.012364
    30  H    0.013821
    31  H    0.012635
    32  H    0.011078
    33  H    0.137049
 Sum of Mulliken charges =  -0.00000
 Mulliken charges with hydrogens summed into heavy atoms:
               1
     1  N   -0.300249
     2  S    0.395180
     3  C   -0.107752
     4  C    0.068434
     5  C    0.008821
     6  C    0.027434
     7  C    0.007138
     8  C    0.036312
     9  C    0.103040
    10  C    0.180723
    11  C   -0.123004
    12  C   -0.002835
    13  C    0.006434
    14  C    0.003904
    15  C   -0.001764
    16  C   -0.026296
    17  N   -0.275520
 Electronic spatial extent (au):  <R**2>=           5034.0494
 Charge=             -0.0000 electrons
 Dipole moment (field-independent basis, Debye):
    X=             -1.0508    Y=              0.2027    Z=              1.2982  Tot=              1.6825
 Quadrupole moment (field-independent basis, Debye-Ang):
   XX=            -96.6782   YY=           -107.6960   ZZ=           -103.5574
   XY=              2.2797   XZ=             -4.2383   YZ=              2.0149
 Traceless Quadrupole moment (field-independent basis, Debye-Ang):
   XX=              5.9656   YY=             -5.0521   ZZ=             -0.9135
   XY=              2.2797   XZ=             -4.2383   YZ=              2.0149
 Octapole moment (field-independent basis, Debye-Ang**2):
  XXX=            -66.6452  YYY=             11.6234  ZZZ=             -8.1610  XYY=             -6.8636
  XXY=             21.3471  XXZ=            -11.4222  XZZ=             20.7548  YZZ=             -9.3672
  YYZ=              5.0226  XYZ=              3.3496
 Hexadecapole moment (field-independent basis, Debye-Ang**3):
 XXXX=          -5230.4646 YYYY=           -848.4769 ZZZZ=           -563.2548 XXXY=             79.0403
 XXXZ=           -134.2655 YYYX=             -4.2792 YYYZ=              4.5695 ZZZX=             -7.1291
 ZZZY=             22.6750 XXYY=           -968.6382 XXZZ=          -1042.9889 YYZZ=           -234.3906
 XXYZ=              8.7458 YYXZ=              0.0484 ZZXY=             11.3798
 N-N= 1.309292730960D+03 E-N=-5.073015202288D+03  KE= 1.042025272886D+03
   1 Symmetry operations used in ECPInt.
 ECPInt:  NShTT=   11628 NPrTT=   42474 LenC2=   10746 LenP2D=   28219.
 LDataN:  DoStor=T MaxTD1= 5 Len=  102
 Calling FoFJK, ICntrl=      2127 FMM=F ISym2X=0 I1Cent= 0 IOpClX= 0 NMat=1 NMatS=1 NMatT=0.
 ***** Axes restored to original set *****
 -------------------------------------------------------------------
 Center     Atomic                   Forces (Hartrees/Bohr)
 Number     Number              X              Y              Z
 -------------------------------------------------------------------
      1        7           0.007740340   -0.006443966   -0.018887873
      2       16          -0.005557025    0.002958073    0.001045545
      3        6          -0.002257086   -0.008593694    0.001445493
      4        6          -0.003249746    0.001076033    0.000834920
      5        6           0.000925673   -0.000377563   -0.000544028
      6        6           0.000279075    0.001120253   -0.000076408
      7        6          -0.001023998   -0.000139238    0.000091084
      8        6           0.002298034   -0.003082675   -0.000510961
      9        6           0.009891575   -0.009545851    0.009077941
     10        6          -0.006023077    0.004830217    0.007655651
     11        6           0.005537530   -0.000510340   -0.007332872
     12        6          -0.000058303   -0.000887194    0.000649771
     13        6          -0.001405698    0.000452798   -0.000813393
     14        6          -0.000928006   -0.000472293    0.001726487
     15        6          -0.000218728   -0.000113440    0.001147318
     16        6           0.000927093   -0.002288597    0.000546448
     17        7          -0.004012721    0.017073764   -0.000179205
     18        1          -0.001635389    0.005063546    0.011299202
     19        1          -0.008686102   -0.003724674    0.003760425
     20        1          -0.007220625    0.005342138    0.001804915
     21        1           0.000806059    0.009001221   -0.001325620
     22        1           0.007993572    0.003145181   -0.002740910
     23        1           0.008054048   -0.005833720   -0.001195368
     24        1           0.004475892    0.005419964   -0.005010526
     25        1          -0.006606631    0.004794840    0.000622218
     26        1           0.005462079   -0.001781732   -0.000697015
     27        1          -0.000360461   -0.000368911   -0.005736379
     28        1          -0.003507103    0.004162478   -0.007446221
     29        1          -0.008799716   -0.000249274   -0.001806945
     30        1          -0.005694836   -0.004246076    0.005650269
     31        1           0.003312322   -0.004187606    0.007171719
     32        1           0.008410713    0.000990387    0.001370544
     33        1           0.001131247   -0.012584048   -0.001596228
 -------------------------------------------------------------------
 Cartesian Forces:  Max     0.018887873 RMS     0.005308222

 GradGradGradGradGradGradGradGradGradGradGradGradGradGradGradGradGradGrad
 Berny optimization.
 FormGI is forming the generalized inverse of G from B-inverse, IUseBI=4.
 Internal  Forces:  Max     0.012168915 RMS     0.004362475
 Search for a local minimum.
 Step number   1 out of a maximum of  184
 All quantities printed in internal units (Hartrees-Bohrs-Radians)
 Mixed Optimization -- RFO/linear search
 Second derivative matrix not updated -- first step.
 ITU=  0
     Eigenvalues ---    0.00230   0.00241   0.00495   0.00722   0.01512
     Eigenvalues ---    0.01626   0.02243   0.02266   0.02271   0.02273
     Eigenvalues ---    0.02276   0.02280   0.02284   0.02287   0.02294
     Eigenvalues ---    0.02296   0.02296   0.02298   0.02304   0.02309
     Eigenvalues ---    0.02314   0.02329   0.03419   0.03458   0.03956
     Eigenvalues ---    0.04493   0.04891   0.05666   0.06350   0.07838
     Eigenvalues ---    0.08647   0.08960   0.09462   0.11729   0.12581
     Eigenvalues ---    0.15649   0.15998   0.15998   0.15999   0.16000
     Eigenvalues ---    0.16000   0.16000   0.16000   0.16000   0.16000
     Eigenvalues ---    0.16000   0.16000   0.16000   0.19165   0.21989
     Eigenvalues ---    0.21996   0.22000   0.22000   0.22000   0.22000
     Eigenvalues ---    0.22774   0.23471   0.23497   0.24984   0.25000
     Eigenvalues ---    0.25362   0.30321   0.32031   0.34385   0.34757
     Eigenvalues ---    0.35027   0.35156   0.35850   0.35930   0.35958
     Eigenvalues ---    0.35975   0.35979   0.35982   0.35984   0.36009
     Eigenvalues ---    0.36015   0.36267   0.43443   0.43486   0.43619
     Eigenvalues ---    0.43760   0.46418   0.46575   0.47674   0.47935
     Eigenvalues ---    0.48036   0.48265   0.48306   0.48394   0.48454
     Eigenvalues ---    0.48767   0.64950   0.65744
 RFO step:  Lambda=-1.07209730D-02 EMin= 2.30000000D-03
 Linear search not attempted -- first point.
 Iteration  1 RMS(Cart)=  0.07788056 RMS(Int)=  0.00100158
 Iteration  2 RMS(Cart)=  0.00176742 RMS(Int)=  0.00012760
 Iteration  3 RMS(Cart)=  0.00000141 RMS(Int)=  0.00012760
 Iteration  4 RMS(Cart)=  0.00000000 RMS(Int)=  0.00012760
 Variable       Old X    -DE/DX   Delta X   Delta X   Delta X     New X
                                 (Linear)    (Quad)   (Total)
    R1        2.90926   0.00470   0.00000   0.00711   0.00711   2.91637
    R2        1.90362   0.01037   0.00000   0.02185   0.02185   1.92547
    R3        3.41996  -0.00241   0.00000  -0.00911  -0.00911   3.41085
    R4        3.48931  -0.00614   0.00000  -0.02576  -0.02576   3.46355
    R5        2.90365   0.00095   0.00000   0.00142   0.00142   2.90507
    R6        2.60913   0.01183   0.00000   0.02388   0.02388   2.63301
    R7        2.61247   0.00962   0.00000   0.01950   0.01950   2.63197
    R8        2.61738   0.00922   0.00000   0.01880   0.01880   2.63618
    R9        2.03667   0.01016   0.00000   0.02720   0.02720   2.06386
   R10        2.61930   0.00984   0.00000   0.01990   0.01990   2.63920
   R11        2.04059   0.00916   0.00000   0.02469   0.02469   2.06527
   R12        2.61977   0.00980   0.00000   0.01975   0.01974   2.63952
   R13        2.04115   0.00913   0.00000   0.02465   0.02465   2.06580
   R14        2.61584   0.00917   0.00000   0.01848   0.01848   2.63432
   R15        2.04068   0.00901   0.00000   0.02430   0.02430   2.06498
   R16        2.04120   0.00999   0.00000   0.02697   0.02697   2.06817
   R17        2.87329   0.00398   0.00000   0.01267   0.01267   2.88596
   R18        2.05423   0.00850   0.00000   0.02346   0.02346   2.07769
   R19        2.05631   0.00749   0.00000   0.02073   0.02073   2.07704
   R20        2.84087   0.00567   0.00000   0.01713   0.01713   2.85800
   R21        2.06071   0.00541   0.00000   0.01511   0.01511   2.07582
   R22        2.06685   0.00561   0.00000   0.01584   0.01584   2.08269
   R23        2.62540   0.01040   0.00000   0.02138   0.02138   2.64677
   R24        2.62395   0.01083   0.00000   0.02226   0.02226   2.64622
   R25        2.61369   0.01006   0.00000   0.02022   0.02021   2.63390
   R26        2.04316   0.00922   0.00000   0.02497   0.02497   2.06814
   R27        2.61634   0.01031   0.00000   0.02089   0.02089   2.63723
   R28        2.04147   0.00899   0.00000   0.02427   0.02427   2.06573
   R29        2.61610   0.01005   0.00000   0.02041   0.02041   2.63651
   R30        2.04106   0.00908   0.00000   0.02449   0.02449   2.06556
   R31        2.61598   0.01082   0.00000   0.02197   0.02197   2.63795
   R32        2.04191   0.00894   0.00000   0.02415   0.02415   2.06606
   R33        2.04109   0.00854   0.00000   0.02306   0.02306   2.06415
   R34        1.90188   0.01048   0.00000   0.02199   0.02199   1.92387
    A1        1.98220  -0.01217   0.00000  -0.07128  -0.07128   1.91092
    A2        1.96768  -0.00165   0.00000  -0.01063  -0.01067   1.95701
    A3        1.77478  -0.00347   0.00000  -0.02255  -0.02249   1.75229
    A4        2.17993   0.00457   0.00000   0.03026   0.03021   2.21013
    A5        1.71569   0.00324   0.00000   0.01030   0.01025   1.72594
    A6        1.77279  -0.00139   0.00000  -0.00224  -0.00224   1.77055
    A7        2.00398  -0.00139   0.00000  -0.00880  -0.00870   1.99528
    A8        2.10154   0.00246   0.00000   0.00899   0.00897   2.11051
    A9        2.06333  -0.00442   0.00000  -0.01741  -0.01743   2.04590
   A10        2.11831   0.00196   0.00000   0.00843   0.00842   2.12673
   A11        2.07886  -0.00191   0.00000  -0.00743  -0.00742   2.07144
   A12        2.06791   0.00143   0.00000   0.00646   0.00646   2.07437
   A13        2.13629   0.00048   0.00000   0.00091   0.00090   2.13719
   A14        2.09472   0.00066   0.00000   0.00289   0.00289   2.09760
   A15        2.09354  -0.00064   0.00000  -0.00326  -0.00327   2.09027
   A16        2.09493  -0.00002   0.00000   0.00037   0.00036   2.09530
   A17        2.10101   0.00004   0.00000  -0.00049  -0.00050   2.10051
   A18        2.09186  -0.00006   0.00000   0.00001   0.00001   2.09186
   A19        2.09030   0.00002   0.00000   0.00047   0.00047   2.09077
   A20        2.09016   0.00087   0.00000   0.00325   0.00325   2.09341
   A21        2.09712  -0.00011   0.00000   0.00029   0.00029   2.09741
   A22        2.09589  -0.00076   0.00000  -0.00356  -0.00356   2.09233
   A23        2.08326  -0.00162   0.00000  -0.00669  -0.00669   2.07658
   A24        2.07336   0.00134   0.00000   0.00640   0.00639   2.07975
   A25        2.12648   0.00028   0.00000   0.00020   0.00019   2.12667
   A26        1.91816   0.00771   0.00000   0.03679   0.03664   1.95480
   A27        1.85831  -0.00217   0.00000  -0.00348  -0.00404   1.85427
   A28        1.84019  -0.00476   0.00000  -0.03442  -0.03452   1.80567
   A29        1.94797  -0.00115   0.00000   0.00776   0.00754   1.95551
   A30        1.96559  -0.00031   0.00000   0.00325   0.00368   1.96926
   A31        1.92745   0.00053   0.00000  -0.01183  -0.01209   1.91536
   A32        1.92824   0.01011   0.00000   0.04909   0.04885   1.97708
   A33        1.88213  -0.00162   0.00000   0.00374   0.00302   1.88515
   A34        1.90848  -0.00446   0.00000  -0.02905  -0.02891   1.87957
   A35        1.91470  -0.00223   0.00000   0.00372   0.00302   1.91772
   A36        1.92572  -0.00252   0.00000  -0.01242  -0.01200   1.91372
   A37        1.90389   0.00065   0.00000  -0.01554  -0.01570   1.88819
   A38        2.10365   0.00042   0.00000   0.00170   0.00170   2.10534
   A39        2.10396   0.00110   0.00000   0.00433   0.00433   2.10828
   A40        2.07504  -0.00152   0.00000  -0.00607  -0.00606   2.06898
   A41        2.10558   0.00119   0.00000   0.00477   0.00476   2.11034
   A42        2.08706  -0.00043   0.00000  -0.00140  -0.00141   2.08565
   A43        2.09054  -0.00076   0.00000  -0.00337  -0.00337   2.08717
   A44        2.09585   0.00004   0.00000  -0.00008  -0.00008   2.09577
   A45        2.09257  -0.00005   0.00000  -0.00010  -0.00010   2.09247
   A46        2.09476   0.00000   0.00000   0.00018   0.00018   2.09494
   A47        2.08905  -0.00058   0.00000  -0.00254  -0.00254   2.08651
   A48        2.09689   0.00022   0.00000   0.00084   0.00083   2.09772
   A49        2.09724   0.00036   0.00000   0.00170   0.00169   2.09894
   A50        2.09675   0.00032   0.00000   0.00150   0.00150   2.09825
   A51        2.09479  -0.00011   0.00000  -0.00048  -0.00049   2.09430
   A52        2.09164  -0.00020   0.00000  -0.00101  -0.00101   2.09063
   A53        2.10405   0.00054   0.00000   0.00233   0.00231   2.10636
   A54        2.08147  -0.00090   0.00000  -0.00492  -0.00494   2.07653
   A55        2.09758   0.00035   0.00000   0.00243   0.00241   2.09999
   A56        1.99817  -0.01139   0.00000  -0.06674  -0.06674   1.93143
    D1        1.55537  -0.00193   0.00000  -0.02982  -0.02989   1.52547
    D2       -2.90787  -0.00048   0.00000  -0.03252  -0.03232  -2.94020
    D3       -0.60695  -0.00236   0.00000  -0.04386  -0.04399  -0.65094
    D4       -2.71421  -0.00212   0.00000  -0.02139  -0.02137  -2.73558
    D5        0.42747  -0.00238   0.00000  -0.03114  -0.03108   0.39639
    D6        1.71112   0.00065   0.00000   0.00183   0.00182   1.71294
    D7       -1.43038   0.00040   0.00000  -0.00793  -0.00789  -1.43828
    D8       -0.34093   0.00151   0.00000   0.00856   0.00848  -0.33245
    D9        2.80075   0.00126   0.00000  -0.00119  -0.00123   2.79952
   D10        0.88027   0.00179   0.00000   0.04552   0.04576   0.92603
   D11       -1.23214   0.00014   0.00000   0.01757   0.01775  -1.21439
   D12        3.00298   0.00280   0.00000   0.04905   0.04890   3.05188
   D13        2.89456   0.00012   0.00000   0.03153   0.03167   2.92623
   D14        0.78215  -0.00153   0.00000   0.00358   0.00366   0.78581
   D15       -1.26592   0.00113   0.00000   0.03506   0.03482  -1.23111
   D16       -1.52270  -0.00017   0.00000   0.03184   0.03191  -1.49079
   D17        2.64808  -0.00182   0.00000   0.00389   0.00390   2.65198
   D18        0.60001   0.00084   0.00000   0.03537   0.03505   0.63506
   D19       -0.67956  -0.00161   0.00000  -0.04474  -0.04459  -0.72415
   D20       -2.92416  -0.00146   0.00000  -0.05154  -0.05163  -2.97579
   D21        1.52821  -0.00398   0.00000  -0.05926  -0.05932   1.46889
   D22       -3.13375  -0.00011   0.00000  -0.00434  -0.00442  -3.13817
   D23        0.02444   0.00003   0.00000  -0.00083  -0.00089   0.02355
   D24        0.00775   0.00016   0.00000   0.00573   0.00574   0.01350
   D25       -3.11725   0.00029   0.00000   0.00924   0.00928  -3.10797
   D26        3.13319   0.00013   0.00000   0.00503   0.00498   3.13818
   D27       -0.02176  -0.00011   0.00000  -0.00164  -0.00169  -0.02346
   D28       -0.00831  -0.00012   0.00000  -0.00482  -0.00483  -0.01313
   D29        3.11992  -0.00036   0.00000  -0.01149  -0.01150   3.10842
   D30       -0.00059  -0.00009   0.00000  -0.00331  -0.00331  -0.00390
   D31       -3.14054   0.00006   0.00000   0.00126   0.00127  -3.13928
   D32        3.12373  -0.00022   0.00000  -0.00691  -0.00693   3.11681
   D33       -0.01622  -0.00007   0.00000  -0.00234  -0.00235  -0.01857
   D34       -0.00591   0.00001   0.00000   0.00015   0.00016  -0.00575
   D35       -3.14114   0.00009   0.00000   0.00279   0.00280  -3.13834
   D36        3.13404  -0.00013   0.00000  -0.00443  -0.00443   3.12961
   D37       -0.00118  -0.00006   0.00000  -0.00179  -0.00179  -0.00298
   D38        0.00536   0.00002   0.00000   0.00078   0.00078   0.00614
   D39       -3.13271   0.00016   0.00000   0.00521   0.00520  -3.12751
   D40        3.14059  -0.00006   0.00000  -0.00186  -0.00185   3.13873
   D41        0.00252   0.00008   0.00000   0.00257   0.00256   0.00508
   D42        0.00167   0.00003   0.00000   0.00148   0.00146   0.00313
   D43       -3.12614   0.00027   0.00000   0.00831   0.00827  -3.11786
   D44        3.13974  -0.00011   0.00000  -0.00294  -0.00294   3.13680
   D45        0.01193   0.00013   0.00000   0.00390   0.00388   0.01581
   D46        1.02010  -0.00018   0.00000   0.00567   0.00586   1.02596
   D47       -1.07231  -0.00239   0.00000  -0.02993  -0.03006  -1.10237
   D48       -3.14039   0.00025   0.00000   0.00271   0.00250  -3.13789
   D49        3.07770   0.00135   0.00000   0.02969   0.03006   3.10776
   D50        0.98529  -0.00086   0.00000  -0.00591  -0.00586   0.97943
   D51       -1.08278   0.00178   0.00000   0.02673   0.02670  -1.05609
   D52       -1.02587   0.00092   0.00000   0.02255   0.02271  -1.00316
   D53       -3.11828  -0.00129   0.00000  -0.01305  -0.01321  -3.13149
   D54        1.09683   0.00134   0.00000   0.01959   0.01935   1.11617
   D55        1.25941  -0.00143   0.00000  -0.03123  -0.03136   1.22804
   D56       -1.84639  -0.00137   0.00000  -0.02981  -0.02994  -1.87634
   D57       -2.95108   0.00139   0.00000   0.00581   0.00596  -2.94512
   D58        0.22631   0.00145   0.00000   0.00723   0.00738   0.23369
   D59       -0.85308  -0.00081   0.00000  -0.01889  -0.01891  -0.87199
   D60        2.32431  -0.00075   0.00000  -0.01748  -0.01749   2.30681
   D61       -3.09857   0.00030   0.00000   0.00957   0.00956  -3.08900
   D62        0.04366   0.00003   0.00000   0.00165   0.00164   0.04530
   D63        0.00782   0.00029   0.00000   0.00838   0.00838   0.01620
   D64       -3.13314   0.00002   0.00000   0.00047   0.00046  -3.13269
   D65        3.09870  -0.00034   0.00000  -0.01045  -0.01044   3.08825
   D66       -0.02876   0.00007   0.00000   0.00182   0.00181  -0.02695
   D67       -0.00768  -0.00032   0.00000  -0.00921  -0.00920  -0.01688
   D68       -3.13513   0.00009   0.00000   0.00306   0.00305  -3.13209
   D69       -0.00149  -0.00007   0.00000  -0.00188  -0.00189  -0.00338
   D70        3.13835  -0.00009   0.00000  -0.00244  -0.00244   3.13591
   D71        3.13947   0.00020   0.00000   0.00605   0.00604  -3.13768
   D72       -0.00387   0.00018   0.00000   0.00550   0.00549   0.00161
   D73       -0.00507  -0.00014   0.00000  -0.00393  -0.00394  -0.00901
   D74        3.13741   0.00004   0.00000   0.00104   0.00104   3.13845
   D75        3.13828  -0.00012   0.00000  -0.00337  -0.00338   3.13489
   D76       -0.00243   0.00005   0.00000   0.00160   0.00159  -0.00084
   D77        0.00520   0.00011   0.00000   0.00310   0.00310   0.00830
   D78       -3.13983   0.00018   0.00000   0.00525   0.00526  -3.13457
   D79       -3.13728  -0.00006   0.00000  -0.00188  -0.00188  -3.13916
   D80        0.00088   0.00001   0.00000   0.00028   0.00028   0.00115
   D81        0.00123   0.00012   0.00000   0.00356   0.00358   0.00481
   D82        3.12855  -0.00030   0.00000  -0.00888  -0.00890   3.11966
   D83       -3.13694   0.00005   0.00000   0.00141   0.00143  -3.13551
   D84       -0.00961  -0.00037   0.00000  -0.01104  -0.01105  -0.02066
         Item               Value     Threshold  Converged?
[...]
     7  C   -0.000000   0.000000  -0.000000   0.000005  -0.001885   0.000011
     8  C   -0.000003   0.000001  -0.000001   0.000315   0.019375  -0.005445
     9  C    0.004921  -0.001975   0.005702  -0.015532  -0.054226   0.013626
    10  C    0.006370  -0.000435   0.014727  -0.089675  -0.008815  -0.001381
    11  C    0.107887  -0.169392   0.150963   0.147310   0.015818   0.001064
    12  C    0.411092   0.075508  -0.140579   0.077524  -0.007223  -0.000013
    13  C    4.923378   0.419250   0.072082  -0.155922   0.002526   0.000023
    14  C    0.419250   4.942809   0.392745   0.113547  -0.000281  -0.000054
    15  C    0.072082   0.392745   5.042001   0.260397  -0.000569   0.000283
    16  C   -0.155922   0.113547   0.260397   5.410984  -0.004228  -0.000593
    17  N    0.002526  -0.000281  -0.000569  -0.004228   6.892927  -0.002835
    18  H    0.000023  -0.000054   0.000283  -0.000593  -0.002835   0.490685
    19  H   -0.000003  -0.000005   0.000006  -0.000114   0.027064   0.000011
    20  H    0.000000  -0.000000   0.000000   0.000000  -0.000190   0.000000
    21  H    0.000000  -0.000000   0.000000  -0.000000   0.000002  -0.000000
    22  H    0.000000  -0.000000   0.000000  -0.000000  -0.000000   0.000020
    23  H   -0.000000  -0.000000  -0.000000   0.000104   0.002370  -0.002889
    24  H    0.000018  -0.000008   0.000003  -0.001246   0.003624  -0.000570
    25  H   -0.000223  -0.000006  -0.000025   0.002254   0.007809  -0.000560
    26  H   -0.000402   0.000021   0.001215   0.009649   0.001353  -0.000692
    27  H    0.000694   0.000310  -0.001519   0.004304  -0.000368   0.000026
    28  H   -0.053983   0.012686  -0.004440   0.018712  -0.000640  -0.000000
    29  H    0.425853  -0.052963   0.011657  -0.003265  -0.000001   0.000000
    30  H   -0.050808   0.424877  -0.052411   0.011698  -0.000011  -0.000000
    31  H    0.011948  -0.055225   0.433885  -0.060158  -0.000092   0.000025
    32  H   -0.005478   0.014158  -0.066894   0.450184   0.000162  -0.000837
    33  H   -0.002746   0.003805  -0.007071   0.019765   0.353605   0.000809
              19         20         21         22         23         24
     1  N    0.001124   0.000003   0.000002  -0.000015   0.023796   0.001919
     2  S   -0.000733  -0.000396   0.000062  -0.000363  -0.000394  -0.015392
     3  C   -0.052859   0.010216  -0.002201   0.010486  -0.063837   0.002581
     4  C    0.430214  -0.049314   0.009884  -0.000371   0.004635   0.000465
     5  C   -0.058405   0.422704  -0.048768   0.008427  -0.002008   0.000103
     6  C    0.009222  -0.050215   0.422305  -0.048057   0.008705  -0.000047
     7  C   -0.002468   0.009451  -0.049012   0.423251  -0.052896   0.000419
     8  C    0.008445  -0.000723   0.009852  -0.050552   0.433940  -0.003506
     9  C    0.000717   0.000017   0.000000   0.000064  -0.002000   0.373458
    10  C    0.000266  -0.000002  -0.000000  -0.000001  -0.000402  -0.033742
    11  C   -0.000016   0.000001   0.000000   0.000000  -0.000014   0.015538
    12  C    0.000152  -0.000000  -0.000000   0.000000  -0.000023   0.000124
    13  C   -0.000003   0.000000   0.000000   0.000000  -0.000000   0.000018
    14  C   -0.000005  -0.000000  -0.000000  -0.000000  -0.000000  -0.000008
    15  C    0.000006   0.000000   0.000000   0.000000  -0.000000   0.000003
    16  C   -0.000114   0.000000  -0.000000  -0.000000   0.000104  -0.001246
    17  N    0.027064  -0.000190   0.000002  -0.000000   0.002370   0.003624
    18  H    0.000011   0.000000  -0.000000   0.000020  -0.002889  -0.000570
    19  H    0.485749  -0.006664  -0.000147   0.000072  -0.000287  -0.000059
    20  H   -0.006664   0.548093  -0.007437  -0.000251   0.000091   0.000006
    21  H   -0.000147  -0.007437   0.548989  -0.007355  -0.000176  -0.000001
    22  H    0.000072  -0.000251  -0.007355   0.546309  -0.006414   0.000011
    23  H   -0.000287   0.000091  -0.000176  -0.006414   0.496876   0.000202
    24  H   -0.000059   0.000006  -0.000001   0.000011   0.000202   0.533173
    25  H    0.000619  -0.000004  -0.000000  -0.000001   0.000215  -0.018396
    26  H   -0.000015   0.000000  -0.000000  -0.000001   0.000330  -0.002288
    27  H    0.000008   0.000000  -0.000000   0.000000   0.000046  -0.003728
    28  H   -0.000012  -0.000000  -0.000000  -0.000000   0.000001  -0.000121
    29  H   -0.000000   0.000000   0.000000   0.000000   0.000000  -0.000001
    30  H    0.000000  -0.000000  -0.000000  -0.000000  -0.000000   0.000000
    31  H    0.000000   0.000000   0.000000   0.000000  -0.000000  -0.000001
    32  H   -0.000004  -0.000000  -0.000000  -0.000000   0.000009  -0.000065
    33  H   -0.001010  -0.000004   0.000000  -0.000000  -0.000085  -0.000341
              25         26         27         28         29         30
     1  N    0.004917   0.002833   0.000964   0.000013  -0.000003   0.000004
     2  S   -0.021844   0.000991   0.006008  -0.000257  -0.000018   0.000010
     3  C    0.000866  -0.000013   0.000026   0.000165  -0.000001   0.000000
     4  C   -0.002488  -0.000269  -0.000049  -0.000053   0.000000  -0.000000
     5  C   -0.000071   0.000003  -0.000003   0.000001  -0.000000   0.000000
     6  C    0.000048  -0.000000   0.000001  -0.000000   0.000000  -0.000000
     7  C   -0.000184   0.000007  -0.000000   0.000000  -0.000000   0.000000
     8  C    0.003143   0.000429   0.000001   0.000006   0.000000  -0.000000
     9  C    0.387241  -0.028041  -0.040324  -0.000263   0.000104  -0.000012
    10  C   -0.024817   0.409289   0.393905  -0.003259  -0.000492   0.000126
    11  C   -0.000167  -0.041732  -0.038948  -0.075714   0.013350  -0.002550
    12  C   -0.002331   0.002452   0.000777   0.430885  -0.054052   0.010576
    13  C   -0.000223  -0.000402   0.000694  -0.053983   0.425853  -0.050808
    14  C   -0.000006   0.000021   0.000310   0.012686  -0.052963   0.424877
    15  C   -0.000025   0.001215  -0.001519  -0.004440   0.011657  -0.052411
    16  C    0.002254   0.009649   0.004304   0.018712  -0.003265   0.011698
    17  N    0.007809   0.001353  -0.000368  -0.000640  -0.000001  -0.000011
    18  H   -0.000560  -0.000692   0.000026  -0.000000   0.000000  -0.000000
    19  H    0.000619  -0.000015   0.000008  -0.000012  -0.000000   0.000000
    20  H   -0.000004   0.000000   0.000000  -0.000000   0.000000  -0.000000
    21  H   -0.000000  -0.000000  -0.000000  -0.000000   0.000000  -0.000000
    22  H   -0.000001  -0.000001   0.000000  -0.000000   0.000000  -0.000000
    23  H    0.000215   0.000330   0.000046   0.000001   0.000000  -0.000000
    24  H   -0.018396  -0.002288  -0.003728  -0.000121  -0.000001   0.000000
    25  H    0.524295   0.004297  -0.004094   0.001255   0.000004  -0.000001
    26  H    0.004297   0.504434  -0.019332   0.000352   0.000016  -0.000003
    27  H   -0.004094  -0.019332   0.567735   0.002372  -0.000036  -0.000002
    28  H    0.001255   0.000352   0.002372   0.569771  -0.008570  -0.000290
    29  H    0.000004   0.000016  -0.000036  -0.008570   0.559984  -0.007889
    30  H   -0.000001  -0.000003  -0.000002  -0.000290  -0.007889   0.556821
    31  H    0.000000  -0.000056   0.000016   0.000070  -0.000273  -0.008227
    32  H   -0.000006   0.002680   0.000639  -0.000105   0.000048  -0.000162
    33  H   -0.000537   0.000041   0.000040   0.000199  -0.000049   0.000032
              31         32         33
     1  N   -0.000155   0.018746   0.000101
     2  S   -0.000117   0.003731  -0.027579
     3  C   -0.000008   0.000610   0.009777
     4  C    0.000001  -0.000063  -0.001378
     5  C   -0.000000   0.000001   0.000079
     6  C    0.000000  -0.000000  -0.000008
     7  C   -0.000000   0.000002   0.000056
     8  C   -0.000000   0.000014  -0.000835
     9  C    0.000080  -0.002967   0.001756
    10  C   -0.000352  -0.011981  -0.003684
    11  C    0.014838  -0.067353  -0.013580
    12  C   -0.002775   0.018581   0.002356
    13  C    0.011948  -0.005478  -0.002746
    14  C   -0.055225   0.014158   0.003805
    15  C    0.433885  -0.066894  -0.007071
    16  C   -0.060158   0.450184   0.019765
    17  N   -0.000092   0.000162   0.353605
    18  H    0.000025  -0.000837   0.000809
    19  H    0.000000  -0.000004  -0.001010
    20  H    0.000000  -0.000000  -0.000004
    21  H    0.000000  -0.000000   0.000000
    22  H    0.000000  -0.000000  -0.000000
    23  H   -0.000000   0.000009  -0.000085
    24  H   -0.000001  -0.000065  -0.000341
    25  H    0.000000  -0.000006  -0.000537
    26  H   -0.000056   0.002680   0.000041
    27  H    0.000016   0.000639   0.000040
    28  H    0.000070  -0.000105   0.000199
    29  H   -0.000273   0.000048  -0.000049
    30  H   -0.008227  -0.000162   0.000032
    31  H    0.555634  -0.008048  -0.000315
    32  H   -0.008048   0.520427   0.001210
    33  H   -0.000315   0.001210   0.435030
 Mulliken charges:
               1
     1  N   -0.570196
     2  S    0.455533
     3  C    0.137195
     4  C   -0.210292
     5  C   -0.101690
     6  C   -0.103954
     7  C   -0.108337
     8  C   -0.195972
     9  C   -0.221032
    10  C   -0.197104
    11  C    0.076725
    12  C   -0.175902
    13  C   -0.114351
    14  C   -0.121591
    15  C   -0.099491
    16  C   -0.214976
    17  N   -0.542015
    18  H    0.216544
    19  H    0.159132
    20  H    0.124617
    21  H    0.124001
    22  H    0.124741
    23  H    0.160105
    24  H    0.147867
    25  H    0.138790
    26  H    0.152454
    27  H    0.130531
    28  H    0.111219
    29  H    0.116596
    30  H    0.118221
    31  H    0.119306
    32  H    0.132762
    33  H    0.230561
 Sum of Mulliken charges =  -0.00000
 Mulliken charges with hydrogens summed into heavy atoms:
               1
     1  N   -0.353652
     2  S    0.455533
     3  C    0.137195
     4  C   -0.051159
     5  C    0.022927
     6  C    0.020047
     7  C    0.016405
     8  C   -0.035867
     9  C    0.065625
    10  C    0.085880
    11  C    0.076725
    12  C   -0.064682
    13  C    0.002246
    14  C   -0.003370
    15  C    0.019816
    16  C   -0.082213
    17  N   -0.311454
 Electronic spatial extent (au):  <R**2>=           5172.3889
 Charge=              0.0000 electrons
 Dipole moment (field-independent basis, Debye):
    X=             -1.2284    Y=              0.3870    Z=              1.8566  Tot=              2.2596
 Quadrupole moment (field-independent basis, Debye-Ang):
   XX=            -94.9401   YY=           -107.7107   ZZ=           -105.7910
   XY=              2.4656   XZ=             -3.7306   YZ=              2.3894
 Traceless Quadrupole moment (field-independent basis, Debye-Ang):
   XX=              7.8738   YY=             -4.8967   ZZ=             -2.9771
   XY=              2.4656   XZ=             -3.7306   YZ=              2.3894
 Octapole moment (field-independent basis, Debye-Ang**2):
  XXX=            -72.0288  YYY=             13.9061  ZZZ=             -1.9002  XYY=             -8.5542
  XXY=             24.4501  XXZ=            -14.6127  XZZ=             20.5504  YZZ=            -10.9044
  YYZ=              5.0505  XYZ=              3.9905
 Hexadecapole moment (field-independent basis, Debye-Ang**3):
 XXXX=          -5392.1416 YYYY=           -865.9079 ZZZZ=           -581.2596 XXXY=             90.6587
 XXXZ=           -151.9660 YYYX=             -5.6088 YYYZ=              4.8161 ZZZX=             -4.5125
 ZZZY=             24.9751 XXYY=           -997.0983 XXZZ=          -1083.4105 YYZZ=           -239.7388
 XXYZ=              9.2854 YYXZ=              4.5995 ZZXY=             13.9821
 N-N= 1.298081551595D+03 E-N=-5.056280244447D+03  KE= 1.045814240184D+03
 Breneman (CHELPG) radii used.
 Read replacement radii for each type of atom:
 Atom Element Radius
    1     7    1.70
    2    16    2.00
    3     6    1.50
    4     6    1.50
    5     6    1.50
    6     6    1.50
    7     6    1.50
    8     6    1.50
    9     6    1.50
   10     6    1.50
   11     6    1.50
   12     6    1.50
   13     6    1.50
   14     6    1.50
   15     6    1.50
   16     6    1.50
   17     7    1.70
   18     1    1.45
   19     1    1.45
   20     1    1.45
   21     1    1.45
   22     1    1.45
   23     1    1.45
   24     1    1.45
   25     1    1.45
   26     1    1.45
   27     1    1.45
   28     1    1.45
   29     1    1.45
   30     1    1.45
   31     1    1.45
   32     1    1.45
   33     1    1.45
 Generate Potential Derived Charges using the Breneman model, NDens= 1.
 Grid spacing= 0.300 Box extension= 2.800
 NStep X,Y,Z=   56     36     36   Total possible points=       72576
 Number of Points to Fit=   19575

 **********************************************************************

            Electrostatic Properties Using The SCF Density.

 **********************************************************************

       Atomic Center    1 is at  -0.299236 -1.826547 -0.927131
       Atomic Center    2 is at  -0.468776 -0.367003 -0.411765
       Atomic Center    3 is at  -2.195708  0.083685 -0.184192
       Atomic Center    4 is at  -2.598465  1.416882 -0.178541
       Atomic Center    5 is at  -3.949383  1.705595  0.004879
       Atomic Center    6 is at  -4.872152  0.672769  0.176816
       Atomic Center    7 is at  -4.452486 -0.657573  0.158707
       Atomic Center    8 is at  -3.104751 -0.959013 -0.026028
       Atomic Center    9 is at   0.040537 -0.576630  1.324618
       Atomic Center   10 is at   1.411821 -1.225789  1.441618
       Atomic Center   11 is at   2.501731 -0.466257  0.730761
       Atomic Center   12 is at   3.018561  0.717273  1.269883
       Atomic Center   13 is at   3.984830  1.451313  0.586651
       Atomic Center   14 is at   4.452111  1.009801 -0.651053
       Atomic Center   15 is at   3.950111 -0.171514 -1.194821
       Atomic Center   16 is at   2.982534 -0.904592 -0.508648
       Atomic Center   17 is at   0.083031  0.903555 -1.100588
       Atomic Center   18 is at  -0.489154 -1.815560 -1.933692
       Atomic Center   19 is at  -1.848768  2.193385 -0.339510
       Atomic Center   20 is at  -4.285499  2.745231  0.007962
       Atomic Center   21 is at  -5.929975  0.907047  0.318638
       Atomic Center   22 is at  -5.179076 -1.464206  0.280961
       Atomic Center   23 is at  -2.740099 -1.989252 -0.068734
       Atomic Center   24 is at  -0.735473 -1.182888  1.813481
       Atomic Center   25 is at   0.012286  0.444922  1.732618
       Atomic Center   26 is at   1.341395 -2.245732  1.038925
       Atomic Center   27 is at   1.649212 -1.306509  2.515571
       Atomic Center   28 is at   2.655140  1.071473  2.239294
       Atomic Center   29 is at   4.375539  2.374294  1.021935
       Atomic Center   30 is at   5.208411  1.585552 -1.189756
       Atomic Center   31 is at   4.312484 -0.525531 -2.163106
       Atomic Center   32 is at   2.564545 -1.814898 -0.944705
       Atomic Center   33 is at   1.087123  0.779945 -1.251509
   19575 points will be used for fitting atomic charges
 Fitting point charges to electrostatic potential
 Charges from ESP fit, RMS=   0.00374 RRMS=   0.29391:
 ESP charges:
               1
     1  N   -0.719202
     2  S    0.593942
     3  C    0.071345
     4  C   -0.088222
     5  C   -0.107398
     6  C   -0.071742
     7  C   -0.126612
     8  C   -0.080677
     9  C    0.156580
    10  C   -0.002166
    11  C    0.072704
    12  C   -0.165621
    13  C   -0.073780
    14  C   -0.102492
    15  C   -0.066104
    16  C   -0.157879
    17  N   -0.780870
    18  H    0.304666
    19  H    0.125559
    20  H    0.099997
    21  H    0.097263
    22  H    0.108373
    23  H    0.096941
    24  H   -0.019499
    25  H   -0.030604
    26  H    0.027426
    27  H    0.010447
    28  H    0.115516
    29  H    0.086340
    30  H    0.090674
    31  H    0.084727
    32  H    0.109712
    33  H    0.340656
 Sum of ESP charges =   0.00000
 ESP charges with hydrogens summed into heavy atoms:
               1
     1  N   -0.414536
     2  S    0.593942
     3  C    0.071345
     4  C    0.037337
     5  C   -0.007402
     6  C    0.025522
     7  C   -0.018238
     8  C    0.016265
     9  C    0.106477
    10  C    0.035707
    11  C    0.072704
    12  C   -0.050105
    13  C    0.012560
    14  C   -0.011817
    15  C    0.018623
    16  C   -0.048167
    17  N   -0.440215
 Charge=   0.00000 Dipole=    -1.1343     0.3160     1.9158 Tot=     2.2487
 -----------------------------------------------------------------

              Electrostatic Properties (Atomic Units)

 -----------------------------------------------------------------
    Center     Electric         -------- Electric Field --------
               Potential          X             Y             Z
 -----------------------------------------------------------------
    1 Atom    -18.430277
    2 Atom    -59.082660
    3 Atom    -14.734387
    4 Atom    -14.750490
    5 Atom    -14.750819
    6 Atom    -14.748628
    7 Atom    -14.749652
    8 Atom    -14.748263
    9 Atom    -14.731439
   10 Atom    -14.748098
   11 Atom    -14.751973
   12 Atom    -14.762422
   13 Atom    -14.761645
   14 Atom    -14.762940
   15 Atom    -14.762639
   16 Atom    -14.766465
   17 Atom    -18.433065
   18 Atom     -1.056841
   19 Atom     -1.097124
   20 Atom     -1.093536
   21 Atom     -1.091522
   22 Atom     -1.092092
   23 Atom     -1.090520
   24 Atom     -1.085638
   25 Atom     -1.087954
   26 Atom     -1.113272
   27 Atom     -1.102734
   28 Atom     -1.100214
   29 Atom     -1.102533
   30 Atom     -1.103253
   31 Atom     -1.103913
   32 Atom     -1.108682
   33 Atom     -1.059049
 -----------------------------------------------------------------
 Unable to Open any file for archive entry.
 1\1\GINC-NOTCH232\SP\RPBE1PBE\def2TZVP\C14H16N2S1\U1414944\06-Jun-2025
 \0\\#N Guess=Read Geom=Check Integral(Ultrafine) Density Pop=(ChelpG,R
 eadRadii) NMR pbe1pbe EmpiricalDispersion=GD3BJ def2TZVP\\SDI0241_14\\
 0,1\N,0,1.971489011,-0.3556069566,0.5211063463\S,0,0.579589511,0.30503
 83564,0.2957672536\C,0,0.6949777964,2.0855640279,0.0642071987\C,0,-0.3
 981783974,2.9158186905,0.2994647745\C,0,-0.2502871204,4.2871265738,0.1
 004162383\C,0,0.9727520558,4.8081533077,-0.3244361488\C,0,2.0601918774
 ,3.9627828158,-0.5459788368\C,0,1.9253420316,2.590144353,-0.3483400854
 \C,0,0.2459411865,-0.2210740645,-1.4160309349\C,0,0.3611844058,-1.7293
 806899,-1.5810978842\C,0,-0.5556327105,-2.5076262636,-0.6734140612\C,0
 ,-1.9277012476,-2.5858625067,-0.9376396529\C,0,-2.7854455642,-3.256023
 2027,-0.069045489\C,0,-2.281268767,-3.8622475029,1.0813864822\C,0,-0.9
 152362528,-3.7972791217,1.3514386647\C,0,-0.058543445,-3.1255209858,0.
 4800814315\N,0,-0.6321751815,0.2063482526,1.2524140029\H,0,2.231412778
 4,-0.1871338209,1.4975337578\H,0,-1.3298611466,2.4710288133,0.65307728
 63\H,0,-1.0951043839,4.9552867905,0.2839163138\H,0,1.0813795014,5.8846
 94614,-0.4769122005\H,0,3.0198241583,4.3750981686,-0.8663509198\H,0,2.
 7601180089,1.8977672979,-0.4895873692\H,0,0.9624889211,0.3106331889,-2
 .0583504493\H,0,-0.768165021,0.1569079176,-1.6148959804\H,0,1.40567516
 9,-2.0139008584,-1.3927071883\H,0,0.135725904,-1.9651885123,-2.6345728
 182\H,0,-2.331169436,-2.1106246287,-1.8368910373\H,0,-3.8543852007,-3.
 305216927,-0.2903336831\H,0,-2.9529369556,-4.386425414,1.7653285428\H,
 0,-0.5118180563,-4.2714536985,2.2495644187\H,0,1.0080044109,-3.0463811
 891,0.7030846655\H,0,-0.8228012758,-0.7823077609,1.432631277\\Version=
 ES64L-G16RevC.01\State=1-A\HF=-1050.0974515\RMSD=2.634e-09\Dipole=-0.1
 286093,0.5163543,-0.7121245\Quadrupole=-1.1045303,3.6861889,-2.5816586
 ,3.6899332,0.5431265,-3.9715273\PG=C01 [X(C14H16N2S1)]\\@
 The archive entry for this job was punched.


 When cryptography is outlawed, bayl bhgynjf jvyy unir cevinpl.
 Job cpu time:       0 days  0 hours 52 minutes 58.5 seconds.
 Elapsed time:       0 days  0 hours  3 minutes 37.0 seconds.
 File lengths (MBytes):  RWF=    238 Int=      0 D2E=      0 Chk=     37 Scr=      2
 Normal termination of Gaussian 16 at Fri Jun  6 21:54:26 2025.
