 Entering Gaussian System, Link 0=g16
 Input=SDI0241_15.com
 Output=SDI0241_15.log
 Initial command:
 /uufs/chpc.utah.edu/sys/installdir/gaussian16/C01/AVX/g16/l1.exe "/scratch/general/vast/u1414944/4689595-notchpeak.peaks/Gau-3703691.inp" -scrdir="/scratch/general/vast/u1414944/4689595-notchpeak.peaks/"
 Entering Link 1 = /uufs/chpc.utah.edu/sys/installdir/gaussian16/C01/AVX/g16/l1.exe PID=   3703692.
  
 Copyright (c) 1988-2019, Gaussian, Inc.  All Rights Reserved.
  
 This is part of the Gaussian(R) 16 program.  It is based on
 the Gaussian(R) 09 system (copyright 2009, Gaussian, Inc.),
 the Gaussian(R) 03 system (copyright 2003, Gaussian, Inc.),
 the Gaussian(R) 98 system (copyright 1998, Gaussian, Inc.),
 the Gaussian(R) 94 system (copyright 1995, Gaussian, Inc.),
 the Gaussian 92(TM) system (copyright 1992, Gaussian, Inc.),
 the Gaussian 90(TM) system (copyright 1990, Gaussian, Inc.),
 the Gaussian 88(TM) system (copyright 1988, Gaussian, Inc.),
 the Gaussian 86(TM) system (copyright 1986, Carnegie Mellon
 University), and the Gaussian 82(TM) system (copyright 1983,
 Carnegie Mellon University). Gaussian is a federally registered
 trademark of Gaussian, Inc.
  
 This software contains proprietary and confidential information,
 including trade secrets, belonging to Gaussian, Inc.
  
 This software is provided under written license and may be
 used, copied, transmitted, or stored only in accord with that
 written license.
  
 The following legend is applicable only to US Government
 contracts under FAR:
  
                    RESTRICTED RIGHTS LEGEND
  
 Use, reproduction and disclosure by the US Government is
 subject to restrictions as set forth in subparagraphs (a)
 and (c) of the Commercial Computer Software - Restricted
 Rights clause in FAR 52.227-19.
  
 Gaussian, Inc.
 340 Quinnipiac St., Bldg. 40, Wallingford CT 06492
  
  
 ---------------------------------------------------------------
 Warning -- This program may not be used in any manner that
 competes with the business of Gaussian, Inc. or will provide
 assistance to any competitor of Gaussian, Inc.  The licensee
 of this program is prohibited from giving any competitor of
 Gaussian, Inc. access to this program.  By using this program,
 the user acknowledges that Gaussian, Inc. is engaged in the
 business of creating and licensing software in the field of
 computational chemistry and represents and warrants to the
 licensee that it is not a competitor of Gaussian, Inc. and that
 it will not use this program in any manner prohibited above.
 ---------------------------------------------------------------
  

 Cite this work as:
 Gaussian 16, Revision C.01,
 M. J. Frisch, G. W. Trucks, H. B. Schlegel, G. E. Scuseria, 
 M. A. Robb, J. R. Cheeseman, G. Scalmani, V. Barone, 
 G. A. Petersson, H. Nakatsuji, X. Li, M. Caricato, A. V. Marenich, 
 J. Bloino, B. G. Janesko, R. Gomperts, B. Mennucci, H. P. Hratchian, 
 J. V. Ortiz, A. F. Izmaylov, J. L. Sonnenberg, D. Williams-Young, 
 F. Ding, F. Lipparini, F. Egidi, J. Goings, B. Peng, A. Petrone, 
 T. Henderson, D. Ranasinghe, V. G. Zakrzewski, J. Gao, N. Rega, 
 G. Zheng, W. Liang, M. Hada, M. Ehara, K. Toyota, R. Fukuda, 
 J. Hasegawa, M. Ishida, T. Nakajima, Y. Honda, O. Kitao, H. Nakai, 
 T. Vreven, K. Throssell, J. A. Montgomery, Jr., J. E. Peralta, 
 F. Ogliaro, M. J. Bearpark, J. J. Heyd, E. N. Brothers, K. N. Kudin, 
 V. N. Staroverov, T. A. Keith, R. Kobayashi, J. Normand, 
 K. Raghavachari, A. P. Rendell, J. C. Burant, S. S. Iyengar, 
 J. Tomasi, M. Cossi, J. M. Millam, M. Klene, C. Adamo, R. Cammi, 
 J. W. Ochterski, R. L. Martin, K. Morokuma, O. Farkas, 
 J. B. Foresman, and D. J. Fox, Gaussian, Inc., Wallingford CT, 2019.
 
 ******************************************
 Gaussian 16:  ES64L-G16RevC.01  3-Jul-2019
                 6-Jun-2025 
 ******************************************
 %NProcShared=16
 Will use up to   16 processors via shared memory.
 %Mem=40GB
 %chk=SDI0241_15.chk
 ----------------------------------------------------------------------
 #N OPT FREQ=NORAMAN Integral(Ultrafine) pbe1pbe EmpiricalDispersion=GD
 3BJ def2SVP
 ----------------------------------------------------------------------
 1/18=20,19=15,26=4,38=1/1,3;
 2/9=110,12=2,17=6,18=5,40=1/2;
 3/5=43,7=101,11=2,25=1,30=1,71=1,74=-13,75=-5,124=41/1,2,3;
 4//1;
 5/5=2,38=5/2;
 6/7=2,8=2,9=2,10=2,28=1/1;
 7//1,2,3,16;
 1/18=20,19=15,26=4/3(2);
 2/9=110/2;
 99//99;
 2/9=110/2;
 3/5=43,7=101,11=2,25=1,30=1,71=1,74=-13,75=-5,124=41/1,2,3;
 4/5=5,16=3,69=1/1;
 5/5=2,38=5/2;
 7//1,2,3,16;
 1/18=20,19=15,26=4/3(-5);
 2/9=110/2;
 6/7=2,8=2,9=2,10=2,19=2,28=1/1;
 99/9=1/99;
 ----------
 SDI0241_15
 ----------
 Symbolic Z-matrix:
 Charge =  0 Multiplicity = 1
 N                     3.37444   0.69783   0.26358 
 S                     2.04134  -0.04665   0.41212 
 C                     0.63586   1.05337   0.00563 
 C                    -0.34648   1.23272   0.95906 
 C                    -1.3994    2.09166   0.69931 
 C                    -1.45494   2.76817  -0.50873 
 C                    -0.45346   2.59978  -1.45104 
 C                     0.60362   1.74365  -1.19059 
 C                     1.84744  -1.46319  -0.77649 
 C                     0.52879  -1.52724  -1.52582 
 C                    -0.70156  -1.4482   -0.65986 
 C                    -1.83969  -0.82348  -1.15739 
 C                    -2.99188  -0.73849  -0.39862 
 C                    -3.02423  -1.28431   0.87291 
 C                    -1.90063  -1.91955   1.37132 
 C                    -0.74744  -2.0064    0.61071 
 N                     1.8642   -0.72013   1.76826 
 H                     3.47268   1.22478  -0.58863 
 H                    -0.27482   0.68054   1.88343 
 H                    -2.17613   2.23117   1.43572 
 H                    -2.27877   3.43489  -0.71601 
 H                    -0.49383   3.13661  -2.38755 
 H                     1.39605   1.61531  -1.91471 
 H                     1.99767  -2.32905  -0.13817 
 H                     2.68433  -1.38439  -1.46904 
 H                     0.50656  -2.47601  -2.07627 
 H                     0.48447  -0.72799  -2.27006 
 H                    -1.81952  -0.38885  -2.14742 
 H                    -3.86366  -0.24246  -0.79978 
 H                    -3.92121  -1.21524   1.47067 
 H                    -1.91772  -2.34984   2.36175 
 H                     0.12184  -2.48753   1.02746 
 H                     2.34207  -0.24689   2.5165 
 

 GradGradGradGradGradGradGradGradGradGradGradGradGradGradGradGradGradGrad
 Berny optimization.
 Initialization pass.
                           ----------------------------
                           !    Initial Parameters    !
                           ! (Angstroms and Degrees)  !
 --------------------------                            --------------------------
 ! Name  Definition              Value          Derivative Info.                !
 --------------------------------------------------------------------------------
 ! R1    R(1,2)                  1.5341         estimate D2E/DX2                !
 ! R2    R(1,18)                 1.0068         estimate D2E/DX2                !
 ! R3    R(2,3)                  1.8305         estimate D2E/DX2                !
 ! R4    R(2,9)                  1.8593         estimate D2E/DX2                !
 ! R5    R(2,17)                 1.5245         estimate D2E/DX2                !
 ! R6    R(3,4)                  1.3806         estimate D2E/DX2                !
 ! R7    R(3,8)                  1.3815         estimate D2E/DX2                !
 ! R8    R(4,5)                  1.3834         estimate D2E/DX2                !
 ! R9    R(4,19)                 1.0791         estimate D2E/DX2                !
 ! R10   R(5,6)                  1.3857         estimate D2E/DX2                !
 ! R11   R(5,20)                 1.0794         estimate D2E/DX2                !
 ! R12   R(6,7)                  1.3854         estimate D2E/DX2                !
 ! R13   R(6,21)                 1.0799         estimate D2E/DX2                !
 ! R14   R(7,8)                  1.385          estimate D2E/DX2                !
 ! R15   R(7,22)                 1.0802         estimate D2E/DX2                !
 ! R16   R(8,23)                 1.0811         estimate D2E/DX2                !
 ! R17   R(9,10)                 1.518          estimate D2E/DX2                !
 ! R18   R(9,24)                 1.0862         estimate D2E/DX2                !
 ! R19   R(9,25)                 1.0891         estimate D2E/DX2                !
 ! R20   R(10,11)                1.5066         estimate D2E/DX2                !
 ! R21   R(10,26)                1.0971         estimate D2E/DX2                !
 ! R22   R(10,27)                1.093          estimate D2E/DX2                !
 ! R23   R(11,12)                1.3904         estimate D2E/DX2                !
 ! R24   R(11,16)                1.3885         estimate D2E/DX2                !
 ! R25   R(12,13)                1.3822         estimate D2E/DX2                !
 ! R26   R(12,28)                1.0814         estimate D2E/DX2                !
 ! R27   R(13,14)                1.3841         estimate D2E/DX2                !
 ! R28   R(13,29)                1.0803         estimate D2E/DX2                !
 ! R29   R(14,15)                1.3836         estimate D2E/DX2                !
 ! R30   R(14,30)                1.0801         estimate D2E/DX2                !
 ! R31   R(15,16)                1.3842         estimate D2E/DX2                !
 ! R32   R(15,31)                1.08           estimate D2E/DX2                !
 ! R33   R(16,32)                1.0774         estimate D2E/DX2                !
 ! R34   R(17,33)                1.0061         estimate D2E/DX2                !
 ! A1    A(2,1,18)             114.8829         estimate D2E/DX2                !
 ! A2    A(1,2,3)              110.7372         estimate D2E/DX2                !
 ! A3    A(1,2,9)              113.481          estimate D2E/DX2                !
 ! A4    A(1,2,17)             113.6715         estimate D2E/DX2                !
 ! A5    A(3,2,9)              103.6393         estimate D2E/DX2                !
 ! A6    A(3,2,17)             111.9511         estimate D2E/DX2                !
 ! A7    A(9,2,17)             102.7086         estimate D2E/DX2                !
 ! A8    A(2,3,4)              118.1005         estimate D2E/DX2                !
 ! A9    A(2,3,8)              120.6959         estimate D2E/DX2                !
 ! A10   A(4,3,8)              121.0947         estimate D2E/DX2                !
 ! A11   A(3,4,5)              119.5063         estimate D2E/DX2                !
 ! A12   A(3,4,19)             118.5429         estimate D2E/DX2                !
 ! A13   A(5,4,19)             121.9428         estimate D2E/DX2                !
 ! A14   A(4,5,6)              119.8224         estimate D2E/DX2                !
 ! A15   A(4,5,20)             119.9894         estimate D2E/DX2                !
 ! A16   A(6,5,20)             120.188          estimate D2E/DX2                !
 ! A17   A(5,6,7)              120.3093         estimate D2E/DX2                !
 ! A18   A(5,6,21)             119.9562         estimate D2E/DX2                !
 ! A19   A(7,6,21)             119.7334         estimate D2E/DX2                !
 ! A20   A(6,7,8)              119.9315         estimate D2E/DX2                !
 ! A21   A(6,7,22)             120.1504         estimate D2E/DX2                !
 ! A22   A(8,7,22)             119.918          estimate D2E/DX2                !
 ! A23   A(3,8,7)              119.3085         estimate D2E/DX2                !
 ! A24   A(3,8,23)             120.236          estimate D2E/DX2                !
 ! A25   A(7,8,23)             120.4555         estimate D2E/DX2                !
 ! A26   A(2,9,10)             115.9952         estimate D2E/DX2                !
 ! A27   A(2,9,24)             102.546          estimate D2E/DX2                !
 ! A28   A(2,9,25)             105.7383         estimate D2E/DX2                !
 ! A29   A(10,9,24)            112.1235         estimate D2E/DX2                !
 ! A30   A(10,9,25)            110.8943         estimate D2E/DX2                !
 ! A31   A(24,9,25)            108.9712         estimate D2E/DX2                !
 ! A32   A(9,10,11)            115.0516         estimate D2E/DX2                !
 ! A33   A(9,10,26)            107.563          estimate D2E/DX2                !
 ! A34   A(9,10,27)            109.9063         estimate D2E/DX2                !
 ! A35   A(11,10,26)           108.494          estimate D2E/DX2                !
 ! A36   A(11,10,27)           108.6561         estimate D2E/DX2                !
 ! A37   A(26,10,27)           106.8529         estimate D2E/DX2                !
 ! A38   A(10,11,12)           119.1023         estimate D2E/DX2                !
 ! A39   A(10,11,16)           122.1294         estimate D2E/DX2                !
 ! A40   A(12,11,16)           118.7518         estimate D2E/DX2                !
 ! A41   A(11,12,13)           120.9            estimate D2E/DX2                !
 ! A42   A(11,12,28)           119.5324         estimate D2E/DX2                !
 ! A43   A(13,12,28)           119.5643         estimate D2E/DX2                !
 ! A44   A(12,13,14)           119.9698         estimate D2E/DX2                !
 ! A45   A(12,13,29)           119.8071         estimate D2E/DX2                !
 ! A46   A(14,13,29)           120.2228         estimate D2E/DX2                !
 ! A47   A(13,14,15)           119.5374         estimate D2E/DX2                !
 ! A48   A(13,14,30)           120.172          estimate D2E/DX2                !
 ! A49   A(15,14,30)           120.2906         estimate D2E/DX2                !
 ! A50   A(14,15,16)           120.4925         estimate D2E/DX2                !
 ! A51   A(14,15,31)           120.0276         estimate D2E/DX2                !
 ! A52   A(16,15,31)           119.4797         estimate D2E/DX2                !
 ! A53   A(11,16,15)           120.3396         estimate D2E/DX2                !
 ! A54   A(11,16,32)           120.4511         estimate D2E/DX2                !
 ! A55   A(15,16,32)           119.1868         estimate D2E/DX2                !
 ! A56   A(2,17,33)            113.4908         estimate D2E/DX2                !
 ! D1    D(18,1,2,3)           -47.1874         estimate D2E/DX2                !
 ! D2    D(18,1,2,9)            68.8772         estimate D2E/DX2                !
 ! D3    D(18,1,2,17)         -174.2296         estimate D2E/DX2                !
 ! D4    D(1,2,3,4)           -123.4998         estimate D2E/DX2                !
 ! D5    D(1,2,3,8)             52.7469         estimate D2E/DX2                !
 ! D6    D(9,2,3,4)            114.4757         estimate D2E/DX2                !
 ! D7    D(9,2,3,8)            -69.2775         estimate D2E/DX2                !
 ! D8    D(17,2,3,4)             4.485          estimate D2E/DX2                !
 ! D9    D(17,2,3,8)          -179.2682         estimate D2E/DX2                !
 ! D10   D(1,2,9,10)          -132.1172         estimate D2E/DX2                !
 ! D11   D(1,2,9,24)           105.3516         estimate D2E/DX2                !
 ! D12   D(1,2,9,25)            -8.7735         estimate D2E/DX2                !
 ! D13   D(3,2,9,10)           -11.9407         estimate D2E/DX2                !
 ! D14   D(3,2,9,24)          -134.4719         estimate D2E/DX2                !
 ! D15   D(3,2,9,25)           111.403          estimate D2E/DX2                !
 ! D16   D(17,2,9,10)          104.7417         estimate D2E/DX2                !
 ! D17   D(17,2,9,24)          -17.7895         estimate D2E/DX2                !
 ! D18   D(17,2,9,25)         -131.9146         estimate D2E/DX2                !
 ! D19   D(1,2,17,33)           29.7785         estimate D2E/DX2                !
 ! D20   D(3,2,17,33)          -96.6279         estimate D2E/DX2                !
 ! D21   D(9,2,17,33)          152.792          estimate D2E/DX2                !
 ! D22   D(2,3,4,5)            177.9135         estimate D2E/DX2                !
 ! D23   D(2,3,4,19)            -3.0971         estimate D2E/DX2                !
 ! D24   D(8,3,4,5)              1.6825         estimate D2E/DX2                !
 ! D25   D(8,3,4,19)          -179.3281         estimate D2E/DX2                !
 ! D26   D(2,3,8,7)           -178.0285         estimate D2E/DX2                !
 ! D27   D(2,3,8,23)             1.9903         estimate D2E/DX2                !
 ! D28   D(4,3,8,7)             -1.8951         estimate D2E/DX2                !
 ! D29   D(4,3,8,23)           178.1238         estimate D2E/DX2                !
 ! D30   D(3,4,5,6)             -0.3579         estimate D2E/DX2                !
 ! D31   D(3,4,5,20)           179.4718         estimate D2E/DX2                !
 ! D32   D(19,4,5,6)          -179.3117         estimate D2E/DX2                !
 ! D33   D(19,4,5,20)            0.518          estimate D2E/DX2                !
 ! D34   D(4,5,6,7)             -0.7256         estimate D2E/DX2                !
 ! D35   D(4,5,6,21)           179.654          estimate D2E/DX2                !
 ! D36   D(20,5,6,7)           179.445          estimate D2E/DX2                !
 ! D37   D(20,5,6,21)           -0.1753         estimate D2E/DX2                !
 ! D38   D(5,6,7,8)              0.5091         estimate D2E/DX2                !
 ! D39   D(5,6,7,22)          -179.3376         estimate D2E/DX2                !
 ! D40   D(21,6,7,8)          -179.8697         estimate D2E/DX2                !
 ! D41   D(21,6,7,22)            0.2836         estimate D2E/DX2                !
 ! D42   D(6,7,8,3)              0.7864         estimate D2E/DX2                !
 ! D43   D(6,7,8,23)          -179.2325         estimate D2E/DX2                !
 ! D44   D(22,7,8,3)          -179.3666         estimate D2E/DX2                !
 ! D45   D(22,7,8,23)            0.6145         estimate D2E/DX2                !
 ! D46   D(2,9,10,11)          -51.4152         estimate D2E/DX2                !
 ! D47   D(2,9,10,26)         -172.4261         estimate D2E/DX2                !
 ! D48   D(2,9,10,27)           71.5958         estimate D2E/DX2                !
 ! D49   D(24,9,10,11)          65.9152         estimate D2E/DX2                !
 ! D50   D(24,9,10,26)         -55.0958         estimate D2E/DX2                !
 ! D51   D(24,9,10,27)        -171.0738         estimate D2E/DX2                !
 ! D52   D(25,9,10,11)        -172.0235         estimate D2E/DX2                !
 ! D53   D(25,9,10,26)          66.9655         estimate D2E/DX2                !
 ! D54   D(25,9,10,27)         -49.0125         estimate D2E/DX2                !
 ! D55   D(9,10,11,12)         146.859          estimate D2E/DX2                !
 ! D56   D(9,10,11,16)         -34.6375         estimate D2E/DX2                !
 ! D57   D(26,10,11,12)        -92.6393         estimate D2E/DX2                !
 ! D58   D(26,10,11,16)         85.8642         estimate D2E/DX2                !
 ! D59   D(27,10,11,12)         23.1833         estimate D2E/DX2                !
 ! D60   D(27,10,11,16)       -158.3133         estimate D2E/DX2                !
 ! D61   D(10,11,12,13)        179.5281         estimate D2E/DX2                !
 ! D62   D(10,11,12,28)         -1.1394         estimate D2E/DX2                !
 ! D63   D(16,11,12,13)          0.9737         estimate D2E/DX2                !
 ! D64   D(16,11,12,28)       -179.6938         estimate D2E/DX2                !
 ! D65   D(10,11,16,15)       -179.5725         estimate D2E/DX2                !
 ! D66   D(10,11,16,32)          2.1677         estimate D2E/DX2                !
 ! D67   D(12,11,16,15)         -1.064          estimate D2E/DX2                !
 ! D68   D(12,11,16,32)       -179.3238         estimate D2E/DX2                !
 ! D69   D(11,12,13,14)         -0.2529         estimate D2E/DX2                !
 ! D70   D(11,12,13,29)        179.5306         estimate D2E/DX2                !
 ! D71   D(28,12,13,14)       -179.5852         estimate D2E/DX2                !
 ! D72   D(28,12,13,29)          0.1983         estimate D2E/DX2                !
 ! D73   D(12,13,14,15)         -0.3871         estimate D2E/DX2                !
 ! D74   D(12,13,14,30)        179.6808         estimate D2E/DX2                !
 ! D75   D(29,13,14,15)        179.8304         estimate D2E/DX2                !
 ! D76   D(29,13,14,30)         -0.1017         estimate D2E/DX2                !
 ! D77   D(13,14,15,16)          0.293          estimate D2E/DX2                !
 ! D78   D(13,14,15,31)       -179.8866         estimate D2E/DX2                !
 ! D79   D(30,14,15,16)       -179.7749         estimate D2E/DX2                !
 ! D80   D(30,14,15,31)          0.0455         estimate D2E/DX2                !
 ! D81   D(14,15,16,11)          0.4427         estimate D2E/DX2                !
 ! D82   D(14,15,16,32)        178.7244         estimate D2E/DX2                !
 ! D83   D(31,15,16,11)       -179.3787         estimate D2E/DX2                !
 ! D84   D(31,15,16,32)         -1.097          estimate D2E/DX2                !
 --------------------------------------------------------------------------------
 Trust Radius=3.00D-01 FncErr=1.00D-07 GrdErr=1.00D-06 EigMax=2.50D+02 EigMin=1.00D-04
 Number of steps in this run=    184 maximum allowed number of steps=    198.
 GradGradGradGradGradGradGradGradGradGradGradGradGradGradGradGradGradGrad

                          Input orientation:                          
 ---------------------------------------------------------------------
 Center     Atomic      Atomic             Coordinates (Angstroms)
 Number     Number       Type             X           Y           Z
 ---------------------------------------------------------------------
      1          7           0        3.374437    0.697831    0.263579
      2         16           0        2.041336   -0.046649    0.412123
      3          6           0        0.635859    1.053375    0.005629
      4          6           0       -0.346480    1.232722    0.959056
      5          6           0       -1.399395    2.091660    0.699313
      6          6           0       -1.454943    2.768166   -0.508729
      7          6           0       -0.453458    2.599781   -1.451042
      8          6           0        0.603623    1.743649   -1.190591
      9          6           0        1.847440   -1.463190   -0.776488
     10          6           0        0.528793   -1.527245   -1.525822
     11          6           0       -0.701561   -1.448199   -0.659855
     12          6           0       -1.839694   -0.823484   -1.157391
     13          6           0       -2.991879   -0.738490   -0.398615
     14          6           0       -3.024228   -1.284308    0.872912
     15          6           0       -1.900633   -1.919548    1.371317
     16          6           0       -0.747444   -2.006404    0.610708
     17          7           0        1.864200   -0.720129    1.768262
     18          1           0        3.472683    1.224780   -0.588627
     19          1           0       -0.274817    0.680538    1.883428
     20          1           0       -2.176125    2.231171    1.435721
     21          1           0       -2.278774    3.434890   -0.716008
     22          1           0       -0.493831    3.136613   -2.387546
     23          1           0        1.396049    1.615311   -1.914706
     24          1           0        1.997670   -2.329047   -0.138168
     25          1           0        2.684330   -1.384386   -1.469039
     26          1           0        0.506565   -2.476012   -2.076273
     27          1           0        0.484467   -0.727993   -2.270062
     28          1           0       -1.819524   -0.388846   -2.147424
     29          1           0       -3.863658   -0.242460   -0.799778
     30          1           0       -3.921213   -1.215243    1.470670
     31          1           0       -1.917720   -2.349843    2.361746
     32          1           0        0.121838   -2.487528    1.027459
     33          1           0        2.342069   -0.246888    2.516503
 ---------------------------------------------------------------------
                    Distance matrix (angstroms):
                    1          2          3          4          5
     1  N    0.000000
     2  S    1.534104   0.000000
     3  C    2.773582   1.830479   0.000000
     4  C    3.822960   2.763619   1.380644   0.000000
     5  C    4.992204   4.061216   2.387780   1.383427   0.000000
     6  C    5.310900   4.582043   2.752550   2.395970   1.385681
     7  C    4.605443   4.086437   2.387441   2.772880   2.403541
     8  C    3.299357   2.800157   1.381471   2.405146   2.775776
     9  C    2.843145   1.859296   2.900471   3.885015   5.035562
    10  C    4.031204   2.869770   3.002733   3.815513   4.665362
    11  C    4.698078   3.261435   2.913664   3.151872   3.855504
    12  C    5.614332   4.257844   3.317165   3.307117   3.484146
    13  C    6.559840   5.144822   4.066286   3.567504   3.428002
    14  C    6.726297   5.234889   4.428677   3.676030   3.750650
    15  C    5.992005   4.468436   4.139706   3.538666   4.097879
    16  C    4.941993   3.414289   3.412023   3.282386   4.150544
    17  N    2.560370   1.524488   2.785859   3.058684   4.438452
    18  H    1.006768   2.160275   2.903462   4.120849   5.113455
    19  H    3.992651   2.838680   2.120016   1.079123   2.158257
    20  H    5.876546   4.901346   3.367436   2.138156   1.079384
    21  H    6.356876   5.661903   3.832423   3.374781   2.140259
    22  H    5.285794   4.939471   3.367992   3.853085   3.382407
    23  H    3.082322   2.931320   2.140408   3.382497   3.856749
    24  H    3.349459   2.348205   3.649107   4.402856   5.637736
    25  H    2.795325   2.396196   3.509068   4.683024   5.784588
    26  H    4.875743   3.801242   4.099708   4.867814   5.674520
    27  H    4.099297   3.175246   2.893952   3.868085   4.507390
    28  H    5.828467   4.644848   3.569951   3.801258   3.799122
    29  H    7.375967   6.031252   4.751161   4.200024   3.710523
    30  H    7.638287   6.167505   5.297157   4.362682   4.229676
    31  H    6.457364   4.977937   4.863532   4.155852   4.770670
    32  H    4.616213   3.165596   3.721068   3.750234   4.836402
    33  H    2.652159   2.135170   3.302472   3.441393   4.771745
                    6          7          8          9         10
     6  C    0.000000
     7  C    1.385381   0.000000
     8  C    2.398388   1.384996   0.000000
     9  C    5.374179   4.717720   3.464445   0.000000
    10  C    4.839446   4.242964   3.288879   1.518036   0.000000
    11  C    4.285809   4.132030   3.488994   2.551712   1.506624
    12  C    3.669979   3.704946   3.544161   3.761552   2.498150
    13  C    3.830265   4.323799   4.440256   4.907850   3.779929
    14  C    4.560058   5.205359   5.156343   5.146423   4.293821
    15  C    5.070293   5.521264   5.123835   4.343890   3.801240
    16  C    4.954817   5.055114   4.374124   2.992127   2.534391
    17  N    5.326312   5.172741   4.051428   2.651070   3.644960
    18  H    5.164294   4.248407   2.977095   3.146727   4.137446
    19  H    3.387227   3.851506   3.369193   4.021778   4.140420
    20  H    2.142278   3.381842   3.855152   5.893323   5.496636
    21  H    1.079899   2.137630   3.375461   6.404724   5.758560
    22  H    2.142299   1.080213   2.139498   5.406963   4.851793
    23  H    3.381420   2.145889   1.081088   3.313075   3.283142
    24  H    6.167611   5.659064   4.431457   1.086153   2.173952
    25  H    5.941336   5.071452   3.767158   1.089138   2.161012
    26  H    5.814302   5.203482   4.312701   2.124428   1.097110
    27  H    4.368836   3.553107   2.699716   2.151505   1.093006
    28  H    3.575607   3.359014   3.366706   4.059594   2.682710
    29  H    3.866586   4.486864   4.904484   5.840151   4.633728
    30  H    5.086064   5.925886   6.025901   6.195849   5.373905
    31  H    5.886238   6.417179   5.977704   4.981074   4.666399
    32  H    5.698107   5.688114   4.801533   2.698369   2.758079
    33  H    5.714883   5.626714   4.552690   3.545115   4.611689
                   11         12         13         14         15
    11  C    0.000000
    12  C    1.390381   0.000000
    13  C    2.411948   1.382206   0.000000
    14  C    2.787655   2.395330   1.384104   0.000000
    15  C    2.405329   2.756707   2.391313   1.383620   0.000000
    16  C    1.388535   2.391335   2.768362   2.402898   1.384165
    17  N    3.606795   4.721118   5.317631   5.001667   3.971163
    18  H    4.957238   5.721908   6.758779   7.116282   6.526922
    19  H    3.343938   3.735974   3.821490   3.527183   3.109016
    20  H    4.483698   4.020987   3.584569   3.659867   4.160350
    21  H    5.131795   4.303644   4.245745   5.034997   5.759333
    22  H    4.903934   4.359702   5.021206   6.047978   6.455456
    23  H    3.919147   4.122049   5.205077   5.976408   5.844766
    24  H    2.886849   4.246281   5.243406   5.228119   4.200358
    25  H    3.481825   4.569303   5.812258   6.171093   5.419955
    26  H    2.126548   3.013325   4.251191   4.752299   4.241478
    27  H    2.125588   2.578543   3.948089   4.743281   4.513109
    28  H    2.141245   1.081426   2.134244   3.372772   3.838120
    29  H    3.387070   2.135861   1.080266   2.141957   3.373388
    30  H    3.867760   3.375336   2.141303   1.080123   2.142116
    31  H    3.379657   3.836689   3.371924   2.139241   1.079998
    32  H    2.145977   3.374940   3.845524   3.371847   2.128668
    33  H    4.560273   5.596169   6.098409   5.707432   4.702102
                   16         17         18         19         20
    16  C    0.000000
    17  N    3.132909   0.000000
    18  H    5.448709   3.453232   0.000000
    19  H    3.010457   2.559399   4.522280   0.000000
    20  H    4.547397   5.014477   6.084394   2.493969   0.000000
    21  H    5.806275   6.371814   6.162798   4.284784   2.467674
    22  H    5.958563   6.140481   4.756516   4.931683   4.274028
    23  H    4.908065   4.386079   2.494676   4.253400   4.936099
    24  H    2.863664   2.498181   3.874049   4.278861   6.379129
    25  H    4.060706   3.404992   2.864328   4.925393   6.718178
    26  H    3.002156   4.439228   4.970594   5.123826   6.456663
    27  H    3.383900   4.267526   3.945881   4.451062   5.437668
    28  H    3.372409   5.386294   5.748138   4.447187   4.453155
    29  H    3.848605   6.295344   7.484603   4.575074   3.736854
    30  H    3.382052   5.814181   8.053826   4.130443   3.863201
    31  H    2.133924   4.160663   7.109085   3.480104   4.680810
    32  H    1.077410   2.590041   5.255580   3.305549   5.264355
    33  H    4.033986   1.006072   3.617448   2.847630   5.265259
                   21         22         23         24         25
    21  H    0.000000
    22  H    2.463541   0.000000
    23  H    4.272244   2.471757   0.000000
    24  H    7.200336   6.414102   4.367607   0.000000
    25  H    6.958799   5.602124   3.294916   1.770622   0.000000
    26  H    6.674368   5.709574   4.190013   2.449744   2.510585
    27  H    5.232607   3.988238   2.539357   3.065636   2.431437
    28  H    4.108627   3.774120   3.796145   4.729953   4.662189
    29  H    4.005219   5.029401   5.688488   6.256735   6.680423
    30  H    5.394710   6.750661   6.909853   6.233947   7.232129
    31  H    6.562474   7.394893   6.707575   4.645459   6.065137
    32  H    6.624020   6.608499   5.207037   2.214170   3.743767
    33  H    6.734747   6.598493   4.898811   3.391353   4.158797
                   26         27         28         29         30
    26  H    0.000000
    27  H    1.758867   0.000000
    28  H    3.126021   2.332046   0.000000
    29  H    5.071197   4.615590   2.452766   0.000000
    30  H    5.811674   5.800043   4.265047   2.470739   0.000000
    31  H    5.058566   5.463932   4.918106   4.268837   2.468869
    32  H    3.127507   3.755144   4.272380   4.925779   4.261620
    33  H    5.425095   5.156874   6.252297   7.036248   6.423409
                   31         32         33
    31  H    0.000000
    32  H    2.441122   0.000000
    33  H    4.753123   3.488143   0.000000
 Stoichiometry    C14H16N2S
 Framework group  C1[X(C14H16N2S)]
 Deg. of freedom    93
 Full point group                 C1      NOp   1
 Largest Abelian subgroup         C1      NOp   1
 Largest concise Abelian subgroup C1      NOp   1
                         Standard orientation:                         
 ---------------------------------------------------------------------
 Center     Atomic      Atomic             Coordinates (Angstroms)
 Number     Number       Type             X           Y           Z
 ---------------------------------------------------------------------
      1          7           0       -3.449654    0.204383   -0.338855
      2         16           0       -2.034372   -0.387540   -0.347739
      3          6           0       -0.776568    0.938549   -0.247401
      4          6           0        0.176917    1.007198   -1.243561
      5          6           0        1.114927    2.023787   -1.220026
      6          6           0        1.084929    2.965737   -0.204181
      7          6           0        0.111098    2.902751    0.779164
      8          6           0       -0.831392    1.888200    0.754407
      9          6           0       -1.667520   -1.452625    1.131448
     10          6           0       -0.351869   -1.179832    1.837904
     11          6           0        0.860065   -1.157525    0.943122
     12          6           0        1.911439   -0.300973    1.249859
     13          6           0        3.044960   -0.257295    0.460102
     14          6           0        3.146035   -1.077400   -0.650283
     15          6           0        2.110393   -1.942554   -0.955829
     16          6           0        0.976105   -1.987721   -0.163830
     17          7           0       -1.773712   -1.333107   -1.514796
     18          1           0       -3.613352    0.900232    0.370074
     19          1           0        0.175219    0.249597   -2.012029
     20          1           0        1.869108    2.079936   -1.990174
     21          1           0        1.819512    3.756947   -0.180592
     22          1           0        0.083639    3.644599    1.563872
     23          1           0       -1.602522    1.838058    1.510447
     24          1           0       -1.708571   -2.455405    0.716147
     25          1           0       -2.508425   -1.315688    1.809938
     26          1           0       -0.212718   -1.963671    2.592810
     27          1           0       -0.407753   -0.229321    2.374624
     28          1           0        1.836522    0.347496    2.112041
     29          1           0        3.848092    0.420391    0.710495
     30          1           0        4.028138   -1.042251   -1.272637
     31          1           0        2.181713   -2.587298   -1.819319
     32          1           0        0.173618   -2.654372   -0.432909
     33          1           0       -2.305818   -1.109329   -2.338791
 ---------------------------------------------------------------------
 Rotational constants (GHZ):           0.6157525           0.4652776           0.3532734
 Standard basis: def2SVP (5D, 7F)
 There are   339 symmetry adapted cartesian basis functions of A   symmetry.
 There are   322 symmetry adapted basis functions of A   symmetry.
   322 basis functions,   549 primitive gaussians,   339 cartesian basis functions
    65 alpha electrons       65 beta electrons
       nuclear repulsion energy      1384.6790878338 Hartrees.
 NAtoms=   33 NActive=   33 NUniq=   33 SFac= 1.00D+00 NAtFMM=   60 NAOKFM=F Big=F
 Integral buffers will be    131072 words long.
 Raffenetti 2 integral format.
 Two-electron integral symmetry is turned on.
 Nuclear repulsion after empirical dispersion term =     1384.6315850674 Hartrees.
 One-electron integrals computed using PRISM.
   1 Symmetry operations used in ECPInt.
 ECPInt:  NShTT=   11628 NPrTT=   42474 LenC2=   11314 LenP2D=   30480.
 LDataN:  DoStor=T MaxTD1= 4 Len=   56
 NBasis=   322 RedAO= T EigKep=  2.38D-04  NBF=   322
 NBsUse=   322 1.00D-06 EigRej= -1.00D+00 NBFU=   322
 ExpMin= 1.22D-01 ExpMax= 9.18D+03 ExpMxC= 1.38D+03 IAcc=3 IRadAn=         5 AccDes= 0.00D+00
 Harris functional with IExCor= 1009 and IRadAn=       5 diagonalized for initial guess.
 HarFok:  IExCor= 1009 AccDes= 0.00D+00 IRadAn=         5 IDoV= 1 UseB2=F ITyADJ=14
 ICtDFT=  3500011 ScaDFX=  1.000000  1.000000  1.000000  1.000000
 FoFCou: FMM=F IPFlag=           0 FMFlag=      100000 FMFlg1=           0
         NFxFlg=           0 DoJE=T BraDBF=F KetDBF=T FulRan=T
         wScrn=  0.000000 ICntrl=       500 IOpCl=  0 I1Cent=   200000004 NGrid=           0
         NMat0=    1 NMatS0=      1 NMatT0=    0 NMatD0=    1 NMtDS0=    0 NMtDT0=    0
 Petite list used in FoFCou.
 Requested convergence on RMS density matrix=1.00D-08 within 128 cycles.
 Requested convergence on MAX density matrix=1.00D-06.
 Requested convergence on             energy=1.00D-06.
 No special actions if energy rises.
 Integral accuracy reduced to 1.0D-05 until final iterations.
 Initial convergence to 1.0D-05 achieved.  Increase integral accuracy.
 SCF Done:  E(RPBE1PBE) =  -1049.21194091     A.U. after   15 cycles
            NFock= 15  Conv=0.67D-08     -V/T= 2.0069

 **********************************************************************

            Population analysis using the SCF Density.

 **********************************************************************

 Orbital symmetries:
       Occupied  (A) (A) (A) (A) (A) (A) (A) (A) (A) (A) (A) (A)
                 (A) (A) (A) (A) (A) (A) (A) (A) (A) (A) (A) (A)
                 (A) (A) (A) (A) (A) (A) (A) (A) (A) (A) (A) (A)
                 (A) (A) (A) (A) (A) (A) (A) (A) (A) (A) (A) (A)
                 (A) (A) (A) (A) (A) (A) (A) (A) (A) (A) (A) (A)
                 (A) (A) (A) (A) (A)
       Virtual   (A) (A) (A) (A) (A) (A) (A) (A) (A) (A) (A) (A)
                 (A) (A) (A) (A) (A) (A) (A) (A) (A) (A) (A) (A)
                 (A) (A) (A) (A) (A) (A) (A) (A) (A) (A) (A) (A)
                 (A) (A) (A) (A) (A) (A) (A) (A) (A) (A) (A) (A)
                 (A) (A) (A) (A) (A) (A) (A) (A) (A) (A) (A) (A)
                 (A) (A) (A) (A) (A) (A) (A) (A) (A) (A) (A) (A)
                 (A) (A) (A) (A) (A) (A) (A) (A) (A) (A) (A) (A)
                 (A) (A) (A) (A) (A) (A) (A) (A) (A) (A) (A) (A)
                 (A) (A) (A) (A) (A) (A) (A) (A) (A) (A) (A) (A)
                 (A) (A) (A) (A) (A) (A) (A) (A) (A) (A) (A) (A)
                 (A) (A) (A) (A) (A) (A) (A) (A) (A) (A) (A) (A)
                 (A) (A) (A) (A) (A) (A) (A) (A) (A) (A) (A) (A)
                 (A) (A) (A) (A) (A) (A) (A) (A) (A) (A) (A) (A)
                 (A) (A) (A) (A) (A) (A) (A) (A) (A) (A) (A) (A)
                 (A) (A) (A) (A) (A) (A) (A) (A) (A) (A) (A) (A)
                 (A) (A) (A) (A) (A) (A) (A) (A) (A) (A) (A) (A)
                 (A) (A) (A) (A) (A) (A) (A) (A) (A) (A) (A) (A)
                 (A) (A) (A) (A) (A) (A) (A) (A) (A) (A) (A) (A)
                 (A) (A) (A) (A) (A) (A) (A) (A) (A) (A) (A) (A)
                 (A) (A) (A) (A) (A) (A) (A) (A) (A) (A) (A) (A)
                 (A) (A) (A) (A) (A) (A) (A) (A) (A) (A) (A) (A)
                 (A) (A) (A) (A) (A)
 The electronic state is 1-A.
 Alpha  occ. eigenvalues --  -89.17596 -14.33870 -14.33441 -10.26392 -10.26182
 Alpha  occ. eigenvalues --  -10.25703 -10.25337 -10.25128 -10.24908 -10.24719
 Alpha  occ. eigenvalues --  -10.24667 -10.24301 -10.23278 -10.23149 -10.23118
 Alpha  occ. eigenvalues --  -10.23058 -10.22717  -8.15072  -6.09160  -6.09124
 Alpha  occ. eigenvalues --   -6.09084  -1.00230  -0.89566  -0.88252  -0.84481
 Alpha  occ. eigenvalues --   -0.82482  -0.78468  -0.77967  -0.76204  -0.75540
 Alpha  occ. eigenvalues --   -0.68710  -0.65441  -0.63772  -0.62001  -0.60740
 Alpha  occ. eigenvalues --   -0.58906  -0.55606  -0.53629  -0.51496  -0.50468
 Alpha  occ. eigenvalues --   -0.49640  -0.48602  -0.47403  -0.46777  -0.45900
 Alpha  occ. eigenvalues --   -0.45150  -0.44986  -0.43828  -0.43027  -0.40873
 Alpha  occ. eigenvalues --   -0.40755  -0.39339  -0.38199  -0.37379  -0.36951
 Alpha  occ. eigenvalues --   -0.35201  -0.34846  -0.30309  -0.29477  -0.28033
 Alpha  occ. eigenvalues --   -0.27270  -0.26265  -0.25275  -0.24580  -0.23914
 Alpha virt. eigenvalues --   -0.03125  -0.01555  -0.00071   0.00257   0.04406
 Alpha virt. eigenvalues --    0.06617   0.07707   0.07742   0.08221   0.09408
 Alpha virt. eigenvalues --    0.09637   0.10971   0.11823   0.12517   0.12952
 Alpha virt. eigenvalues --    0.13423   0.13906   0.14846   0.15288   0.16263
 Alpha virt. eigenvalues --    0.17433   0.17551   0.18149   0.20038   0.20774
 Alpha virt. eigenvalues --    0.22200   0.24009   0.26175   0.29007   0.29212
 Alpha virt. eigenvalues --    0.30060   0.30606   0.30687   0.31778   0.32612
 Alpha virt. eigenvalues --    0.33053   0.34629   0.36419   0.38617   0.40253
 Alpha virt. eigenvalues --    0.41777   0.42591   0.42942   0.43890   0.44910
 Alpha virt. eigenvalues --    0.45893   0.46591   0.47337   0.47735   0.48306
 Alpha virt. eigenvalues --    0.49271   0.50154   0.50351   0.50518   0.51977
 Alpha virt. eigenvalues --    0.52767   0.53359   0.54513   0.56126   0.57093
 Alpha virt. eigenvalues --    0.59456   0.60582   0.61634   0.62393   0.63541
 Alpha virt. eigenvalues --    0.64249   0.64626   0.65464   0.65820   0.66675
 Alpha virt. eigenvalues --    0.66826   0.67438   0.67644   0.67966   0.68852
 Alpha virt. eigenvalues --    0.69043   0.69579   0.70253   0.70827   0.71348
 Alpha virt. eigenvalues --    0.71909   0.72845   0.73511   0.73610   0.74431
 Alpha virt. eigenvalues --    0.74660   0.75548   0.76363   0.77596   0.77661
 Alpha virt. eigenvalues --    0.78313   0.79265   0.80679   0.81301   0.82945
 Alpha virt. eigenvalues --    0.83577   0.84746   0.85354   0.85495   0.87143
 Alpha virt. eigenvalues --    0.88179   0.88368   0.89601   0.91067   0.93166
 Alpha virt. eigenvalues --    0.96149   0.96502   0.98374   0.99597   1.01917
 Alpha virt. eigenvalues --    1.02516   1.05191   1.06077   1.09100   1.11139
 Alpha virt. eigenvalues --    1.11961   1.13790   1.14534   1.15325   1.16444
 Alpha virt. eigenvalues --    1.21104   1.21958   1.23553   1.24292   1.24932
 Alpha virt. eigenvalues --    1.25613   1.26184   1.27615   1.28471   1.29412
 Alpha virt. eigenvalues --    1.30101   1.30763   1.31639   1.34061   1.35462
 Alpha virt. eigenvalues --    1.36890   1.37954   1.40151   1.45512   1.46637
 Alpha virt. eigenvalues --    1.50427   1.52451   1.53472   1.54982   1.56400
 Alpha virt. eigenvalues --    1.61205   1.66592   1.67800   1.68562   1.69847
 Alpha virt. eigenvalues --    1.70053   1.71244   1.72293   1.72963   1.73778
 Alpha virt. eigenvalues --    1.75610   1.76152   1.76712   1.77552   1.78110
 Alpha virt. eigenvalues --    1.78729   1.79567   1.80594   1.81294   1.81482
 Alpha virt. eigenvalues --    1.82095   1.82579   1.83943   1.84616   1.85715
 Alpha virt. eigenvalues --    1.86159   1.88607   1.90911   1.91670   1.92866
 Alpha virt. eigenvalues --    1.95072   1.96460   1.96914   1.97536   1.98791
 Alpha virt. eigenvalues --    1.99343   2.00929   2.01767   2.02953   2.04231
 Alpha virt. eigenvalues --    2.05383   2.06732   2.08646   2.11836   2.13003
 Alpha virt. eigenvalues --    2.13983   2.15061   2.16544   2.17557   2.18308
 Alpha virt. eigenvalues --    2.19524   2.20632   2.22731   2.25119   2.25835
 Alpha virt. eigenvalues --    2.28117   2.29799   2.30754   2.31488   2.32408
 Alpha virt. eigenvalues --    2.32936   2.34901   2.36086   2.36778   2.37173
 Alpha virt. eigenvalues --    2.38540   2.39452   2.41507   2.43269   2.44712
 Alpha virt. eigenvalues --    2.46456   2.50530   2.52298   2.53015   2.55679
 Alpha virt. eigenvalues --    2.60022   2.60277   2.61887   2.64102   2.64916
 Alpha virt. eigenvalues --    2.65115   2.66356   2.67826   2.68030   2.69020
 Alpha virt. eigenvalues --    2.71952   2.76003   2.77404   2.78285   2.78735
 Alpha virt. eigenvalues --    2.81390   2.85647   2.87077   2.87445   2.89904
 Alpha virt. eigenvalues --    2.92085   2.93281   2.93803   2.97428   2.99004
 Alpha virt. eigenvalues --    3.03890   3.05123   3.07069   3.13760   3.16409
 Alpha virt. eigenvalues --    3.18491   3.24617   3.28582   3.30704   3.33374
 Alpha virt. eigenvalues --    3.66245   3.70261
          Condensed to atoms (all electrons):
               1          2          3          4          5          6
     1  N    6.900984   0.340440  -0.037960  -0.000475  -0.000097  -0.000021
     2  S    0.340440  14.724784   0.048915  -0.028100   0.006238   0.000365
     3  C   -0.037960   0.048915   6.038196   0.268692   0.121499  -0.194214
     4  C   -0.000475  -0.028100   0.268692   5.115693   0.205370   0.117657
     5  C   -0.000097   0.006238   0.121499   0.205370   5.133850   0.234530
     6  C   -0.000021   0.000365  -0.194214   0.117657   0.234530   5.146930
     7  C    0.000040   0.000537   0.102823  -0.140194   0.096237   0.267973
     8  C   -0.000726  -0.029469   0.082245   0.062640  -0.150063   0.094478
     9  C   -0.054295   0.212767  -0.119257   0.003839  -0.000161  -0.000164
    10  C    0.002963  -0.021985   0.033827  -0.002900   0.000641  -0.000052
    11  C    0.000009  -0.009924  -0.021709  -0.009395  -0.001812   0.000064
    12  C   -0.000003   0.000011  -0.004122  -0.001067  -0.004682   0.001260
    13  C   -0.000000   0.000019  -0.001251  -0.003226  -0.001899   0.001170
    14  C    0.000000  -0.000163   0.000412   0.001274   0.000922  -0.000143
    15  C   -0.000004   0.000753  -0.000614  -0.001204  -0.000599  -0.000008
    16  C    0.000126  -0.008367  -0.002777  -0.003634  -0.000130   0.000020
    17  N   -0.067439   0.356848  -0.072792  -0.001010   0.002016  -0.000048
    18  H    0.317372  -0.005551  -0.009973  -0.000570  -0.000076   0.000019
    19  H    0.000810  -0.011359  -0.066243   0.429374  -0.056104   0.012775
    20  H    0.000002  -0.000179   0.017538  -0.073829   0.458069  -0.076329
    21  H    0.000000   0.000019  -0.001632   0.014907  -0.070526   0.451775
    22  H    0.000006  -0.000132   0.018345  -0.002150   0.014892  -0.073354
    23  H    0.001643  -0.002532  -0.098032   0.012661  -0.001157   0.013939
    24  H    0.002487  -0.011848   0.007446   0.000123  -0.000011   0.000004
    25  H    0.009953  -0.005469   0.002679  -0.000330   0.000012   0.000006
    26  H   -0.000127   0.004513   0.000067   0.000018  -0.000013  -0.000008
    27  H    0.000273  -0.008220   0.000466   0.000752   0.000021  -0.000053
    28  H    0.000001   0.000001  -0.001653  -0.000276  -0.000345   0.000772
    29  H   -0.000000   0.000001  -0.000035  -0.000078   0.000115   0.000474
    30  H    0.000000  -0.000001  -0.000005  -0.000045   0.000034  -0.000017
    31  H    0.000000   0.000024  -0.000097  -0.000067   0.000015   0.000003
    32  H    0.000116  -0.003289   0.000489  -0.000139  -0.000054   0.000005
    33  H    0.004477  -0.003434  -0.001881   0.001923  -0.000019   0.000006
               7          8          9         10         11         12
     1  N    0.000040  -0.000726  -0.054295   0.002963   0.000009  -0.000003
     2  S    0.000537  -0.029469   0.212767  -0.021985  -0.009924   0.000011
     3  C    0.102823   0.082245  -0.119257   0.033827  -0.021709  -0.004122
     4  C   -0.140194   0.062640   0.003839  -0.002900  -0.009395  -0.001067
     5  C    0.096237  -0.150063  -0.000161   0.000641  -0.001812  -0.004682
     6  C    0.267973   0.094478  -0.000164  -0.000052   0.000064   0.001260
     7  C    5.044673   0.303480  -0.000896   0.000250   0.000214  -0.001332
     8  C    0.303480   5.223299  -0.010777  -0.007229  -0.000724  -0.002605
     9  C   -0.000896  -0.010777   5.255390   0.233913  -0.030435   0.010034
    10  C    0.000250  -0.007229   0.233913   4.912284   0.284598  -0.083706
    11  C    0.000214  -0.000724  -0.030435   0.284598   5.525682   0.274169
    12  C   -0.001332  -0.002605   0.010034  -0.083706   0.274169   5.119710
    13  C   -0.000289   0.000121  -0.000769   0.014580   0.101754   0.296981
    14  C   -0.000066   0.000006   0.000169  -0.001119  -0.178720   0.099460
    15  C    0.000033  -0.000042  -0.001339   0.017320   0.102986  -0.148825
    16  C   -0.000072   0.001997  -0.003666  -0.118743   0.235116   0.067821
    17  N   -0.000004   0.007378  -0.088163  -0.002783  -0.001142   0.000028
    18  H    0.000742   0.006921  -0.001763   0.000135   0.000039   0.000002
    19  H   -0.002159   0.016982   0.001666  -0.000561  -0.003863  -0.000226
    20  H    0.014637  -0.001852   0.000016  -0.000015   0.000008  -0.000329
    21  H   -0.071435   0.015570  -0.000000  -0.000000  -0.000021  -0.000024
    22  H    0.454673  -0.074064   0.000046  -0.000025  -0.000049   0.000013
    23  H   -0.047148   0.446435   0.002183  -0.003097   0.000657  -0.000304
    24  H    0.000012  -0.000032   0.329681   0.020389  -0.018182  -0.000243
    25  H    0.000051   0.001852   0.320786   0.005253   0.007150  -0.000263
    26  H   -0.000024  -0.000029   0.004759   0.330544   0.002420  -0.000443
    27  H   -0.000283   0.007765  -0.021501   0.375278  -0.028482  -0.013494
    28  H    0.001595   0.001354   0.000585  -0.020177  -0.075445   0.452360
    29  H    0.000057  -0.000024   0.000010  -0.000370   0.017670  -0.073661
    30  H   -0.000000  -0.000000  -0.000001   0.000040  -0.001425   0.014956
    31  H   -0.000000   0.000002   0.000011  -0.000373   0.017742  -0.002032
    32  H   -0.000003  -0.000041   0.007254  -0.026692  -0.074838   0.014684
    33  H   -0.000020  -0.000731   0.007245  -0.000294   0.000172   0.000005
              13         14         15         16         17         18
     1  N   -0.000000   0.000000  -0.000004   0.000126  -0.067439   0.317372
     2  S    0.000019  -0.000163   0.000753  -0.008367   0.356848  -0.005551
     3  C   -0.001251   0.000412  -0.000614  -0.002777  -0.072792  -0.009973
     4  C   -0.003226   0.001274  -0.001204  -0.003634  -0.001010  -0.000570
     5  C   -0.001899   0.000922  -0.000599  -0.000130   0.002016  -0.000076
     6  C    0.001170  -0.000143  -0.000008   0.000020  -0.000048   0.000019
     7  C   -0.000289  -0.000066   0.000033  -0.000072  -0.000004   0.000742
     8  C    0.000121   0.000006  -0.000042   0.001997   0.007378   0.006921
     9  C   -0.000769   0.000169  -0.001339  -0.003666  -0.088163  -0.001763
    10  C    0.014580  -0.001119   0.017320  -0.118743  -0.002783   0.000135
    11  C    0.101754  -0.178720   0.102986   0.235116  -0.001142   0.000039
    12  C    0.296981   0.099460  -0.148825   0.067821   0.000028   0.000002
    13  C    5.066378   0.251971   0.095715  -0.146699  -0.000021   0.000000
    14  C    0.251971   5.166419   0.253223   0.095074   0.000092  -0.000000
    15  C    0.095715   0.253223   5.068129   0.298650  -0.002211   0.000001
    16  C   -0.146699   0.095074   0.298650   5.143877  -0.000378  -0.000021
    17  N   -0.000021   0.000092  -0.002211  -0.000378   6.902090   0.004574
    18  H    0.000000  -0.000000   0.000001  -0.000021   0.004574   0.574889
    19  H   -0.000263   0.000629   0.000559   0.004730   0.032147  -0.000167
    20  H    0.000478   0.001069   0.000168  -0.000087  -0.000001   0.000000
    21  H    0.000029   0.000003  -0.000002   0.000002  -0.000000  -0.000000
    22  H   -0.000025   0.000001  -0.000000   0.000003   0.000001  -0.000012
    23  H   -0.000025   0.000001   0.000004  -0.000037   0.000348   0.004069
    24  H    0.000055  -0.000032   0.000606   0.004225   0.013110  -0.000069
    25  H    0.000009   0.000002   0.000001   0.000759   0.004470   0.000907
    26  H   -0.000577   0.000108  -0.000403  -0.006449  -0.000324  -0.000005
    27  H    0.000756  -0.000026  -0.000305   0.010676  -0.000052  -0.000148
    28  H   -0.067829   0.015626  -0.002146   0.016169   0.000004  -0.000001
    29  H    0.454006  -0.077162   0.015068  -0.002002   0.000000  -0.000000
    30  H   -0.073671   0.451520  -0.071507   0.015065   0.000001  -0.000000
    31  H    0.015265  -0.079806   0.454205  -0.069614   0.000147  -0.000000
    32  H   -0.002041   0.015563  -0.058028   0.457358   0.019675  -0.000020
    33  H    0.000000  -0.000006  -0.000001   0.000040   0.321963  -0.000107
              19         20         21         22         23         24
     1  N    0.000810   0.000002   0.000000   0.000006   0.001643   0.002487
     2  S   -0.011359  -0.000179   0.000019  -0.000132  -0.002532  -0.011848
     3  C   -0.066243   0.017538  -0.001632   0.018345  -0.098032   0.007446
     4  C    0.429374  -0.073829   0.014907  -0.002150   0.012661   0.000123
     5  C   -0.056104   0.458069  -0.070526   0.014892  -0.001157  -0.000011
     6  C    0.012775  -0.076329   0.451775  -0.073354   0.013939   0.000004
     7  C   -0.002159   0.014637  -0.071435   0.454673  -0.047148   0.000012
     8  C    0.016982  -0.001852   0.015570  -0.074064   0.446435  -0.000032
     9  C    0.001666   0.000016  -0.000000   0.000046   0.002183   0.329681
    10  C   -0.000561  -0.000015  -0.000000  -0.000025  -0.003097   0.020389
    11  C   -0.003863   0.000008  -0.000021  -0.000049   0.000657  -0.018182
    12  C   -0.000226  -0.000329  -0.000024   0.000013  -0.000304  -0.000243
    13  C   -0.000263   0.000478   0.000029  -0.000025  -0.000025   0.000055
    14  C    0.000629   0.001069   0.000003   0.000001   0.000001  -0.000032
    15  C    0.000559   0.000168  -0.000002  -0.000000   0.000004   0.000606
    16  C    0.004730  -0.000087   0.000002   0.000003  -0.000037   0.004225
    17  N    0.032147  -0.000001  -0.000000   0.000001   0.000348   0.013110
    18  H   -0.000167   0.000000  -0.000000  -0.000012   0.004069  -0.000069
    19  H    0.625612  -0.010932  -0.000219   0.000034  -0.000184  -0.000161
    20  H   -0.010932   0.665317  -0.012289  -0.000268   0.000043  -0.000000
    21  H   -0.000219  -0.012289   0.667405  -0.012396  -0.000278   0.000000
    22  H    0.000034  -0.000268  -0.012396   0.668810  -0.012810  -0.000001
    23  H   -0.000184   0.000043  -0.000278  -0.012810   0.675707  -0.000027
    24  H   -0.000161  -0.000000   0.000000  -0.000001  -0.000027   0.568204
    25  H   -0.000023  -0.000000   0.000000  -0.000006  -0.000303  -0.006198
    26  H    0.000000  -0.000000   0.000000   0.000002  -0.000069  -0.012012
    27  H    0.000029   0.000003  -0.000004   0.000059   0.003173   0.006267
    28  H    0.000009  -0.000025   0.000038   0.000053  -0.000105  -0.000013
    29  H   -0.000018   0.000065   0.000035  -0.000001  -0.000000  -0.000000
    30  H    0.000027   0.000058  -0.000001  -0.000000   0.000000   0.000000
    31  H    0.000223  -0.000002  -0.000000   0.000000   0.000000   0.000020
    32  H    0.000126  -0.000002   0.000000  -0.000000  -0.000004   0.001032
    33  H   -0.000146  -0.000001   0.000000   0.000000  -0.000040  -0.000545
              25         26         27         28         29         30
     1  N    0.009953  -0.000127   0.000273   0.000001  -0.000000   0.000000
     2  S   -0.005469   0.004513  -0.008220   0.000001   0.000001  -0.000001
     3  C    0.002679   0.000067   0.000466  -0.001653  -0.000035  -0.000005
     4  C   -0.000330   0.000018   0.000752  -0.000276  -0.000078  -0.000045
     5  C    0.000012  -0.000013   0.000021  -0.000345   0.000115   0.000034
     6  C    0.000006  -0.000008  -0.000053   0.000772   0.000474  -0.000017
     7  C    0.000051  -0.000024  -0.000283   0.001595   0.000057  -0.000000
     8  C    0.001852  -0.000029   0.007765   0.001354  -0.000024  -0.000000
     9  C    0.320786   0.004759  -0.021501   0.000585   0.000010  -0.000001
    10  C    0.005253   0.330544   0.375278  -0.020177  -0.000370   0.000040
    11  C    0.007150   0.002420  -0.028482  -0.075445   0.017670  -0.001425
    12  C   -0.000263  -0.000443  -0.013494   0.452360  -0.073661   0.014956
    13  C    0.000009  -0.000577   0.000756  -0.067829   0.454006  -0.073671
    14  C    0.000002   0.000108  -0.000026   0.015626  -0.077162   0.451520
    15  C    0.000001  -0.000403  -0.000305  -0.002146   0.015068  -0.071507
    16  C    0.000759  -0.006449   0.010676   0.016169  -0.002002   0.015065
    17  N    0.004470  -0.000324  -0.000052   0.000004   0.000000   0.000001
    18  H    0.000907  -0.000005  -0.000148  -0.000001  -0.000000  -0.000000
    19  H   -0.000023   0.000000   0.000029   0.000009  -0.000018   0.000027
    20  H   -0.000000  -0.000000   0.000003  -0.000025   0.000065   0.000058
    21  H    0.000000   0.000000  -0.000004   0.000038   0.000035  -0.000001
    22  H   -0.000006   0.000002   0.000059   0.000053  -0.000001  -0.000000
    23  H   -0.000303  -0.000069   0.003173  -0.000105  -0.000000   0.000000
    24  H   -0.006198  -0.012012   0.006267  -0.000013  -0.000000   0.000000
    25  H    0.610299  -0.005331  -0.009735  -0.000027  -0.000000  -0.000000
    26  H   -0.005331   0.631034  -0.020273   0.000940   0.000010  -0.000001
    27  H   -0.009735  -0.020273   0.658004   0.007213  -0.000010  -0.000001
    28  H   -0.000027   0.000940   0.007213   0.690253  -0.013523  -0.000304
    29  H   -0.000000   0.000010  -0.000010  -0.013523   0.686070  -0.012697
    30  H   -0.000000  -0.000001  -0.000001  -0.000304  -0.012697   0.681115
    31  H   -0.000001   0.000008   0.000012   0.000037  -0.000306  -0.012487
    32  H    0.000035   0.001008   0.000107  -0.000205   0.000031  -0.000266
    33  H   -0.000471   0.000025   0.000003  -0.000000   0.000000  -0.000000
              31         32         33
     1  N    0.000000   0.000116   0.004477
     2  S    0.000024  -0.003289  -0.003434
     3  C   -0.000097   0.000489  -0.001881
     4  C   -0.000067  -0.000139   0.001923
     5  C    0.000015  -0.000054  -0.000019
     6  C    0.000003   0.000005   0.000006
     7  C   -0.000000  -0.000003  -0.000020
     8  C    0.000002  -0.000041  -0.000731
     9  C    0.000011   0.007254   0.007245
    10  C   -0.000373  -0.026692  -0.000294
    11  C    0.017742  -0.074838   0.000172
    12  C   -0.002032   0.014684   0.000005
    13  C    0.015265  -0.002041   0.000000
    14  C   -0.079806   0.015563  -0.000006
    15  C    0.454205  -0.058028  -0.000001
    16  C   -0.069614   0.457358   0.000040
    17  N    0.000147   0.019675   0.321963
    18  H   -0.000000  -0.000020  -0.000107
    19  H    0.000223   0.000126  -0.000146
    20  H   -0.000002  -0.000002  -0.000001
    21  H   -0.000000   0.000000   0.000000
    22  H    0.000000  -0.000000   0.000000
    23  H    0.000000  -0.000004  -0.000040
    24  H    0.000020   0.001032  -0.000545
    25  H   -0.000001   0.000035  -0.000471
    26  H    0.000008   0.001008   0.000025
    27  H    0.000012   0.000107   0.000003
    28  H    0.000037  -0.000205  -0.000000
    29  H   -0.000306   0.000031   0.000000
    30  H   -0.012487  -0.000266  -0.000000
    31  H    0.678225  -0.013638   0.000003
    32  H   -0.013638   0.646788  -0.000346
    33  H    0.000003  -0.000346   0.540668
 Mulliken charges:
               1
     1  N   -0.420553
     2  S    0.453784
     3  C   -0.109391
     4  C    0.033764
     5  C    0.013289
     6  C    0.000187
     7  C   -0.024100
     8  C    0.005880
     9  C   -0.057167
    10  C    0.058104
    11  C   -0.114281
    12  C   -0.014135
    13  C   -0.000703
    14  C   -0.016304
    15  C   -0.020182
    16  C    0.010970
    17  N   -0.428524
    18  H    0.108815
    19  H    0.026896
    20  H    0.018669
    21  H    0.019045
    22  H    0.018354
    23  H    0.005290
    24  H    0.095713
    25  H    0.063936
    26  H    0.070629
    27  H    0.031732
    28  H   -0.004934
    29  H    0.006275
    30  H    0.009613
    31  H    0.012482
    32  H    0.015335
    33  H    0.131512
 Sum of Mulliken charges =  -0.00000
 Mulliken charges with hydrogens summed into heavy atoms:
               1
     1  N   -0.311738
     2  S    0.453784
     3  C   -0.109391
     4  C    0.060660
     5  C    0.031958
     6  C    0.019233
     7  C   -0.005746
     8  C    0.011170
     9  C    0.102482
    10  C    0.160464
    11  C   -0.114281
    12  C   -0.019069
    13  C    0.005572
    14  C   -0.006691
    15  C   -0.007700
    16  C    0.026305
    17  N   -0.297012
 Electronic spatial extent (au):  <R**2>=           3545.9350
 Charge=              0.0000 electrons
 Dipole moment (field-independent basis, Debye):
    X=              2.3477    Y=              1.8904    Z=              2.5204  Tot=              3.9291
 Quadrupole moment (field-independent basis, Debye-Ang):
   XX=           -115.0632   YY=           -104.4011   ZZ=           -101.0125
   XY=              2.8389   XZ=            -10.2766   YZ=              1.5347
 Traceless Quadrupole moment (field-independent basis, Debye-Ang):
   XX=             -8.2376   YY=              2.4245   ZZ=              5.8131
   XY=              2.8389   XZ=            -10.2766   YZ=              1.5347
 Octapole moment (field-independent basis, Debye-Ang**2):
  XXX=             45.8355  YYY=             10.4858  ZZZ=             -7.2436  XYY=              0.5315
  XXY=             16.8009  XXZ=              8.3094  XZZ=             -9.3559  YZZ=             -0.8308
  YYZ=             11.2118  XYZ=              3.4270
 Hexadecapole moment (field-independent basis, Debye-Ang**3):
 XXXX=          -2504.7913 YYYY=          -1664.8947 ZZZZ=           -745.8239 XXXY=             16.6164
 XXXZ=            -99.2247 YYYX=             59.0714 YYYZ=             36.0107 ZZZX=              5.4760
 ZZZY=             16.5331 XXYY=           -670.5960 XXZZ=           -489.9459 YYZZ=           -401.8173
 XXYZ=             27.4224 YYXZ=            -35.8304 ZZXY=             10.1710
 N-N= 1.384631585067D+03 E-N=-5.223543380660D+03  KE= 1.042055296508D+03
   1 Symmetry operations used in ECPInt.
 ECPInt:  NShTT=   11628 NPrTT=   42474 LenC2=   11314 LenP2D=   30480.
 LDataN:  DoStor=T MaxTD1= 5 Len=  102
 Calling FoFJK, ICntrl=      2127 FMM=F ISym2X=0 I1Cent= 0 IOpClX= 0 NMat=1 NMatS=1 NMatT=0.
 ***** Axes restored to original set *****
 -------------------------------------------------------------------
 Center     Atomic                   Forces (Hartrees/Bohr)
 Number     Number              X              Y              Z
 -------------------------------------------------------------------
      1        7           0.006786195   -0.001000196    0.004630752
      2       16           0.007758014   -0.000716711   -0.001067200
      3        6           0.009634291   -0.006158027    0.002733569
      4        6           0.001221877    0.000101983    0.003300654
      5        6           0.001556963    0.001113423   -0.000665973
      6        6          -0.001160976    0.000579030    0.000335776
      7        6           0.000917090   -0.000697794   -0.001188868
      8        6           0.001580981    0.000595758   -0.002119042
      9        6          -0.013250467    0.009394361   -0.000389509
     10        6          -0.000303796    0.000641468    0.008103614
     11        6           0.003032262   -0.002886033   -0.008288093
     12        6          -0.001036630   -0.001290723   -0.000688226
     13        6          -0.000596330    0.000236927   -0.001663884
     14        6          -0.001002596    0.000179212    0.001428054
     15        6          -0.000506164   -0.000744085    0.000812192
     16        6          -0.001096062   -0.002574624   -0.001173207
     17        7          -0.014520999   -0.019191506    0.001690245
     18        1          -0.001522204    0.007150489   -0.010455974
     19        1           0.000266774   -0.005808518    0.008128280
     20        1          -0.006516363    0.000746270    0.006366623
     21        1          -0.007035995    0.005611355   -0.001757853
     22        1          -0.000181946    0.004525502   -0.007703283
     23        1           0.006280018   -0.000290062   -0.007073387
     24        1           0.003010841   -0.004579419    0.006171761
     25        1           0.006707617    0.003074680   -0.001931723
     26        1           0.001416707   -0.003557311   -0.003968244
     27        1          -0.000507026    0.002083707   -0.004401648
     28        1           0.000700087    0.003950929   -0.007650994
     29        1          -0.007183434    0.004312698   -0.003265135
     30        1          -0.007496729    0.000542735    0.005184264
     31        1           0.000050750   -0.003617479    0.008428847
     32        1           0.007455446   -0.003247297    0.004375563
     33        1           0.005541804    0.011519257    0.003762049
 -------------------------------------------------------------------
 Cartesian Forces:  Max     0.019191506 RMS     0.005204608

 GradGradGradGradGradGradGradGradGradGradGradGradGradGradGradGradGradGrad
 Berny optimization.
 FormGI is forming the generalized inverse of G from B-inverse, IUseBI=4.
 Internal  Forces:  Max     0.027963698 RMS     0.005315481
 Search for a local minimum.
 Step number   1 out of a maximum of  184
 All quantities printed in internal units (Hartrees-Bohrs-Radians)
 Mixed Optimization -- RFO/linear search
 Second derivative matrix not updated -- first step.
 ITU=  0
     Eigenvalues ---    0.00230   0.00230   0.00527   0.00678   0.01516
     Eigenvalues ---    0.01602   0.02237   0.02267   0.02273   0.02280
     Eigenvalues ---    0.02284   0.02285   0.02292   0.02294   0.02301
     Eigenvalues ---    0.02303   0.02303   0.02306   0.02311   0.02313
     Eigenvalues ---    0.02325   0.02336   0.03361   0.03491   0.03618
     Eigenvalues ---    0.03954   0.04733   0.05485   0.06890   0.08363
     Eigenvalues ---    0.08423   0.08838   0.09765   0.12489   0.13106
     Eigenvalues ---    0.15993   0.15997   0.15999   0.16000   0.16000
     Eigenvalues ---    0.16000   0.16000   0.16000   0.16000   0.16000
     Eigenvalues ---    0.16000   0.16000   0.16893   0.19371   0.21952
     Eigenvalues ---    0.21998   0.21999   0.22000   0.22000   0.22005
     Eigenvalues ---    0.22054   0.23473   0.23473   0.23856   0.24947
     Eigenvalues ---    0.24991   0.30557   0.31692   0.34004   0.34468
     Eigenvalues ---    0.34912   0.35261   0.35823   0.35863   0.35962
     Eigenvalues ---    0.35969   0.35979   0.35995   0.36006   0.36069
     Eigenvalues ---    0.36100   0.36309   0.43408   0.43544   0.43683
     Eigenvalues ---    0.43845   0.46518   0.46637   0.47608   0.47970
     Eigenvalues ---    0.48132   0.48355   0.48385   0.48526   0.48580
     Eigenvalues ---    0.48833   0.66407   0.69107
 RFO step:  Lambda=-1.92824652D-02 EMin= 2.30000000D-03
 Linear search not attempted -- first point.
 Iteration  1 RMS(Cart)=  0.32400016 RMS(Int)=  0.00747328
 Iteration  2 RMS(Cart)=  0.03408621 RMS(Int)=  0.00054974
 Iteration  3 RMS(Cart)=  0.00039324 RMS(Int)=  0.00054042
 Iteration  4 RMS(Cart)=  0.00000034 RMS(Int)=  0.00054042
 Variable       Old X    -DE/DX   Delta X   Delta X   Delta X     New X
                                 (Linear)    (Quad)   (Total)
    R1        2.89904   0.00812   0.00000   0.01189   0.01189   2.91092
    R2        1.90252   0.01245   0.00000   0.02569   0.02569   1.92821
    R3        3.45910  -0.00493   0.00000  -0.01911  -0.01911   3.43999
    R4        3.51356  -0.00104   0.00000  -0.00436  -0.00436   3.50920
    R5        2.88086   0.00928   0.00000   0.01306   0.01306   2.89393
    R6        2.60904   0.00902   0.00000   0.01784   0.01786   2.62690
    R7        2.61060   0.01206   0.00000   0.02393   0.02395   2.63455
    R8        2.61430   0.00915   0.00000   0.01807   0.01807   2.63237
    R9        2.03925   0.00995   0.00000   0.02618   0.02618   2.06542
   R10        2.61856   0.00999   0.00000   0.01979   0.01977   2.63833
   R11        2.03974   0.00913   0.00000   0.02403   0.02403   2.06377
   R12        2.61799   0.01043   0.00000   0.02072   0.02071   2.63870
   R13        2.04071   0.00917   0.00000   0.02417   0.02417   2.06489
   R14        2.61726   0.00855   0.00000   0.01712   0.01712   2.63439
   R15        2.04131   0.00893   0.00000   0.02357   0.02357   2.06488
   R16        2.04296   0.00937   0.00000   0.02480   0.02480   2.06776
   R17        2.86867   0.00776   0.00000   0.02390   0.02390   2.89257
   R18        2.05253   0.00769   0.00000   0.02068   0.02068   2.07321
   R19        2.05817   0.00661   0.00000   0.01793   0.01793   2.07611
   R20        2.84711   0.00456   0.00000   0.01356   0.01356   2.86067
   R21        2.07324   0.00504   0.00000   0.01402   0.01402   2.08726
   R22        2.06548   0.00454   0.00000   0.01248   0.01248   2.07797
   R23        2.62744   0.00971   0.00000   0.01967   0.01968   2.64712
   R24        2.62395   0.01062   0.00000   0.02142   0.02143   2.64539
   R25        2.61199   0.00970   0.00000   0.01912   0.01912   2.63111
   R26        2.04360   0.00861   0.00000   0.02279   0.02279   2.06639
   R27        2.61558   0.01071   0.00000   0.02133   0.02131   2.63689
   R28        2.04141   0.00899   0.00000   0.02372   0.02372   2.06513
   R29        2.61466   0.00983   0.00000   0.01960   0.01958   2.63425
   R30        2.04114   0.00913   0.00000   0.02408   0.02408   2.06522
   R31        2.61569   0.01030   0.00000   0.02053   0.02053   2.63622
   R32        2.04090   0.00917   0.00000   0.02418   0.02418   2.06508
   R33        2.03601   0.00916   0.00000   0.02395   0.02395   2.05996
   R34        1.90120   0.01085   0.00000   0.02234   0.02234   1.92354
    A1        2.00508  -0.00436   0.00000  -0.02430  -0.02430   1.98079
    A2        1.93273  -0.00589   0.00000  -0.04234  -0.04225   1.89048
    A3        1.98062  -0.00331   0.00000  -0.01930  -0.01947   1.96115
    A4        1.98394   0.00652   0.00000   0.04339   0.04342   2.02736
    A5        1.80885   0.00643   0.00000   0.02206   0.02179   1.83063
    A6        1.95391  -0.00212   0.00000  -0.00906  -0.00899   1.94492
    A7        1.79260  -0.00138   0.00000   0.00644   0.00647   1.79907
    A8        2.06124  -0.00218   0.00000  -0.00888  -0.00899   2.05225
    A9        2.10654   0.00036   0.00000   0.00057   0.00046   2.10700
   A10        2.11350   0.00177   0.00000   0.00683   0.00677   2.12027
   A11        2.08578  -0.00176   0.00000  -0.00705  -0.00702   2.07876
   A12        2.06896   0.00078   0.00000   0.00295   0.00293   2.07190
   A13        2.12830   0.00098   0.00000   0.00405   0.00403   2.13234
   A14        2.09130   0.00106   0.00000   0.00409   0.00409   2.09538
   A15        2.09421  -0.00093   0.00000  -0.00428  -0.00429   2.08992
   A16        2.09768  -0.00013   0.00000   0.00016   0.00015   2.09783
   A17        2.09979   0.00012   0.00000   0.00008   0.00006   2.09986
   A18        2.09363  -0.00009   0.00000  -0.00023  -0.00022   2.09341
   A19        2.08974  -0.00003   0.00000   0.00015   0.00016   2.08990
   A20        2.09320  -0.00013   0.00000  -0.00041  -0.00042   2.09278
   A21        2.09702   0.00014   0.00000   0.00064   0.00064   2.09766
   A22        2.09296  -0.00002   0.00000  -0.00025  -0.00025   2.09271
   A23        2.08233  -0.00106   0.00000  -0.00368  -0.00366   2.07867
   A24        2.09851   0.00185   0.00000   0.00919   0.00917   2.10769
   A25        2.10235  -0.00079   0.00000  -0.00550  -0.00552   2.09683
   A26        2.02450   0.02796   0.00000   0.12220   0.12166   2.14616
   A27        1.78977  -0.00827   0.00000  -0.01657  -0.01949   1.77027
   A28        1.84548  -0.01440   0.00000  -0.08324  -0.08281   1.76267
   A29        1.95692  -0.00559   0.00000  -0.00363  -0.00553   1.95139
   A30        1.93547  -0.00437   0.00000  -0.01679  -0.01400   1.92147
   A31        1.90191   0.00354   0.00000  -0.00989  -0.01154   1.89037
   A32        2.00803   0.01759   0.00000   0.08092   0.08012   2.08815
   A33        1.87733  -0.00591   0.00000  -0.03870  -0.03783   1.83949
   A34        1.91823  -0.00425   0.00000  -0.00166  -0.00395   1.91427
   A35        1.89358  -0.00619   0.00000  -0.03762  -0.03643   1.85715
   A36        1.89641  -0.00351   0.00000   0.00998   0.00802   1.90443
   A37        1.86493   0.00122   0.00000  -0.02101  -0.02143   1.84350
   A38        2.07873  -0.00082   0.00000  -0.00307  -0.00319   2.07553
   A39        2.13156   0.00180   0.00000   0.00664   0.00651   2.13807
   A40        2.07261  -0.00100   0.00000  -0.00418  -0.00424   2.06837
   A41        2.11010   0.00083   0.00000   0.00313   0.00314   2.11325
   A42        2.08623  -0.00077   0.00000  -0.00356  -0.00358   2.08265
   A43        2.08679  -0.00006   0.00000   0.00036   0.00033   2.08712
   A44        2.09387   0.00003   0.00000   0.00006   0.00005   2.09392
   A45        2.09103  -0.00002   0.00000  -0.00007  -0.00008   2.09095
   A46        2.09828  -0.00001   0.00000   0.00000   0.00000   2.09828
   A47        2.08632  -0.00045   0.00000  -0.00171  -0.00172   2.08460
   A48        2.09740   0.00039   0.00000   0.00176   0.00177   2.09916
   A49        2.09947   0.00006   0.00000  -0.00005  -0.00005   2.09942
   A50        2.10299   0.00004   0.00000   0.00035   0.00035   2.10335
   A51        2.09488   0.00016   0.00000   0.00082   0.00081   2.09569
   A52        2.08531  -0.00020   0.00000  -0.00118  -0.00118   2.08413
   A53        2.10032   0.00055   0.00000   0.00220   0.00221   2.10253
   A54        2.10227   0.00022   0.00000   0.00157   0.00153   2.10380
   A55        2.08020  -0.00079   0.00000  -0.00406  -0.00409   2.07611
   A56        1.98079  -0.01391   0.00000  -0.07760  -0.07760   1.90319
    D1       -0.82358  -0.00060   0.00000   0.01733   0.01668  -0.80689
    D2        1.20213   0.00147   0.00000   0.00460   0.00500   1.20713
    D3       -3.04088   0.00194   0.00000   0.03003   0.03028  -3.01060
    D4       -2.15548  -0.00099   0.00000   0.01606   0.01580  -2.13968
    D5        0.92061  -0.00181   0.00000  -0.00910  -0.00926   0.91135
    D6        1.99798   0.00219   0.00000   0.04797   0.04796   2.04594
    D7       -1.20912   0.00137   0.00000   0.02281   0.02290  -1.18622
    D8        0.07828   0.00131   0.00000   0.03282   0.03295   0.11123
    D9       -3.12882   0.00049   0.00000   0.00766   0.00789  -3.12093
   D10       -2.30588   0.00309   0.00000   0.01759   0.01861  -2.28727
   D11        1.83873  -0.00003   0.00000  -0.03619  -0.03582   1.80291
   D12       -0.15313   0.00477   0.00000   0.01229   0.01077  -0.14235
   D13       -0.20840  -0.00169   0.00000  -0.02989  -0.02893  -0.23733
   D14       -2.34698  -0.00481   0.00000  -0.08367  -0.08336  -2.43034
   D15        1.94435  -0.00001   0.00000  -0.03519  -0.03677   1.90758
   D16        1.82809  -0.00213   0.00000  -0.02907  -0.02787   1.80022
   D17       -0.31049  -0.00525   0.00000  -0.08286  -0.08230  -0.39279
   D18       -2.30234  -0.00045   0.00000  -0.03437  -0.03571  -2.33805
   D19        0.51973   0.00043   0.00000   0.01483   0.01449   0.53422
   D20       -1.68648   0.00489   0.00000   0.04462   0.04462  -1.64185
   D21        2.66672  -0.00094   0.00000   0.01954   0.01987   2.68659
   D22        3.10518  -0.00094   0.00000  -0.02482  -0.02479   3.08039
   D23       -0.05405  -0.00105   0.00000  -0.02771  -0.02770  -0.08175
   D24        0.02936  -0.00006   0.00000   0.00070   0.00073   0.03009
   D25       -3.12987  -0.00017   0.00000  -0.00220  -0.00218  -3.13205
   D26       -3.10718   0.00078   0.00000   0.01959   0.01969  -3.08749
   D27        0.03474   0.00071   0.00000   0.01858   0.01866   0.05340
   D28       -0.03308  -0.00022   0.00000  -0.00693  -0.00696  -0.04004
   D29        3.10885  -0.00029   0.00000  -0.00794  -0.00799   3.10085
   D30       -0.00625   0.00025   0.00000   0.00488   0.00488  -0.00137
   D31        3.13237  -0.00010   0.00000  -0.00288  -0.00288   3.12949
   D32       -3.12958   0.00037   0.00000   0.00789   0.00791  -3.12167
   D33        0.00904   0.00003   0.00000   0.00014   0.00015   0.00919
   D34       -0.01266  -0.00016   0.00000  -0.00410  -0.00413  -0.01679
   D35        3.13555  -0.00018   0.00000  -0.00397  -0.00399   3.13156
   D36        3.13191   0.00019   0.00000   0.00367   0.00368   3.13558
   D37       -0.00306   0.00017   0.00000   0.00381   0.00381   0.00075
   D38        0.00889  -0.00012   0.00000  -0.00216  -0.00217   0.00671
   D39       -3.13003   0.00016   0.00000   0.00464   0.00464  -3.12539
   D40       -3.13932  -0.00010   0.00000  -0.00229  -0.00231   3.14156
   D41        0.00495   0.00018   0.00000   0.00450   0.00450   0.00945
   D42        0.01372   0.00027   0.00000   0.00746   0.00747   0.02119
   D43       -3.12820   0.00034   0.00000   0.00848   0.00850  -3.11970
   D44       -3.13054  -0.00001   0.00000   0.00068   0.00067  -3.12986
   D45        0.01073   0.00006   0.00000   0.00170   0.00170   0.01243
   D46       -0.89736  -0.00614   0.00000  -0.14296  -0.14349  -1.04085
   D47       -3.00940  -0.00531   0.00000  -0.11891  -0.11867  -3.12807
   D48        1.24958  -0.00122   0.00000  -0.07152  -0.07152   1.17806
   D49        1.15044  -0.00145   0.00000  -0.08086  -0.08080   1.06964
   D50       -0.96160  -0.00062   0.00000  -0.05681  -0.05598  -1.01758
   D51       -2.98580   0.00347   0.00000  -0.00942  -0.00883  -2.99463
   D52       -3.00238  -0.00397   0.00000  -0.10824  -0.10908  -3.11146
   D53        1.16877  -0.00313   0.00000  -0.08420  -0.08426   1.08451
   D54       -0.85543   0.00095   0.00000  -0.03681  -0.03711  -0.89254
   D55        2.56317   0.00189   0.00000   0.03567   0.03641   2.59958
   D56       -0.60454   0.00091   0.00000   0.00819   0.00887  -0.59567
   D57       -1.61686   0.00138   0.00000   0.01170   0.01153  -1.60533
   D58        1.49861   0.00040   0.00000  -0.01579  -0.01601   1.48260
   D59        0.40462  -0.00237   0.00000  -0.02802  -0.02851   0.37611
   D60       -2.76309  -0.00335   0.00000  -0.05551  -0.05605  -2.81914
   D61        3.13336  -0.00061   0.00000  -0.01744  -0.01734   3.11601
   D62       -0.01989  -0.00092   0.00000  -0.02507  -0.02498  -0.04487
   D63        0.01699   0.00029   0.00000   0.00895   0.00892   0.02591
   D64       -3.13625  -0.00002   0.00000   0.00132   0.00128  -3.13496
   D65       -3.13413   0.00068   0.00000   0.01843   0.01848  -3.11565
   D66        0.03783   0.00115   0.00000   0.02986   0.02991   0.06774
   D67       -0.01857  -0.00029   0.00000  -0.00895  -0.00894  -0.02751
   D68       -3.12979   0.00018   0.00000   0.00248   0.00249  -3.12730
   D69       -0.00441  -0.00009   0.00000  -0.00290  -0.00289  -0.00730
   D70        3.13340  -0.00028   0.00000  -0.00699  -0.00699   3.12641
   D71       -3.13435   0.00023   0.00000   0.00476   0.00479  -3.12956
   D72        0.00346   0.00004   0.00000   0.00067   0.00069   0.00415
   D73       -0.00676  -0.00013   0.00000  -0.00328  -0.00329  -0.01004
   D74        3.13602  -0.00011   0.00000  -0.00241  -0.00242   3.13360
   D75        3.13863   0.00006   0.00000   0.00082   0.00083   3.13946
   D76       -0.00178   0.00008   0.00000   0.00169   0.00170  -0.00008
   D77        0.00511   0.00012   0.00000   0.00323   0.00323   0.00834
   D78       -3.13961  -0.00005   0.00000  -0.00052  -0.00051  -3.14012
   D79       -3.13766   0.00010   0.00000   0.00237   0.00236  -3.13530
   D80        0.00079  -0.00006   0.00000  -0.00138  -0.00138  -0.00058
   D81        0.00773   0.00010   0.00000   0.00299   0.00301   0.01073
   D82        3.11933  -0.00035   0.00000  -0.00820  -0.00815   3.11118
   D83       -3.13075   0.00026   0.00000   0.00672   0.00671  -3.12403
   D84       -0.01915  -0.00019   0.00000  -0.00447  -0.00444  -0.02359
         Item               Value     Threshold  Converged?
 Maximum Force            0.027964     0.000450     NO 
[...]
     7  C   -0.006182  -0.001458   0.000718   0.000121  -0.000661   0.000791
     8  C    0.008414   0.000085  -0.000697   0.001929   0.015663  -0.000211
     9  C   -0.001767   0.000743   0.001277   0.026223  -0.094118   0.010082
    10  C    0.022283  -0.005276   0.012875  -0.121803   0.003831   0.000660
    11  C    0.042825  -0.105061   0.031045   0.389664   0.002917  -0.000197
    12  C    0.416606   0.041978  -0.087417   0.002229   0.000247   0.000049
    13  C    4.924468   0.449596   0.026808  -0.091993  -0.000033   0.000005
    14  C    0.449596   4.912405   0.457339   0.039697   0.000002  -0.000000
    15  C    0.026808   0.457339   4.905142   0.432572   0.000003  -0.000002
    16  C   -0.091993   0.039697   0.432572   5.155452  -0.000649   0.000009
    17  N   -0.000033   0.000002   0.000003  -0.000649   6.945635  -0.006332
    18  H    0.000005  -0.000000  -0.000002   0.000009  -0.006332   0.497606
    19  H   -0.000104   0.000258  -0.000748   0.001947   0.018083  -0.000053
    20  H   -0.000827   0.000838   0.000645   0.000307  -0.000007   0.000000
    21  H    0.000322   0.000015   0.000047  -0.000072   0.000001  -0.000000
    22  H   -0.000136  -0.000044   0.000010  -0.000007   0.000007   0.000027
    23  H   -0.000346   0.000081  -0.000023   0.000079   0.002279  -0.005223
    24  H   -0.000072  -0.000120   0.001626  -0.002377   0.010684  -0.000582
    25  H    0.000024   0.000001  -0.000137   0.000225   0.007920  -0.000309
    26  H   -0.001155   0.000314   0.000011   0.000589  -0.000333   0.000036
    27  H    0.001088   0.000095  -0.000201   0.008685   0.001160  -0.001422
    28  H   -0.047151   0.009527  -0.002158   0.013454   0.000004   0.000002
    29  H    0.425220  -0.054186   0.011494  -0.002603  -0.000000   0.000000
    30  H   -0.052309   0.424966  -0.052301   0.010888   0.000000  -0.000000
    31  H    0.010733  -0.052839   0.425538  -0.052926   0.000001  -0.000000
    32  H   -0.002520   0.010481  -0.046344   0.431665  -0.000203   0.000002
    33  H   -0.000001   0.000000  -0.000002   0.000065   0.303089   0.002709
              19         20         21         22         23         24
     1  N    0.001514   0.000004   0.000001   0.000022   0.031904   0.006175
     2  S    0.003060  -0.000195   0.000038  -0.000235  -0.001152  -0.019200
     3  C   -0.070751   0.015539  -0.003493   0.014412  -0.072478   0.003187
     4  C    0.446938  -0.055469   0.012047  -0.001940   0.006426  -0.000241
     5  C   -0.060799   0.427808  -0.052459   0.010960  -0.002549   0.000133
     6  C    0.012493  -0.056457   0.427020  -0.054951   0.009582   0.000118
     7  C   -0.002766   0.011221  -0.052942   0.430868  -0.038485  -0.000159
     8  C    0.007052  -0.002483   0.011637  -0.058400   0.423935  -0.000247
     9  C   -0.003388   0.000144  -0.000012   0.000049  -0.000621   0.387772
    10  C    0.000854  -0.000078   0.000018   0.000007  -0.003978  -0.038815
    11  C   -0.000470  -0.000396   0.000084   0.000084   0.000738  -0.004136
    12  C    0.000444   0.000016  -0.000262  -0.000351   0.001022   0.002344
    13  C   -0.000104  -0.000827   0.000322  -0.000136  -0.000346  -0.000072
    14  C    0.000258   0.000838   0.000015  -0.000044   0.000081  -0.000120
    15  C   -0.000748   0.000645   0.000047   0.000010  -0.000023   0.001626
    16  C    0.001947   0.000307  -0.000072  -0.000007   0.000079  -0.002377
    17  N    0.018083  -0.000007   0.000001   0.000007   0.002279   0.010684
    18  H   -0.000053   0.000000  -0.000000   0.000027  -0.005223  -0.000582
    19  H    0.514289  -0.008065  -0.000124   0.000075  -0.000338   0.001159
    20  H   -0.008065   0.556033  -0.007893  -0.000239   0.000097  -0.000031
    21  H   -0.000124  -0.007893   0.553364  -0.007739  -0.000185   0.000001
    22  H    0.000075  -0.000239  -0.007739   0.552808  -0.007201   0.000000
    23  H   -0.000338   0.000097  -0.000185  -0.007201   0.502885  -0.000032
    24  H    0.001159  -0.000031   0.000001   0.000000  -0.000032   0.506251
    25  H   -0.000073  -0.000003   0.000000  -0.000002  -0.000094  -0.012808
    26  H   -0.000014   0.000000  -0.000000   0.000000   0.000033  -0.001272
    27  H   -0.000135   0.000001  -0.000001  -0.000041   0.001709   0.004032
    28  H   -0.000016   0.000014  -0.000057   0.000161   0.000669   0.000019
    29  H    0.000001  -0.000053   0.000134   0.000062  -0.000019   0.000002
    30  H   -0.000001   0.000042   0.000011  -0.000001   0.000000  -0.000001
    31  H   -0.000022   0.000019   0.000000  -0.000000  -0.000000   0.000048
    32  H   -0.000159   0.000007  -0.000000  -0.000000   0.000002   0.001505
    33  H   -0.002277   0.000017  -0.000001   0.000002  -0.000193  -0.000785
              25         26         27         28         29         30
     1  N    0.005490   0.000124   0.014406   0.000438  -0.000002   0.000000
     2  S   -0.017602   0.004545  -0.001542   0.000133  -0.000007   0.000001
     3  C    0.009768  -0.000126  -0.001391  -0.002726  -0.000135   0.000029
     4  C   -0.000452  -0.000456  -0.002143  -0.000696   0.000003   0.000109
     5  C    0.000047   0.000004   0.000039   0.000547  -0.000929  -0.000021
     6  C    0.000011  -0.000031   0.000069  -0.001162   0.001657   0.000057
     7  C   -0.000053   0.000029  -0.000214   0.003498   0.000754  -0.000046
     8  C   -0.000455   0.000547   0.004693   0.003290   0.000202   0.000003
     9  C    0.361893  -0.026821  -0.022956   0.000237   0.000010  -0.000001
    10  C   -0.012214   0.368009   0.393039  -0.008523  -0.000348   0.000076
    11  C    0.007546  -0.027935  -0.046397  -0.048069   0.013681  -0.001561
    12  C   -0.000857   0.001828   0.001966   0.409758  -0.055123   0.010544
    13  C    0.000024  -0.001155   0.001088  -0.047151   0.425220  -0.052309
    14  C    0.000001   0.000314   0.000095   0.009527  -0.054186   0.424966
    15  C   -0.000137   0.000011  -0.000201  -0.002158   0.011494  -0.052301
    16  C    0.000225   0.000589   0.008685   0.013454  -0.002603   0.010888
    17  N    0.007920  -0.000333   0.001160   0.000004  -0.000000   0.000000
    18  H   -0.000309   0.000036  -0.001422   0.000002   0.000000  -0.000000
    19  H   -0.000073  -0.000014  -0.000135  -0.000016   0.000001  -0.000001
    20  H   -0.000003   0.000000   0.000001   0.000014  -0.000053   0.000042
    21  H    0.000000  -0.000000  -0.000001  -0.000057   0.000134   0.000011
    22  H   -0.000002   0.000000  -0.000041   0.000161   0.000062  -0.000001
    23  H   -0.000094   0.000033   0.001709   0.000669  -0.000019   0.000000
    24  H   -0.012808  -0.001272   0.004032   0.000019   0.000002  -0.000001
    25  H    0.513659  -0.008478   0.001622  -0.000040  -0.000000   0.000000
    26  H   -0.008478   0.574854  -0.018685   0.000449   0.000017  -0.000002
    27  H    0.001622  -0.018685   0.503842   0.004216  -0.000059  -0.000001
    28  H   -0.000040   0.000449   0.004216   0.558872  -0.008267  -0.000310
    29  H   -0.000000   0.000017  -0.000059  -0.008267   0.567859  -0.008057
    30  H    0.000000  -0.000002  -0.000001  -0.000310  -0.008057   0.561869
    31  H   -0.000001  -0.000009   0.000014   0.000084  -0.000307  -0.007932
    32  H    0.000081   0.001483   0.000062  -0.000280   0.000076  -0.000307
    33  H   -0.000532   0.000029  -0.000018   0.000000  -0.000000   0.000000
              31         32         33
     1  N   -0.000000  -0.000046  -0.005182
     2  S    0.000002  -0.000541  -0.015189
     3  C   -0.000019   0.001241   0.009257
     4  C   -0.000278  -0.000521  -0.011093
     5  C   -0.000030   0.000126   0.000574
     6  C   -0.000023  -0.000028  -0.000270
     7  C    0.000003   0.000004   0.000225
     8  C    0.000010   0.000034   0.000472
     9  C    0.000045   0.003007   0.011256
    10  C   -0.000373  -0.005640  -0.001063
    11  C    0.011837  -0.071364  -0.000026
    12  C   -0.002022   0.012836   0.000010
    13  C    0.010733  -0.002520  -0.000001
    14  C   -0.052839   0.010481   0.000000
    15  C    0.425538  -0.046344  -0.000002
    16  C   -0.052926   0.431665   0.000065
    17  N    0.000001  -0.000203   0.303089
    18  H   -0.000000   0.000002   0.002709
    19  H   -0.000022  -0.000159  -0.002277
    20  H    0.000019   0.000007   0.000017
    21  H    0.000000  -0.000000  -0.000001
    22  H   -0.000000  -0.000000   0.000002
    23  H   -0.000000   0.000002  -0.000193
    24  H    0.000048   0.001505  -0.000785
    25  H   -0.000001   0.000081  -0.000532
    26  H   -0.000009   0.001483   0.000029
    27  H    0.000014   0.000062  -0.000018
    28  H    0.000084  -0.000280   0.000000
    29  H   -0.000307   0.000076  -0.000000
    30  H   -0.007932  -0.000307   0.000000
    31  H    0.559666  -0.008219  -0.000000
    32  H   -0.008219   0.557802   0.000006
    33  H   -0.000000   0.000006   0.501652
 Mulliken charges:
               1
     1  N   -0.568547
     2  S    0.487522
     3  C    0.093059
     4  C   -0.167470
     5  C   -0.074499
     6  C   -0.117503
     7  C   -0.099064
     8  C   -0.257192
     9  C   -0.159699
    10  C   -0.210389
    11  C    0.161713
    12  C   -0.155676
    13  C   -0.102033
    14  C   -0.140870
    15  C   -0.103074
    16  C   -0.252987
    17  N   -0.566351
    18  H    0.211957
    19  H    0.142138
    20  H    0.119443
    21  H    0.120499
    22  H    0.121732
    23  H    0.151477
    24  H    0.155823
    25  H    0.145823
    26  H    0.132416
    27  H    0.154467
    28  H    0.114084
    29  H    0.108924
    30  H    0.114253
    31  H    0.117002
    32  H    0.115754
    33  H    0.207267
 Sum of Mulliken charges =  -0.00000
 Mulliken charges with hydrogens summed into heavy atoms:
               1
     1  N   -0.356590
     2  S    0.487522
     3  C    0.093059
     4  C   -0.025332
     5  C    0.044944
     6  C    0.002996
     7  C    0.022668
     8  C   -0.105715
     9  C    0.141947
    10  C    0.076494
    11  C    0.161713
    12  C   -0.041592
    13  C    0.006890
    14  C   -0.026617
    15  C    0.013928
    16  C   -0.137233
    17  N   -0.359083
 Electronic spatial extent (au):  <R**2>=           3755.1528
 Charge=              0.0000 electrons
 Dipole moment (field-independent basis, Debye):
    X=              3.0214    Y=              1.8140    Z=              0.0718  Tot=              3.5248
 Quadrupole moment (field-independent basis, Debye-Ang):
   XX=           -114.0326   YY=           -100.7783   ZZ=           -108.0458
   XY=             -0.8909   XZ=             -3.7349   YZ=              3.2859
 Traceless Quadrupole moment (field-independent basis, Debye-Ang):
   XX=             -6.4137   YY=              6.8406   ZZ=             -0.4269
   XY=             -0.8909   XZ=             -3.7349   YZ=              3.2859
 Octapole moment (field-independent basis, Debye-Ang**2):
  XXX=             22.5465  YYY=             -8.4029  ZZZ=              0.7706  XYY=             -4.7049
  XXY=             45.4797  XXZ=             -8.5893  XZZ=             17.6908  YZZ=             12.0554
  YYZ=              2.7590  XYZ=              7.0816
 Hexadecapole moment (field-independent basis, Debye-Ang**3):
 XXXX=          -2731.7752 YYYY=          -1639.8978 ZZZZ=           -762.7985 XXXY=            -62.6618
 XXXZ=            -39.1262 YYYX=             89.8557 YYYZ=             30.9926 ZZZX=            -22.0540
 ZZZY=             14.2428 XXYY=           -729.3337 XXZZ=           -614.0416 YYZZ=           -386.7991
 XXYZ=             15.5713 YYXZ=            -19.5451 ZZXY=            -22.1260
 N-N= 1.359427833002D+03 E-N=-5.178799631021D+03  KE= 1.045823053714D+03
 Breneman (CHELPG) radii used.
 Read replacement radii for each type of atom:
 Atom Element Radius
    1     7    1.70
    2    16    2.00
    3     6    1.50
    4     6    1.50
    5     6    1.50
    6     6    1.50
    7     6    1.50
    8     6    1.50
    9     6    1.50
   10     6    1.50
   11     6    1.50
   12     6    1.50
   13     6    1.50
   14     6    1.50
   15     6    1.50
   16     6    1.50
   17     7    1.70
   18     1    1.45
   19     1    1.45
   20     1    1.45
   21     1    1.45
   22     1    1.45
   23     1    1.45
   24     1    1.45
   25     1    1.45
   26     1    1.45
   27     1    1.45
   28     1    1.45
   29     1    1.45
   30     1    1.45
   31     1    1.45
   32     1    1.45
   33     1    1.45
 Generate Potential Derived Charges using the Breneman model, NDens= 1.
 Grid spacing= 0.300 Box extension= 2.800
 NStep X,Y,Z=   47     42     35   Total possible points=       69090
 Number of Points to Fit=   18792

 **********************************************************************

            Electrostatic Properties Using The SCF Density.

 **********************************************************************

       Atomic Center    1 is at  -2.966687 -0.248231  1.246937
       Atomic Center    2 is at  -2.265880 -0.286032 -0.140979
       Atomic Center    3 is at  -0.936203  0.952822 -0.160756
       Atomic Center    4 is at  -0.194545  1.140542 -1.326045
       Atomic Center    5 is at   0.824674  2.087992 -1.331962
       Atomic Center    6 is at   1.066432  2.863098 -0.195953
       Atomic Center    7 is at   0.296913  2.687596  0.952689
       Atomic Center    8 is at  -0.703269  1.716913  0.978218
       Atomic Center    9 is at  -1.430838 -1.868708 -0.112067
       Atomic Center   10 is at  -0.344118 -2.017903  0.939677
       Atomic Center   11 is at   1.008908 -1.489440  0.531693
       Atomic Center   12 is at   1.689940 -0.561935  1.323919
       Atomic Center   13 is at   2.933492 -0.065438  0.938074
       Atomic Center   14 is at   3.523449 -0.497297 -0.247528
       Atomic Center   15 is at   2.862560 -1.435169 -1.039895
       Atomic Center   16 is at   1.618721 -1.925318 -0.651244
       Atomic Center   17 is at  -2.944735 -0.324325 -1.536624
       Atomic Center   18 is at  -3.514754  0.611536  1.325481
       Atomic Center   19 is at  -0.428063  0.546262 -2.212286
       Atomic Center   20 is at   1.430381  2.229199 -2.229913
       Atomic Center   21 is at   1.862266  3.611578 -0.209144
       Atomic Center   22 is at   0.485491  3.299141  1.838339
       Atomic Center   23 is at  -1.300535  1.524921  1.872846
       Atomic Center   24 is at  -1.080970 -2.020378 -1.141243
       Atomic Center   25 is at  -2.282465 -2.539618  0.069789
       Atomic Center   26 is at  -0.256192 -3.095430  1.158791
       Atomic Center   27 is at  -0.688760 -1.544950  1.872218
       Atomic Center   28 is at   1.228540 -0.210739  2.249935
       Atomic Center   29 is at   3.440539  0.670404  1.566815
       Atomic Center   30 is at   4.496841 -0.106411 -0.553106
       Atomic Center   31 is at   3.319312 -1.788549 -1.967636
       Atomic Center   32 is at   1.113622 -2.661759 -1.283179
       Atomic Center   33 is at  -3.487903  0.532671 -1.667165
   18792 points will be used for fitting atomic charges
 Fitting point charges to electrostatic potential
 Charges from ESP fit, RMS=   0.00373 RRMS=   0.25661:
 ESP charges:
               1
     1  N   -0.756458
     2  S    0.522101
     3  C    0.088930
     4  C   -0.147308
     5  C   -0.033502
     6  C   -0.097132
     7  C   -0.077567
     8  C   -0.125743
     9  C    0.319372
    10  C   -0.284976
    11  C    0.162461
    12  C   -0.099169
    13  C   -0.074426
    14  C   -0.135828
    15  C   -0.077213
    16  C   -0.184942
    17  N   -0.774162
    18  H    0.324604
    19  H    0.112182
    20  H    0.078512
    21  H    0.094388
    22  H    0.094335
    23  H    0.103654
    24  H   -0.002287
    25  H    0.025357
    26  H    0.052940
    27  H    0.108099
    28  H    0.073252
    29  H    0.083173
    30  H    0.101529
    31  H    0.093646
    32  H    0.106222
    33  H    0.325954
 Sum of ESP charges =   0.00000
 ESP charges with hydrogens summed into heavy atoms:
               1
     1  N   -0.431854
     2  S    0.522101
     3  C    0.088930
     4  C   -0.035125
     5  C    0.045010
     6  C   -0.002745
     7  C    0.016768
     8  C   -0.022089
     9  C    0.342442
    10  C   -0.123937
    11  C    0.162461
    12  C   -0.025916
    13  C    0.008747
    14  C   -0.034299
    15  C    0.016433
    16  C   -0.078719
    17  N   -0.448208
 Charge=   0.00000 Dipole=     3.0367     1.7886     0.1657 Tot=     3.5282
 -----------------------------------------------------------------

              Electrostatic Properties (Atomic Units)

 -----------------------------------------------------------------
    Center     Electric         -------- Electric Field --------
               Potential          X             Y             Z
 -----------------------------------------------------------------
    1 Atom    -18.431054
    2 Atom    -59.080961
    3 Atom    -14.736025
    4 Atom    -14.748301
    5 Atom    -14.750163
    6 Atom    -14.748399
    7 Atom    -14.749965
    8 Atom    -14.749159
    9 Atom    -14.727991
   10 Atom    -14.743973
   11 Atom    -14.749338
   12 Atom    -14.763164
   13 Atom    -14.760933
   14 Atom    -14.761986
   15 Atom    -14.760199
   16 Atom    -14.761196
   17 Atom    -18.433139
   18 Atom     -1.052344
   19 Atom     -1.092264
   20 Atom     -1.093145
   21 Atom     -1.091141
   22 Atom     -1.091484
   23 Atom     -1.091313
   24 Atom     -1.084696
   25 Atom     -1.083242
   26 Atom     -1.099358
   27 Atom     -1.105577
   28 Atom     -1.102953
   29 Atom     -1.101463
   30 Atom     -1.101231
   31 Atom     -1.100635
   32 Atom     -1.098032
   33 Atom     -1.054823
 -----------------------------------------------------------------
 Unable to Open any file for archive entry.
 1\1\GINC-NOTCH410\SP\RPBE1PBE\def2TZVP\C14H16N2S1\U1414944\06-Jun-2025
 \0\\#N Guess=Read Geom=Check Integral(Ultrafine) Density Pop=(ChelpG,R
 eadRadii) NMR pbe1pbe EmpiricalDispersion=GD3BJ def2TZVP\\SDI0241_15\\
 0,1\N,0,2.9404165011,0.3618241945,-1.4353484475\S,0,2.2968163796,0.164
 933191,-0.0332495561\C,0,0.7561255018,1.1258183745,0.0452520664\C,0,0.
 0234826388,1.146538268,1.2310000131\C,0,-1.1573165723,1.8811323438,1.2
 818849042\C,0,-1.5726553456,2.6165144928,0.1699235116\C,0,-0.814564540
 4,2.6128088739,-0.9995304471\C,0,0.3514690562,1.852134381,-1.070127717
 1\C,0,1.7787482095,-1.5474937365,-0.080098989\C,0,0.7129467367,-1.8824
 394745,-1.110275394\C,0,-0.7047531509,-1.6303375349,-0.6597471868\C,0,
 -1.5710912148,-0.835831211,-1.4146686305\C,0,-2.8758554698,-0.59373715
 67,-0.9894770931\C,0,-3.3408410713,-1.1523757296,0.1987629081\C,0,-2.4
 922860157,-1.9609144921,0.9540392612\C,0,-1.1885259604,-2.1966718299,0
 .5261833305\N,0,3.0073156971,0.2314684554,1.3454816564\H,0,3.312018847
 7,1.311894613,-1.5062262943\H,0,0.3895887784,0.5916504103,2.0977110312
 \H,0,-1.754777851,1.8871712861,2.1962923049\H,0,-2.4960866682,3.198469
 5059,0.2184238977\H,0,-1.1398524578,3.1932297018,-1.8662614232\H,0,0.9
 504288775,1.7945813065,-1.9822028424\H,0,1.4917168221,-1.7823286168,0.
 9528965815\H,0,2.7376406085,-2.0395289456,-0.2966307499\H,0,0.82652081
 27,-2.9526355174,-1.3523251627\H,0,0.9360913423,-1.3351043939,-2.03910
 61011\H,0,-1.2099642378,-0.3857549099,-2.342437006\H,0,-3.5305463328,0
 .042959009,-1.5893712924\H,0,-4.3624830761,-0.9607322495,0.5351909315\
 H,0,-2.8483900277,-2.4122756929,1.8833762017\H,0,-0.5355482591,-2.8343
 876503,1.1293009933\H,0,3.3801921313,1.1740155998,1.4836249773\\Versio
 n=ES64L-G16RevC.01\State=1-A\HF=-1050.0922781\RMSD=5.118e-09\Dipole=-1
 .3033867,0.4733956,0.0151189\Quadrupole=-4.7743236,5.0801521,-0.305828
 5,-1.2703587,-2.1647014,-2.7967887\PG=C01 [X(C14H16N2S1)]\\@
 The archive entry for this job was punched.


 VIRTUE IS LEARNED AT YOUR MOTHER'S KNEE,
 VICES ARE PICKED UP AT SOME OTHER JOINT.
 Job cpu time:       0 days  1 hours  2 minutes 50.3 seconds.
 Elapsed time:       0 days  0 hours  4 minutes 14.3 seconds.
 File lengths (MBytes):  RWF=    238 Int=      0 D2E=      0 Chk=     37 Scr=      2
 Normal termination of Gaussian 16 at Fri Jun  6 22:14:21 2025.
