 Entering Gaussian System, Link 0=g16
 Input=SDI0241_11.com
 Output=SDI0241_11.log
 Initial command:
 /uufs/chpc.utah.edu/sys/installdir/gaussian16/C01/AVX/g16/l1.exe "/scratch/general/vast/u1414944/4689591-notchpeak.peaks/Gau-3739309.inp" -scrdir="/scratch/general/vast/u1414944/4689591-notchpeak.peaks/"
 Entering Link 1 = /uufs/chpc.utah.edu/sys/installdir/gaussian16/C01/AVX/g16/l1.exe PID=   3739310.
  
 Copyright (c) 1988-2019, Gaussian, Inc.  All Rights Reserved.
  
 This is part of the Gaussian(R) 16 program.  It is based on
 the Gaussian(R) 09 system (copyright 2009, Gaussian, Inc.),
 the Gaussian(R) 03 system (copyright 2003, Gaussian, Inc.),
 the Gaussian(R) 98 system (copyright 1998, Gaussian, Inc.),
 the Gaussian(R) 94 system (copyright 1995, Gaussian, Inc.),
 the Gaussian 92(TM) system (copyright 1992, Gaussian, Inc.),
 the Gaussian 90(TM) system (copyright 1990, Gaussian, Inc.),
 the Gaussian 88(TM) system (copyright 1988, Gaussian, Inc.),
 the Gaussian 86(TM) system (copyright 1986, Carnegie Mellon
 University), and the Gaussian 82(TM) system (copyright 1983,
 Carnegie Mellon University). Gaussian is a federally registered
 trademark of Gaussian, Inc.
  
 This software contains proprietary and confidential information,
 including trade secrets, belonging to Gaussian, Inc.
  
 This software is provided under written license and may be
 used, copied, transmitted, or stored only in accord with that
 written license.
  
 The following legend is applicable only to US Government
 contracts under FAR:
  
                    RESTRICTED RIGHTS LEGEND
  
 Use, reproduction and disclosure by the US Government is
 subject to restrictions as set forth in subparagraphs (a)
 and (c) of the Commercial Computer Software - Restricted
 Rights clause in FAR 52.227-19.
  
 Gaussian, Inc.
 340 Quinnipiac St., Bldg. 40, Wallingford CT 06492
  
  
 ---------------------------------------------------------------
 Warning -- This program may not be used in any manner that
 competes with the business of Gaussian, Inc. or will provide
 assistance to any competitor of Gaussian, Inc.  The licensee
 of this program is prohibited from giving any competitor of
 Gaussian, Inc. access to this program.  By using this program,
 the user acknowledges that Gaussian, Inc. is engaged in the
 business of creating and licensing software in the field of
 computational chemistry and represents and warrants to the
 licensee that it is not a competitor of Gaussian, Inc. and that
 it will not use this program in any manner prohibited above.
 ---------------------------------------------------------------
  

 Cite this work as:
 Gaussian 16, Revision C.01,
 M. J. Frisch, G. W. Trucks, H. B. Schlegel, G. E. Scuseria, 
 M. A. Robb, J. R. Cheeseman, G. Scalmani, V. Barone, 
 G. A. Petersson, H. Nakatsuji, X. Li, M. Caricato, A. V. Marenich, 
 J. Bloino, B. G. Janesko, R. Gomperts, B. Mennucci, H. P. Hratchian, 
 J. V. Ortiz, A. F. Izmaylov, J. L. Sonnenberg, D. Williams-Young, 
 F. Ding, F. Lipparini, F. Egidi, J. Goings, B. Peng, A. Petrone, 
 T. Henderson, D. Ranasinghe, V. G. Zakrzewski, J. Gao, N. Rega, 
 G. Zheng, W. Liang, M. Hada, M. Ehara, K. Toyota, R. Fukuda, 
 J. Hasegawa, M. Ishida, T. Nakajima, Y. Honda, O. Kitao, H. Nakai, 
 T. Vreven, K. Throssell, J. A. Montgomery, Jr., J. E. Peralta, 
 F. Ogliaro, M. J. Bearpark, J. J. Heyd, E. N. Brothers, K. N. Kudin, 
 V. N. Staroverov, T. A. Keith, R. Kobayashi, J. Normand, 
 K. Raghavachari, A. P. Rendell, J. C. Burant, S. S. Iyengar, 
 J. Tomasi, M. Cossi, J. M. Millam, M. Klene, C. Adamo, R. Cammi, 
 J. W. Ochterski, R. L. Martin, K. Morokuma, O. Farkas, 
 J. B. Foresman, and D. J. Fox, Gaussian, Inc., Wallingford CT, 2019.
 
 ******************************************
 Gaussian 16:  ES64L-G16RevC.01  3-Jul-2019
                 6-Jun-2025 
 ******************************************
 %NProcShared=16
 Will use up to   16 processors via shared memory.
 %Mem=40GB
 %chk=SDI0241_11.chk
 ----------------------------------------------------------------------
 #N OPT FREQ=NORAMAN Integral(Ultrafine) pbe1pbe EmpiricalDispersion=GD
 3BJ def2SVP
 ----------------------------------------------------------------------
 1/18=20,19=15,26=4,38=1/1,3;
 2/9=110,12=2,17=6,18=5,40=1/2;
 3/5=43,7=101,11=2,25=1,30=1,71=1,74=-13,75=-5,124=41/1,2,3;
 4//1;
 5/5=2,38=5/2;
 6/7=2,8=2,9=2,10=2,28=1/1;
 7//1,2,3,16;
 1/18=20,19=15,26=4/3(2);
 2/9=110/2;
 99//99;
 2/9=110/2;
 3/5=43,7=101,11=2,25=1,30=1,71=1,74=-13,75=-5,124=41/1,2,3;
 4/5=5,16=3,69=1/1;
 5/5=2,38=5/2;
 7//1,2,3,16;
 1/18=20,19=15,26=4/3(-5);
 2/9=110/2;
 6/7=2,8=2,9=2,10=2,19=2,28=1/1;
 99/9=1/99;
 ----------
 SDI0241_11
 ----------
 Symbolic Z-matrix:
 Charge =  0 Multiplicity = 1
 N                    -0.19542  -0.09145  -1.49373 
 S                     0.75302   0.24383  -0.34038 
 C                     0.7933    2.03481   0.05201 
 C                    -0.36984   2.77878   0.0964 
 C                    -0.30341   4.12638   0.41027 
 C                     0.92288   4.71497   0.67435 
 C                     2.08528   3.9618    0.62441 
 C                     2.01953   2.6147    0.31195 
 C                     0.26676  -0.33125   1.34925 
 C                     0.34283  -1.84739   1.42224 
 C                    -0.68211  -2.47884   0.52091 
 C                    -2.02591  -2.46589   0.87313 
 C                    -2.98068  -3.00811   0.03163 
 C                    -2.60045  -3.57054  -1.17467 
 C                    -1.26311  -3.59096  -1.5313 
 C                    -0.3101   -3.0489   -0.68806 
 N                     2.17283  -0.28046  -0.52461 
 H                    -1.13771   0.24334  -1.38451 
 H                    -1.32033   2.31129  -0.11804 
 H                    -1.20709   4.71651   0.44682 
 H                     0.97196   5.76613   0.91707 
 H                     3.03972   4.42394   0.82783 
 H                     2.90077   1.99341   0.25882 
 H                    -0.73553   0.04656   1.54173 
 H                     0.98245   0.14092   2.01762 
 H                     0.18336  -2.16639   2.45641 
 H                     1.34631  -2.14365   1.11267 
 H                    -2.32692  -2.03009   1.81676 
 H                    -4.02276  -2.99133   0.31775 
 H                    -3.34544  -3.99162  -1.83388 
 H                    -0.96191  -4.02698  -2.47215 
 H                     0.73117  -3.05548  -0.97217 
 H                     2.3883   -0.50783  -1.48016 
 

 GradGradGradGradGradGradGradGradGradGradGradGradGradGradGradGradGradGrad
 Berny optimization.
 Initialization pass.
                           ----------------------------
                           !    Initial Parameters    !
                           ! (Angstroms and Degrees)  !
 --------------------------                            --------------------------
 ! Name  Definition              Value          Derivative Info.                !
 --------------------------------------------------------------------------------
 ! R1    R(1,2)                  1.5304         estimate D2E/DX2                !
 ! R2    R(1,18)                 1.0059         estimate D2E/DX2                !
 ! R3    R(2,3)                  1.8339         estimate D2E/DX2                !
 ! R4    R(2,9)                  1.8499         estimate D2E/DX2                !
 ! R5    R(2,17)                 1.5247         estimate D2E/DX2                !
 ! R6    R(3,4)                  1.3814         estimate D2E/DX2                !
 ! R7    R(3,8)                  1.3811         estimate D2E/DX2                !
 ! R8    R(4,5)                  1.3853         estimate D2E/DX2                !
 ! R9    R(4,19)                 1.0807         estimate D2E/DX2                !
 ! R10   R(5,6)                  1.3856         estimate D2E/DX2                !
 ! R11   R(5,20)                 1.0799         estimate D2E/DX2                !
 ! R12   R(6,7)                  1.386          estimate D2E/DX2                !
 ! R13   R(6,21)                 1.0799         estimate D2E/DX2                !
 ! R14   R(7,8)                  1.3844         estimate D2E/DX2                !
 ! R15   R(7,22)                 1.0798         estimate D2E/DX2                !
 ! R16   R(8,23)                 1.0795         estimate D2E/DX2                !
 ! R17   R(9,10)                 1.5198         estimate D2E/DX2                !
 ! R18   R(9,24)                 1.0883         estimate D2E/DX2                !
 ! R19   R(9,25)                 1.0871         estimate D2E/DX2                !
 ! R20   R(10,11)                1.5039         estimate D2E/DX2                !
 ! R21   R(10,26)                1.0939         estimate D2E/DX2                !
 ! R22   R(10,27)                1.0911         estimate D2E/DX2                !
 ! R23   R(11,12)                1.3893         estimate D2E/DX2                !
 ! R24   R(11,16)                1.3874         estimate D2E/DX2                !
 ! R25   R(12,13)                1.3834         estimate D2E/DX2                !
 ! R26   R(12,28)                1.0821         estimate D2E/DX2                !
 ! R27   R(13,14)                1.3842         estimate D2E/DX2                !
 ! R28   R(13,29)                1.0808         estimate D2E/DX2                !
 ! R29   R(14,15)                1.3842         estimate D2E/DX2                !
 ! R30   R(14,30)                1.0802         estimate D2E/DX2                !
 ! R31   R(15,16)                1.3832         estimate D2E/DX2                !
 ! R32   R(15,31)                1.0798         estimate D2E/DX2                !
 ! R33   R(16,32)                1.0794         estimate D2E/DX2                !
 ! R34   R(17,33)                1.0056         estimate D2E/DX2                !
 ! A1    A(2,1,18)             115.2002         estimate D2E/DX2                !
 ! A2    A(1,2,3)              112.8801         estimate D2E/DX2                !
 ! A3    A(1,2,9)              117.2149         estimate D2E/DX2                !
 ! A4    A(1,2,17)             114.2492         estimate D2E/DX2                !
 ! A5    A(3,2,9)               96.5428         estimate D2E/DX2                !
 ! A6    A(3,2,17)             109.9512         estimate D2E/DX2                !
 ! A7    A(9,2,17)             104.3738         estimate D2E/DX2                !
 ! A8    A(2,3,4)              120.9526         estimate D2E/DX2                !
 ! A9    A(2,3,8)              118.0222         estimate D2E/DX2                !
 ! A10   A(4,3,8)              121.0233         estimate D2E/DX2                !
 ! A11   A(3,4,5)              119.3939         estimate D2E/DX2                !
 ! A12   A(3,4,19)             120.0782         estimate D2E/DX2                !
 ! A13   A(5,4,19)             120.5269         estimate D2E/DX2                !
 ! A14   A(4,5,6)              119.9243         estimate D2E/DX2                !
 ! A15   A(4,5,20)             119.9428         estimate D2E/DX2                !
 ! A16   A(6,5,20)             120.1328         estimate D2E/DX2                !
 ! A17   A(5,6,7)              120.3009         estimate D2E/DX2                !
 ! A18   A(5,6,21)             119.7697         estimate D2E/DX2                !
 ! A19   A(7,6,21)             119.9291         estimate D2E/DX2                !
 ! A20   A(6,7,8)              119.8068         estimate D2E/DX2                !
 ! A21   A(6,7,22)             120.1302         estimate D2E/DX2                !
 ! A22   A(8,7,22)             120.063          estimate D2E/DX2                !
 ! A23   A(3,8,7)              119.5506         estimate D2E/DX2                !
 ! A24   A(3,8,23)             118.2853         estimate D2E/DX2                !
 ! A25   A(7,8,23)             122.1635         estimate D2E/DX2                !
 ! A26   A(2,9,10)             109.9279         estimate D2E/DX2                !
 ! A27   A(2,9,24)             107.2004         estimate D2E/DX2                !
 ! A28   A(2,9,25)             104.6827         estimate D2E/DX2                !
 ! A29   A(10,9,24)            112.5777         estimate D2E/DX2                !
 ! A30   A(10,9,25)            111.7646         estimate D2E/DX2                !
 ! A31   A(24,9,25)            110.2906         estimate D2E/DX2                !
 ! A32   A(9,10,11)            110.8528         estimate D2E/DX2                !
 ! A33   A(9,10,26)            109.209          estimate D2E/DX2                !
 ! A34   A(9,10,27)            107.6541         estimate D2E/DX2                !
 ! A35   A(11,10,26)           110.1693         estimate D2E/DX2                !
 ! A36   A(11,10,27)           110.0438         estimate D2E/DX2                !
 ! A37   A(26,10,27)           108.851          estimate D2E/DX2                !
 ! A38   A(10,11,12)           120.2235         estimate D2E/DX2                !
 ! A39   A(10,11,16)           120.7987         estimate D2E/DX2                !
 ! A40   A(12,11,16)           118.9541         estimate D2E/DX2                !
 ! A41   A(11,12,13)           120.6451         estimate D2E/DX2                !
 ! A42   A(11,12,28)           119.5977         estimate D2E/DX2                !
 ! A43   A(13,12,28)           119.7568         estimate D2E/DX2                !
 ! A44   A(12,13,14)           119.9857         estimate D2E/DX2                !
 ! A45   A(12,13,29)           119.8901         estimate D2E/DX2                !
 ! A46   A(14,13,29)           120.1242         estimate D2E/DX2                !
 ! A47   A(13,14,15)           119.7297         estimate D2E/DX2                !
 ! A48   A(13,14,30)           120.0501         estimate D2E/DX2                !
 ! A49   A(15,14,30)           120.2201         estimate D2E/DX2                !
 ! A50   A(14,15,16)           120.1867         estimate D2E/DX2                !
 ! A51   A(14,15,31)           119.9953         estimate D2E/DX2                !
 ! A52   A(16,15,31)           119.8174         estimate D2E/DX2                !
 ! A53   A(11,16,15)           120.4979         estimate D2E/DX2                !
 ! A54   A(11,16,32)           119.3763         estimate D2E/DX2                !
 ! A55   A(15,16,32)           120.1216         estimate D2E/DX2                !
 ! A56   A(2,17,33)            113.0854         estimate D2E/DX2                !
 ! D1    D(18,1,2,3)           -53.7258         estimate D2E/DX2                !
 ! D2    D(18,1,2,9)            57.1346         estimate D2E/DX2                !
 ! D3    D(18,1,2,17)          179.6694         estimate D2E/DX2                !
 ! D4    D(1,2,3,4)             42.8173         estimate D2E/DX2                !
 ! D5    D(1,2,3,8)           -137.6827         estimate D2E/DX2                !
 ! D6    D(9,2,3,4)            -80.4153         estimate D2E/DX2                !
 ! D7    D(9,2,3,8)             99.0847         estimate D2E/DX2                !
 ! D8    D(17,2,3,4)           171.6783         estimate D2E/DX2                !
 ! D9    D(17,2,3,8)            -8.8217         estimate D2E/DX2                !
 ! D10   D(1,2,9,10)            68.4418         estimate D2E/DX2                !
 ! D11   D(1,2,9,24)           -54.224          estimate D2E/DX2                !
 ! D12   D(1,2,9,25)          -171.3781         estimate D2E/DX2                !
 ! D13   D(3,2,9,10)          -171.621          estimate D2E/DX2                !
 ! D14   D(3,2,9,24)            65.7132         estimate D2E/DX2                !
 ! D15   D(3,2,9,25)           -51.4409         estimate D2E/DX2                !
 ! D16   D(17,2,9,10)          -59.0426         estimate D2E/DX2                !
 ! D17   D(17,2,9,24)          178.2916         estimate D2E/DX2                !
 ! D18   D(17,2,9,25)           61.1376         estimate D2E/DX2                !
 ! D19   D(1,2,17,33)           18.8216         estimate D2E/DX2                !
 ! D20   D(3,2,17,33)         -109.2882         estimate D2E/DX2                !
 ! D21   D(9,2,17,33)          148.1105         estimate D2E/DX2                !
 ! D22   D(2,3,4,5)            179.3077         estimate D2E/DX2                !
 ! D23   D(2,3,4,19)            -1.0445         estimate D2E/DX2                !
 ! D24   D(8,3,4,5)             -0.1772         estimate D2E/DX2                !
 ! D25   D(8,3,4,19)           179.4705         estimate D2E/DX2                !
 ! D26   D(2,3,8,7)           -179.3783         estimate D2E/DX2                !
 ! D27   D(2,3,8,23)             0.8827         estimate D2E/DX2                !
 ! D28   D(4,3,8,7)              0.1213         estimate D2E/DX2                !
 ! D29   D(4,3,8,23)          -179.6177         estimate D2E/DX2                !
 ! D30   D(3,4,5,6)              0.075          estimate D2E/DX2                !
 ! D31   D(3,4,5,20)           179.9587         estimate D2E/DX2                !
 ! D32   D(19,4,5,6)          -179.5711         estimate D2E/DX2                !
 ! D33   D(19,4,5,20)            0.3126         estimate D2E/DX2                !
 ! D34   D(4,5,6,7)              0.081          estimate D2E/DX2                !
 ! D35   D(4,5,6,21)           179.8924         estimate D2E/DX2                !
 ! D36   D(20,5,6,7)          -179.8024         estimate D2E/DX2                !
 ! D37   D(20,5,6,21)            0.009          estimate D2E/DX2                !
 ! D38   D(5,6,7,8)             -0.1373         estimate D2E/DX2                !
 ! D39   D(5,6,7,22)           179.8191         estimate D2E/DX2                !
 ! D40   D(21,6,7,8)          -179.9484         estimate D2E/DX2                !
 ! D41   D(21,6,7,22)            0.0081         estimate D2E/DX2                !
 ! D42   D(6,7,8,3)              0.0368         estimate D2E/DX2                !
 ! D43   D(6,7,8,23)           179.7653         estimate D2E/DX2                !
 ! D44   D(22,7,8,3)          -179.9197         estimate D2E/DX2                !
 ! D45   D(22,7,8,23)           -0.1912         estimate D2E/DX2                !
 ! D46   D(2,9,10,11)          -65.8764         estimate D2E/DX2                !
 ! D47   D(2,9,10,26)          172.5606         estimate D2E/DX2                !
 ! D48   D(2,9,10,27)           54.5293         estimate D2E/DX2                !
 ! D49   D(24,9,10,11)          53.5565         estimate D2E/DX2                !
 ! D50   D(24,9,10,26)         -68.0064         estimate D2E/DX2                !
 ! D51   D(24,9,10,27)         173.9623         estimate D2E/DX2                !
 ! D52   D(25,9,10,11)         178.3349         estimate D2E/DX2                !
 ! D53   D(25,9,10,26)          56.772          estimate D2E/DX2                !
 ! D54   D(25,9,10,27)         -61.2593         estimate D2E/DX2                !
 ! D55   D(9,10,11,12)         -73.8405         estimate D2E/DX2                !
 ! D56   D(9,10,11,16)         104.3678         estimate D2E/DX2                !
 ! D57   D(26,10,11,12)         47.1568         estimate D2E/DX2                !
 ! D58   D(26,10,11,16)       -134.6349         estimate D2E/DX2                !
 ! D59   D(27,10,11,12)        167.1847         estimate D2E/DX2                !
 ! D60   D(27,10,11,16)        -14.607          estimate D2E/DX2                !
 ! D61   D(10,11,12,13)        178.0281         estimate D2E/DX2                !
 ! D62   D(10,11,12,28)         -2.1811         estimate D2E/DX2                !
 ! D63   D(16,11,12,13)         -0.213          estimate D2E/DX2                !
 ! D64   D(16,11,12,28)        179.5777         estimate D2E/DX2                !
 ! D65   D(10,11,16,15)       -177.9825         estimate D2E/DX2                !
 ! D66   D(10,11,16,32)          1.2752         estimate D2E/DX2                !
 ! D67   D(12,11,16,15)          0.2483         estimate D2E/DX2                !
 ! D68   D(12,11,16,32)        179.506          estimate D2E/DX2                !
 ! D69   D(11,12,13,14)         -0.0077         estimate D2E/DX2                !
 ! D70   D(11,12,13,29)       -179.9902         estimate D2E/DX2                !
 ! D71   D(28,12,13,14)       -179.7981         estimate D2E/DX2                !
 ! D72   D(28,12,13,29)          0.2193         estimate D2E/DX2                !
 ! D73   D(12,13,14,15)          0.1954         estimate D2E/DX2                !
 ! D74   D(12,13,14,30)       -179.8193         estimate D2E/DX2                !
 ! D75   D(29,13,14,15)       -179.8221         estimate D2E/DX2                !
 ! D76   D(29,13,14,30)          0.1633         estimate D2E/DX2                !
 ! D77   D(13,14,15,16)         -0.1604         estimate D2E/DX2                !
 ! D78   D(13,14,15,31)       -179.8861         estimate D2E/DX2                !
 ! D79   D(30,14,15,16)        179.8543         estimate D2E/DX2                !
 ! D80   D(30,14,15,31)          0.1286         estimate D2E/DX2                !
 ! D81   D(14,15,16,11)         -0.0633         estimate D2E/DX2                !
 ! D82   D(14,15,16,32)       -179.3155         estimate D2E/DX2                !
 ! D83   D(31,15,16,11)        179.6628         estimate D2E/DX2                !
 ! D84   D(31,15,16,32)          0.4106         estimate D2E/DX2                !
 --------------------------------------------------------------------------------
 Trust Radius=3.00D-01 FncErr=1.00D-07 GrdErr=1.00D-06 EigMax=2.50D+02 EigMin=1.00D-04
 Number of steps in this run=    184 maximum allowed number of steps=    198.
 GradGradGradGradGradGradGradGradGradGradGradGradGradGradGradGradGradGrad

                          Input orientation:                          
 ---------------------------------------------------------------------
 Center     Atomic      Atomic             Coordinates (Angstroms)
 Number     Number       Type             X           Y           Z
 ---------------------------------------------------------------------
      1          7           0       -0.195417   -0.091448   -1.493732
      2         16           0        0.753024    0.243825   -0.340379
      3          6           0        0.793302    2.034805    0.052006
      4          6           0       -0.369840    2.778777    0.096400
      5          6           0       -0.303408    4.126382    0.410271
      6          6           0        0.922883    4.714971    0.674349
      7          6           0        2.085276    3.961803    0.624412
      8          6           0        2.019533    2.614697    0.311945
      9          6           0        0.266755   -0.331253    1.349246
     10          6           0        0.342832   -1.847389    1.422242
     11          6           0       -0.682111   -2.478837    0.520915
     12          6           0       -2.025912   -2.465885    0.873131
     13          6           0       -2.980681   -3.008112    0.031629
     14          6           0       -2.600447   -3.570542   -1.174666
     15          6           0       -1.263114   -3.590960   -1.531303
     16          6           0       -0.310095   -3.048895   -0.688056
     17          7           0        2.172829   -0.280464   -0.524606
     18          1           0       -1.137714    0.243338   -1.384514
     19          1           0       -1.320327    2.311292   -0.118036
     20          1           0       -1.207094    4.716509    0.446823
     21          1           0        0.971959    5.766130    0.917069
     22          1           0        3.039716    4.423941    0.827830
     23          1           0        2.900769    1.993413    0.258818
     24          1           0       -0.735529    0.046562    1.541728
     25          1           0        0.982451    0.140919    2.017617
     26          1           0        0.183356   -2.166391    2.456410
     27          1           0        1.346314   -2.143650    1.112668
     28          1           0       -2.326922   -2.030090    1.816763
     29          1           0       -4.022759   -2.991328    0.317750
     30          1           0       -3.345439   -3.991623   -1.833880
     31          1           0       -0.961908   -4.026980   -2.472151
     32          1           0        0.731173   -3.055477   -0.972167
     33          1           0        2.388300   -0.507834   -1.480156
 ---------------------------------------------------------------------
                    Distance matrix (angstroms):
                    1          2          3          4          5
     1  N    0.000000
     2  S    1.530415   0.000000
     3  C    2.808527   1.833902   0.000000
     4  C    3.285900   2.806703   1.381435   0.000000
     5  C    4.628928   4.093137   2.388685   1.385267   0.000000
     6  C    5.390068   4.587991   2.754521   2.398750   1.385627
     7  C    5.110473   4.065596   2.389595   2.775958   2.403904
     8  C    3.935695   2.765972   1.381117   2.404680   2.773250
     9  C    2.890266   1.849867   2.749239   3.412795   4.590999
    10  C    3.446149   2.765550   4.141485   4.864891   6.093246
    11  C    3.161534   3.195987   4.771759   5.283960   6.616992
    12  C    3.819778   4.066648   5.373865   5.554491   6.829293
    13  C    4.311768   4.965283   6.298760   6.348919   7.629689
    14  C    4.241470   5.146960   6.666496   6.848728   8.187249
    15  C    3.658958   4.493183   6.195559   6.634826   8.015492
    16  C    3.067370   3.477515   5.254444   5.880536   7.258854
    17  N    2.565838   1.524686   2.756093   4.026136   5.140626
    18  H    1.005949   2.159886   3.000295   3.034994   4.358365
    19  H    2.988499   2.936434   2.138408   1.080718   2.146575
    20  H    5.282585   4.946378   3.368828   2.139766   1.079924
    21  H    6.440959   5.667888   3.834454   3.376122   2.138266
    22  H    6.020339   4.905817   3.369904   3.855727   3.382215
    23  H    4.123644   2.834237   2.117995   3.367500   3.852174
    24  H    3.086225   2.407702   2.917140   3.112507   4.255803
    25  H    3.710921   2.371365   2.736094   3.532430   4.485634
    26  H    4.477999   3.735731   4.878856   5.507300   6.634954
    27  H    3.658113   2.857163   4.346299   5.311147   6.521368
    28  H    4.388738   4.394317   5.419736   5.469463   6.631363
    29  H    5.132184   5.805812   6.966138   6.832783   8.031434
    30  H    5.024909   6.080047   7.550072   7.643200   8.955009
    31  H    4.127132   5.072004   6.796865   7.298379   8.672905
    32  H    3.148978   3.359320   5.192664   6.032627   7.386514
    33  H    2.617089   2.130308   3.369949   4.571070   5.682866
                    6          7          8          9         10
     6  C    0.000000
     7  C    1.385970   0.000000
     8  C    2.396900   1.384432   0.000000
     9  C    5.133261   4.718341   3.581459   0.000000
    10  C    6.630261   6.117136   4.894312   1.519797   0.000000
    11  C    7.372274   7.010776   5.769457   2.489698   1.503870
    12  C    7.765282   7.634062   6.518655   3.168543   2.508985
    13  C    8.677379   8.636841   7.529720   4.409935   3.785078
    14  C    9.191432   9.051459   7.862023   5.008390   4.286733
    15  C    8.867467   8.538328   7.258341   4.611264   3.787154
    16  C    7.978345   7.523979   6.205114   3.445132   2.514615
    17  N    5.287175   4.395991   3.017494   2.673391   3.097477
    18  H    5.336710   5.315113   4.297619   3.126681   3.800136
    19  H    3.381943   3.856624   3.381066   3.413913   4.736368
    20  H    2.142096   3.382429   3.853172   5.335402   6.814578
    21  H    1.079934   2.140262   3.375666   6.153225   7.656152
    22  H    2.142251   1.079772   2.140158   5.529291   6.852451
    23  H    3.389922   2.161769   1.079534   3.678469   4.759029
    24  H    5.029584   4.911977   3.962076   1.088286   2.182702
    25  H    4.767585   4.213834   3.178747   1.087145   2.171854
    26  H    7.146732   6.672951   5.552393   2.144876   1.093936
    27  H    6.885644   6.169361   4.871986   2.122781   1.091139
    28  H    7.573783   7.536045   6.536834   3.135567   2.704924
    29  H    9.163710   9.260030   8.242381   5.151690   4.646168
    30  H   10.015716   9.939460   8.776728   6.048020   5.366881
    31  H    9.480221   9.093662   7.794360   5.456289   4.649652
    32  H    7.945289   7.322901   5.954803   3.609160   2.709886
    33  H    5.836696   4.949614   3.619090   3.540855   3.795032
                   11         12         13         14         15
    11  C    0.000000
    12  C    1.389254   0.000000
    13  C    2.408933   1.383372   0.000000
    14  C    2.783313   2.396629   1.384215   0.000000
    15  C    2.405407   2.762057   2.394265   1.384221   0.000000
    16  C    1.387433   2.391910   2.766159   2.398879   1.383165
    17  N    3.751885   4.935501   5.857314   5.833641   4.876323
    18  H    3.353874   3.636722   3.996738   4.090147   3.839155
    19  H    4.874517   4.929674   5.574516   6.111558   6.069364
    20  H    7.214853   7.241477   7.936483   8.558380   8.539916
    21  H    8.418573   8.761007   9.664093  10.213270   9.926994
    22  H    7.848219   8.551745   9.597631   9.986651   9.397792
    23  H    5.736440   6.673448   7.723879   7.954612   7.192195
    24  H    2.724437   2.902499   4.080703   4.892868   4.790974
    25  H    3.445867   4.141922   5.437550   6.066528   5.618212
    26  H    2.143081   2.734472   4.074210   4.786012   4.474766
    27  H    2.139400   3.396045   4.542998   4.779628   3.986779
    28  H    2.141495   1.082112   2.137903   3.375864   3.844158
    29  H    3.385831   2.138209   1.080775   2.141440   3.375530
    30  H    3.863534   3.375935   2.140202   1.080225   2.142000
    31  H    3.381342   3.841879   3.373788   2.139302   1.079830
    32  H    2.135223   3.369608   3.845478   3.377275   2.139288
    33  H    4.161318   5.371890   6.112515   5.861835   4.779237
                   16         17         18         19         20
    16  C    0.000000
    17  N    3.722344   0.000000
    18  H    3.465373   3.460276   0.000000
    19  H    5.484259   4.368598   2.431820   0.000000
    20  H    7.898991   6.110426   4.834033   2.473248   0.000000
    21  H    9.051230   6.331020   6.344229   4.273397   2.463962
    22  H    8.328411   4.971117   6.310534   4.936388   4.273894
    23  H    6.052362   2.512800   4.698153   4.249791   4.932052
    24  H    3.838592   3.582629   2.960299   2.868068   4.819710
    25  H    4.377928   2.838567   4.009998   3.817633   5.310135
    26  H    3.303024   4.049837   4.722787   5.379450   7.303842
    27  H    2.608787   2.614433   4.254883   5.335928   7.350172
    28  H    3.373377   5.365721   4.102544   4.858424   6.974765
    29  H    3.846925   6.814959   4.656635   5.967481   8.207033
    30  H    3.378604   6.777772   4.796966   6.839002   9.252335
    31  H    2.136471   5.258887   4.410156   6.770821   9.221124
    32  H    1.079352   3.159016   3.813784   5.808649   8.134751
    33  H    3.790218   1.005585   3.606408   4.853531   6.628263
                   21         22         23         24         25
    21  H    0.000000
    22  H    2.466790   0.000000
    23  H    4.288006   2.500110   0.000000
    24  H    6.001598   5.824395   4.319577   0.000000
    25  H    5.731869   4.898185   3.194535   1.785168   0.000000
    26  H    8.118889   7.365021   5.433020   2.564791   2.480880
    27  H    7.921049   6.788372   4.501186   3.052080   2.484066
    28  H    8.513114   8.451823   6.778239   2.630715   3.963025
    29  H   10.099479  10.253046   8.531492   4.640343   6.144318
    30  H   11.019138  10.893881   8.900290   5.874802   7.116359
    31  H   10.541900   9.915692   7.656605   5.723305   6.427280
    32  H    9.024851   8.031878   5.631497   4.253649   4.383935
    33  H    6.864061   5.483936   3.089157   4.381489   3.825142
                   26         27         28         29         30
    26  H    0.000000
    27  H    1.777253   0.000000
    28  H    2.594075   3.741833   0.000000
    29  H    4.790177   5.493396   2.459041   0.000000
    30  H    5.847261   5.840351   4.267574   2.467562   0.000000
    31  H    5.391116   4.661089   4.923984   4.269067   2.467764
    32  H    3.584092   2.357195   4.263976   4.926243   4.270560
    33  H    4.807197   3.237958   5.951493   7.106468   6.718458
                   31         32         33
    31  H    0.000000
    32  H    2.461766   0.000000
    33  H    4.959066   3.081333   0.000000
 Stoichiometry    C14H16N2S
 Framework group  C1[X(C14H16N2S)]
 Deg. of freedom    93
 Full point group                 C1      NOp   1
 Largest Abelian subgroup         C1      NOp   1
 Largest concise Abelian subgroup C1      NOp   1
                         Standard orientation:                         
 ---------------------------------------------------------------------
 Center     Atomic      Atomic             Coordinates (Angstroms)
 Number     Number       Type             X           Y           Z
 ---------------------------------------------------------------------
      1          7           0       -0.315101   -0.024878   -1.487574
      2         16           0        0.478927   -0.651335   -0.338992
      3          6           0        2.182814    0.013365   -0.204304
      4          6           0        2.430297    1.366022   -0.336346
      5          6           0        3.728106    1.834845   -0.214434
      6          6           0        4.762773    0.947917    0.036135
      7          6           0        4.505950   -0.408038    0.163968
      8          6           0        3.209014   -0.877160    0.043413
      9          6           0       -0.048666   -0.229405    1.383108
     10          6           0       -1.404903   -0.849586    1.675989
     11          6           0       -2.472451   -0.233949    0.814040
     12          6           0       -2.931414    1.050148    1.079513
     13          6           0       -3.883821    1.640352    0.268157
     14          6           0       -4.388644    0.950542   -0.820589
     15          6           0       -3.939479   -0.330812   -1.089753
     16          6           0       -2.987692   -0.919269   -0.276755
     17          7           0        0.515279   -2.175428   -0.361020
     18          1           0       -0.352762    0.980360   -1.483969
     19          1           0        1.616906    2.048259   -0.538588
     20          1           0        3.931736    2.890454   -0.316713
     21          1           0        5.773821    1.315911    0.128985
     22          1           0        5.314719   -1.097095    0.356323
     23          1           0        2.966428   -1.925313    0.132412
     24          1           0       -0.060407    0.856151    1.459239
     25          1           0        0.729763   -0.643536    2.019056
     26          1           0       -1.645140   -0.706770    2.733622
     27          1           0       -1.330604   -1.919027    1.472619
     28          1           0       -2.541697    1.591518    1.931572
     29          1           0       -4.232117    2.640029    0.485894
     30          1           0       -5.130233    1.411525   -1.456535
     31          1           0       -4.329023   -0.872141   -1.939018
     32          1           0       -2.630109   -1.914224   -0.494009
     33          1           0        0.283335   -2.562417   -1.259710
 ---------------------------------------------------------------------
 Rotational constants (GHZ):           1.0911331           0.2301197           0.2183551
 Standard basis: def2SVP (5D, 7F)
 There are   339 symmetry adapted cartesian basis functions of A   symmetry.
 There are   322 symmetry adapted basis functions of A   symmetry.
   322 basis functions,   549 primitive gaussians,   339 cartesian basis functions
    65 alpha electrons       65 beta electrons
       nuclear repulsion energy      1301.5675240433 Hartrees.
 NAtoms=   33 NActive=   33 NUniq=   33 SFac= 1.00D+00 NAtFMM=   60 NAOKFM=F Big=F
 Integral buffers will be    131072 words long.
 Raffenetti 2 integral format.
 Two-electron integral symmetry is turned on.
 Nuclear repulsion after empirical dispersion term =     1301.5260020197 Hartrees.
 One-electron integrals computed using PRISM.
   1 Symmetry operations used in ECPInt.
 ECPInt:  NShTT=   11628 NPrTT=   42474 LenC2=   10727 LenP2D=   28119.
 LDataN:  DoStor=T MaxTD1= 4 Len=   56
 NBasis=   322 RedAO= T EigKep=  2.59D-04  NBF=   322
 NBsUse=   322 1.00D-06 EigRej= -1.00D+00 NBFU=   322
 ExpMin= 1.22D-01 ExpMax= 9.18D+03 ExpMxC= 1.38D+03 IAcc=3 IRadAn=         5 AccDes= 0.00D+00
 Harris functional with IExCor= 1009 and IRadAn=       5 diagonalized for initial guess.
 HarFok:  IExCor= 1009 AccDes= 0.00D+00 IRadAn=         5 IDoV= 1 UseB2=F ITyADJ=14
 ICtDFT=  3500011 ScaDFX=  1.000000  1.000000  1.000000  1.000000
 FoFCou: FMM=F IPFlag=           0 FMFlag=      100000 FMFlg1=           0
         NFxFlg=           0 DoJE=T BraDBF=F KetDBF=T FulRan=T
         wScrn=  0.000000 ICntrl=       500 IOpCl=  0 I1Cent=   200000004 NGrid=           0
         NMat0=    1 NMatS0=      1 NMatT0=    0 NMatD0=    1 NMtDS0=    0 NMtDT0=    0
 Petite list used in FoFCou.
 Requested convergence on RMS density matrix=1.00D-08 within 128 cycles.
 Requested convergence on MAX density matrix=1.00D-06.
 Requested convergence on             energy=1.00D-06.
 No special actions if energy rises.
 Integral accuracy reduced to 1.0D-05 until final iterations.
 Initial convergence to 1.0D-05 achieved.  Increase integral accuracy.
 SCF Done:  E(RPBE1PBE) =  -1049.21560595     A.U. after   14 cycles
            NFock= 14  Conv=0.77D-08     -V/T= 2.0069

 **********************************************************************

            Population analysis using the SCF Density.

 **********************************************************************

 Orbital symmetries:
       Occupied  (A) (A) (A) (A) (A) (A) (A) (A) (A) (A) (A) (A)
                 (A) (A) (A) (A) (A) (A) (A) (A) (A) (A) (A) (A)
                 (A) (A) (A) (A) (A) (A) (A) (A) (A) (A) (A) (A)
                 (A) (A) (A) (A) (A) (A) (A) (A) (A) (A) (A) (A)
                 (A) (A) (A) (A) (A) (A) (A) (A) (A) (A) (A) (A)
                 (A) (A) (A) (A) (A)
       Virtual   (A) (A) (A) (A) (A) (A) (A) (A) (A) (A) (A) (A)
                 (A) (A) (A) (A) (A) (A) (A) (A) (A) (A) (A) (A)
                 (A) (A) (A) (A) (A) (A) (A) (A) (A) (A) (A) (A)
                 (A) (A) (A) (A) (A) (A) (A) (A) (A) (A) (A) (A)
                 (A) (A) (A) (A) (A) (A) (A) (A) (A) (A) (A) (A)
                 (A) (A) (A) (A) (A) (A) (A) (A) (A) (A) (A) (A)
                 (A) (A) (A) (A) (A) (A) (A) (A) (A) (A) (A) (A)
                 (A) (A) (A) (A) (A) (A) (A) (A) (A) (A) (A) (A)
                 (A) (A) (A) (A) (A) (A) (A) (A) (A) (A) (A) (A)
                 (A) (A) (A) (A) (A) (A) (A) (A) (A) (A) (A) (A)
                 (A) (A) (A) (A) (A) (A) (A) (A) (A) (A) (A) (A)
                 (A) (A) (A) (A) (A) (A) (A) (A) (A) (A) (A) (A)
                 (A) (A) (A) (A) (A) (A) (A) (A) (A) (A) (A) (A)
                 (A) (A) (A) (A) (A) (A) (A) (A) (A) (A) (A) (A)
                 (A) (A) (A) (A) (A) (A) (A) (A) (A) (A) (A) (A)
                 (A) (A) (A) (A) (A) (A) (A) (A) (A) (A) (A) (A)
                 (A) (A) (A) (A) (A) (A) (A) (A) (A) (A) (A) (A)
                 (A) (A) (A) (A) (A) (A) (A) (A) (A) (A) (A) (A)
                 (A) (A) (A) (A) (A) (A) (A) (A) (A) (A) (A) (A)
                 (A) (A) (A) (A) (A) (A) (A) (A) (A) (A) (A) (A)
                 (A) (A) (A) (A) (A) (A) (A) (A) (A) (A) (A) (A)
                 (A) (A) (A) (A) (A)
 The electronic state is 1-A.
 Alpha  occ. eigenvalues --  -89.17814 -14.34447 -14.33904 -10.26483 -10.26201
 Alpha  occ. eigenvalues --  -10.25904 -10.25360 -10.25232 -10.25108 -10.25013
 Alpha  occ. eigenvalues --  -10.24172 -10.23513 -10.22909 -10.22848 -10.22635
 Alpha  occ. eigenvalues --  -10.22485 -10.22335  -8.15277  -6.09389  -6.09317
 Alpha  occ. eigenvalues --   -6.09284  -1.00619  -0.89778  -0.87816  -0.84933
 Alpha  occ. eigenvalues --   -0.81969  -0.79012  -0.78258  -0.75715  -0.75253
 Alpha  occ. eigenvalues --   -0.68927  -0.64414  -0.63908  -0.61772  -0.60608
 Alpha  occ. eigenvalues --   -0.58638  -0.56101  -0.52957  -0.52478  -0.50318
 Alpha  occ. eigenvalues --   -0.49509  -0.48126  -0.47926  -0.46901  -0.45503
 Alpha  occ. eigenvalues --   -0.45254  -0.44847  -0.43320  -0.42764  -0.40663
 Alpha  occ. eigenvalues --   -0.40400  -0.38841  -0.38178  -0.37459  -0.37261
 Alpha  occ. eigenvalues --   -0.34672  -0.34467  -0.30869  -0.29090  -0.28578
 Alpha  occ. eigenvalues --   -0.27786  -0.26567  -0.25765  -0.24775  -0.23314
 Alpha virt. eigenvalues --   -0.02935  -0.01959   0.00183   0.00741   0.05186
 Alpha virt. eigenvalues --    0.06586   0.07574   0.08161   0.09128   0.09219
 Alpha virt. eigenvalues --    0.10014   0.11356   0.11523   0.12487   0.13165
 Alpha virt. eigenvalues --    0.13761   0.14206   0.14658   0.16133   0.16476
 Alpha virt. eigenvalues --    0.17149   0.17386   0.18129   0.19142   0.19438
 Alpha virt. eigenvalues --    0.22074   0.22433   0.25705   0.28632   0.29000
 Alpha virt. eigenvalues --    0.30635   0.31085   0.31196   0.32385   0.32841
 Alpha virt. eigenvalues --    0.34382   0.35487   0.37822   0.40548   0.41063
 Alpha virt. eigenvalues --    0.41745   0.42051   0.42731   0.43791   0.44131
 Alpha virt. eigenvalues --    0.44575   0.45597   0.46459   0.48102   0.48430
 Alpha virt. eigenvalues --    0.48804   0.49721   0.50115   0.50957   0.51140
 Alpha virt. eigenvalues --    0.51689   0.53049   0.54623   0.54944   0.55796
 Alpha virt. eigenvalues --    0.56432   0.57151   0.57996   0.60351   0.61420
 Alpha virt. eigenvalues --    0.62361   0.62748   0.63082   0.64904   0.65761
 Alpha virt. eigenvalues --    0.65868   0.66547   0.66864   0.67259   0.67934
 Alpha virt. eigenvalues --    0.68470   0.69283   0.70068   0.70445   0.71188
 Alpha virt. eigenvalues --    0.71249   0.71392   0.72594   0.73032   0.73320
 Alpha virt. eigenvalues --    0.74025   0.74669   0.74849   0.76031   0.76486
 Alpha virt. eigenvalues --    0.76960   0.77367   0.77799   0.78343   0.80171
 Alpha virt. eigenvalues --    0.81044   0.82169   0.83426   0.85223   0.85959
 Alpha virt. eigenvalues --    0.87141   0.88074   0.89023   0.92044   0.93668
 Alpha virt. eigenvalues --    0.95091   0.95562   0.97278   0.98442   1.00403
 Alpha virt. eigenvalues --    1.01077   1.03475   1.05808   1.08685   1.10660
 Alpha virt. eigenvalues --    1.11209   1.13035   1.13502   1.16231   1.16628
 Alpha virt. eigenvalues --    1.19195   1.20570   1.21316   1.23612   1.24150
 Alpha virt. eigenvalues --    1.26193   1.26654   1.27238   1.28121   1.29123
 Alpha virt. eigenvalues --    1.29999   1.30618   1.30851   1.31375   1.33020
 Alpha virt. eigenvalues --    1.34333   1.34575   1.38926   1.44913   1.48069
 Alpha virt. eigenvalues --    1.49957   1.52580   1.53333   1.54437   1.56389
 Alpha virt. eigenvalues --    1.63342   1.66219   1.67702   1.69070   1.69521
 Alpha virt. eigenvalues --    1.69906   1.70943   1.71496   1.72435   1.73728
 Alpha virt. eigenvalues --    1.74782   1.75718   1.76094   1.76279   1.76945
 Alpha virt. eigenvalues --    1.77372   1.78220   1.79275   1.79878   1.80402
 Alpha virt. eigenvalues --    1.81018   1.81903   1.82474   1.83511   1.84533
 Alpha virt. eigenvalues --    1.85788   1.87092   1.89598   1.90667   1.90857
 Alpha virt. eigenvalues --    1.93896   1.95256   1.95479   1.96026   1.97504
 Alpha virt. eigenvalues --    1.98514   1.99421   2.00609   2.01441   2.01964
 Alpha virt. eigenvalues --    2.03407   2.06225   2.08646   2.10707   2.12448
 Alpha virt. eigenvalues --    2.14370   2.14682   2.15734   2.16557   2.16800
 Alpha virt. eigenvalues --    2.18062   2.19124   2.20293   2.21834   2.24321
 Alpha virt. eigenvalues --    2.27331   2.29714   2.30529   2.30661   2.31199
 Alpha virt. eigenvalues --    2.32384   2.33281   2.34366   2.36087   2.36618
 Alpha virt. eigenvalues --    2.38187   2.38371   2.40892   2.43014   2.43399
 Alpha virt. eigenvalues --    2.44519   2.50582   2.52154   2.54192   2.55407
 Alpha virt. eigenvalues --    2.59394   2.61348   2.62162   2.62536   2.64462
 Alpha virt. eigenvalues --    2.65457   2.66306   2.66622   2.68077   2.68836
 Alpha virt. eigenvalues --    2.70480   2.75514   2.76003   2.77653   2.78609
 Alpha virt. eigenvalues --    2.83047   2.85867   2.87467   2.88556   2.90520
 Alpha virt. eigenvalues --    2.91788   2.92446   2.93940   2.96797   2.96885
 Alpha virt. eigenvalues --    3.00886   3.06327   3.07398   3.14037   3.15708
 Alpha virt. eigenvalues --    3.19031   3.24329   3.27428   3.31091   3.33581
 Alpha virt. eigenvalues --    3.65775   3.70728
          Condensed to atoms (all electrons):
               1          2          3          4          5          6
     1  N    6.862334   0.340967  -0.036849  -0.002656   0.000255  -0.000016
     2  S    0.340967  14.714913   0.090876  -0.030504   0.001501   0.000313
     3  C   -0.036849   0.090876   5.919004   0.162638   0.096373  -0.181544
     4  C   -0.002656  -0.030504   0.162638   5.162615   0.300732   0.088538
     5  C    0.000255   0.001501   0.096373   0.300732   5.035780   0.281071
     6  C   -0.000016   0.000313  -0.181544   0.088538   0.281071   5.117001
     7  C   -0.000086   0.003489   0.099867  -0.139618   0.083995   0.259831
     8  C    0.003335  -0.042159   0.287222   0.047856  -0.132254   0.099920
     9  C   -0.038133   0.220076  -0.133233  -0.006349  -0.000605  -0.000119
    10  C   -0.015575  -0.053883   0.009889  -0.000176   0.000010   0.000001
    11  C    0.025024  -0.002574  -0.000356   0.000072  -0.000001  -0.000000
    12  C   -0.002252   0.000978  -0.000182  -0.000018   0.000000  -0.000000
    13  C    0.000672  -0.000317   0.000001  -0.000001  -0.000000  -0.000000
    14  C   -0.001332   0.000091  -0.000000  -0.000000   0.000000  -0.000000
    15  C    0.002754  -0.000113   0.000003   0.000001  -0.000000   0.000000
    16  C   -0.011953   0.003549   0.000340  -0.000033   0.000000   0.000000
    17  N   -0.067719   0.376977  -0.079963   0.006164  -0.000007  -0.000048
    18  H    0.321992  -0.003651  -0.009481   0.005878   0.000771   0.000004
    19  H    0.003376  -0.002491  -0.090993   0.438377  -0.046382   0.013265
    20  H    0.000005  -0.000129   0.017117  -0.071328   0.453269  -0.071599
    21  H   -0.000000   0.000020  -0.001489   0.014889  -0.068566   0.449556
    22  H    0.000001  -0.000144   0.016964  -0.001943   0.014461  -0.074187
    23  H    0.000771  -0.012612  -0.068202   0.015067  -0.001978   0.012623
    24  H    0.000901  -0.016969   0.002522   0.005587   0.000246   0.000012
    25  H    0.002608  -0.007590   0.004293  -0.001355   0.000014  -0.000012
    26  H   -0.000235   0.005565  -0.000183  -0.000023   0.000000   0.000000
    27  H    0.001292  -0.013634   0.000383  -0.000008  -0.000001   0.000000
    28  H   -0.000021   0.000194   0.000013  -0.000012  -0.000000  -0.000000
    29  H   -0.000002  -0.000002  -0.000000  -0.000000  -0.000000  -0.000000
    30  H   -0.000012  -0.000000   0.000000   0.000000   0.000000   0.000000
    31  H    0.000073   0.000001  -0.000001   0.000000  -0.000000  -0.000000
    32  H   -0.000643   0.002975   0.000227  -0.000006   0.000000   0.000000
    33  H    0.005154  -0.012829   0.002182  -0.000351  -0.000022   0.000006
               7          8          9         10         11         12
     1  N   -0.000086   0.003335  -0.038133  -0.015575   0.025024  -0.002252
     2  S    0.003489  -0.042159   0.220076  -0.053883  -0.002574   0.000978
     3  C    0.099867   0.287222  -0.133233   0.009889  -0.000356  -0.000182
     4  C   -0.139618   0.047856  -0.006349  -0.000176   0.000072  -0.000018
     5  C    0.083995  -0.132254  -0.000605   0.000010  -0.000001   0.000000
     6  C    0.259831   0.099920  -0.000119   0.000001  -0.000000  -0.000000
     7  C    5.130662   0.223085  -0.000589  -0.000018   0.000001  -0.000000
     8  C    0.223085   5.100831  -0.001527  -0.000012  -0.000026   0.000000
     9  C   -0.000589  -0.001527   5.210176   0.359249  -0.079319  -0.006496
    10  C   -0.000018  -0.000012   0.359249   4.724172   0.322941  -0.090532
    11  C    0.000001  -0.000026  -0.079319   0.322941   5.507089   0.260146
    12  C   -0.000000   0.000000  -0.006496  -0.090532   0.260146   5.155886
    13  C    0.000000  -0.000000   0.000851   0.008538   0.092666   0.312889
    14  C   -0.000000   0.000000  -0.000068   0.001352  -0.167278   0.081832
    15  C    0.000000  -0.000000  -0.000454   0.009063   0.102385  -0.136944
    16  C   -0.000000   0.000001  -0.013779  -0.048876   0.246251   0.046504
    17  N    0.002054   0.003506  -0.095154   0.008282  -0.010432  -0.000023
    18  H   -0.000042  -0.000879  -0.003617   0.000201   0.000389   0.000645
    19  H   -0.001359   0.012669   0.000798  -0.000024  -0.000028   0.000071
    20  H    0.014403  -0.001966   0.000031  -0.000000   0.000000   0.000000
    21  H   -0.068136   0.014086   0.000000   0.000000   0.000000  -0.000000
    22  H    0.456488  -0.072115   0.000018  -0.000000  -0.000000   0.000000
    23  H   -0.057823   0.438473   0.001505  -0.000248   0.000011   0.000000
    24  H    0.000025  -0.000115   0.348038  -0.014163  -0.010315   0.007411
    25  H    0.000271   0.001844   0.345961  -0.016021   0.011380  -0.000126
    26  H   -0.000001  -0.000012  -0.022210   0.376988  -0.017872  -0.008475
    27  H    0.000005   0.000103  -0.022036   0.371861  -0.019394   0.009184
    28  H    0.000000  -0.000000  -0.001292  -0.011972  -0.078977   0.446256
    29  H    0.000000   0.000000   0.000007  -0.000348   0.016588  -0.073425
    30  H   -0.000000   0.000000   0.000000   0.000040  -0.001504   0.014890
    31  H    0.000000   0.000000   0.000013  -0.000362   0.017742  -0.001935
    32  H   -0.000000  -0.000001  -0.003474  -0.013070  -0.080974   0.015341
    33  H   -0.000094  -0.000142   0.006953  -0.000015  -0.000128   0.000010
              13         14         15         16         17         18
     1  N    0.000672  -0.001332   0.002754  -0.011953  -0.067719   0.321992
     2  S   -0.000317   0.000091  -0.000113   0.003549   0.376977  -0.003651
     3  C    0.000001  -0.000000   0.000003   0.000340  -0.079963  -0.009481
     4  C   -0.000001  -0.000000   0.000001  -0.000033   0.006164   0.005878
     5  C   -0.000000   0.000000  -0.000000   0.000000  -0.000007   0.000771
     6  C   -0.000000  -0.000000   0.000000   0.000000  -0.000048   0.000004
     7  C    0.000000  -0.000000   0.000000  -0.000000   0.002054  -0.000042
     8  C   -0.000000   0.000000  -0.000000   0.000001   0.003506  -0.000879
     9  C    0.000851  -0.000068  -0.000454  -0.013779  -0.095154  -0.003617
    10  C    0.008538   0.001352   0.009063  -0.048876   0.008282   0.000201
    11  C    0.092666  -0.167278   0.102385   0.246251  -0.010432   0.000389
    12  C    0.312889   0.081832  -0.136944   0.046504  -0.000023   0.000645
    13  C    5.041702   0.281012   0.084096  -0.136510  -0.000008   0.000170
    14  C    0.281012   5.126825   0.268128   0.091549   0.000012   0.000289
    15  C    0.084096   0.268128   5.055667   0.294505   0.000060  -0.000055
    16  C   -0.136510   0.091549   0.294505   5.066827   0.002164  -0.000612
    17  N   -0.000008   0.000012   0.000060   0.002164   6.869074   0.004366
    18  H    0.000170   0.000289  -0.000055  -0.000612   0.004366   0.560199
    19  H   -0.000009   0.000000  -0.000002  -0.000003   0.000300   0.004245
    20  H    0.000000  -0.000000   0.000000  -0.000000   0.000001  -0.000006
    21  H    0.000000  -0.000000   0.000000  -0.000000   0.000000  -0.000000
    22  H   -0.000000   0.000000  -0.000000  -0.000000  -0.000007   0.000000
    23  H    0.000000  -0.000000  -0.000000  -0.000002   0.034205  -0.000129
    24  H   -0.000799  -0.000003   0.000064   0.000365   0.005250   0.000856
    25  H    0.000010  -0.000003   0.000025  -0.000375   0.004811  -0.000072
    26  H    0.000526   0.000075  -0.000626   0.006857   0.000121   0.000017
    27  H   -0.000473   0.000012   0.000794  -0.007930   0.025718  -0.000212
    28  H   -0.064294   0.014832  -0.001761   0.015104  -0.000001  -0.000031
    29  H    0.451362  -0.073628   0.014906  -0.001884  -0.000000   0.000006
    30  H   -0.071827   0.449794  -0.070320   0.014669   0.000000   0.000002
    31  H    0.015152  -0.077002   0.451841  -0.069952  -0.000014  -0.000015
    32  H   -0.001996   0.015480  -0.064448   0.452723   0.007830   0.000152
    33  H   -0.000000  -0.000002  -0.000053   0.000270   0.333859  -0.000198
              19         20         21         22         23         24
     1  N    0.003376   0.000005  -0.000000   0.000001   0.000771   0.000901
     2  S   -0.002491  -0.000129   0.000020  -0.000144  -0.012612  -0.016969
     3  C   -0.090993   0.017117  -0.001489   0.016964  -0.068202   0.002522
     4  C    0.438377  -0.071328   0.014889  -0.001943   0.015067   0.005587
     5  C   -0.046382   0.453269  -0.068566   0.014461  -0.001978   0.000246
     6  C    0.013265  -0.071599   0.449556  -0.074187   0.012623   0.000012
     7  C   -0.001359   0.014403  -0.068136   0.456488  -0.057823   0.000025
     8  C    0.012669  -0.001966   0.014086  -0.072115   0.438473  -0.000115
     9  C    0.000798   0.000031   0.000000   0.000018   0.001505   0.348038
    10  C   -0.000024  -0.000000   0.000000  -0.000000  -0.000248  -0.014163
    11  C   -0.000028   0.000000   0.000000  -0.000000   0.000011  -0.010315
    12  C    0.000071   0.000000  -0.000000   0.000000   0.000000   0.007411
    13  C   -0.000009   0.000000   0.000000  -0.000000   0.000000  -0.000799
    14  C    0.000000  -0.000000  -0.000000   0.000000  -0.000000  -0.000003
    15  C   -0.000002   0.000000   0.000000  -0.000000  -0.000000   0.000064
    16  C   -0.000003  -0.000000  -0.000000  -0.000000  -0.000002   0.000365
    17  N    0.000300   0.000001   0.000000  -0.000007   0.034205   0.005250
    18  H    0.004245  -0.000006  -0.000000   0.000000  -0.000129   0.000856
    19  H    0.674140  -0.012327  -0.000279   0.000047  -0.000206   0.001130
    20  H   -0.012327   0.663334  -0.012178  -0.000259   0.000032  -0.000020
    21  H   -0.000279  -0.012178   0.661568  -0.012181  -0.000212  -0.000001
    22  H    0.000047  -0.000259  -0.012181   0.660291  -0.010702  -0.000000
    23  H   -0.000206   0.000032  -0.000212  -0.010702   0.616735  -0.000043
    24  H    0.001130  -0.000020  -0.000001  -0.000000  -0.000043   0.618197
    25  H    0.000029  -0.000002  -0.000001  -0.000008   0.000597  -0.014120
    26  H    0.000004   0.000000  -0.000000   0.000000  -0.000001  -0.005376
    27  H   -0.000002  -0.000000   0.000000  -0.000000   0.000096   0.008373
    28  H   -0.000012  -0.000000   0.000000  -0.000000  -0.000000   0.002841
    29  H   -0.000000   0.000000  -0.000000  -0.000000   0.000000   0.000025
    30  H    0.000000  -0.000000  -0.000000   0.000000  -0.000000  -0.000001
    31  H    0.000000   0.000000   0.000000   0.000000   0.000000   0.000000
    32  H   -0.000002  -0.000000  -0.000000  -0.000000  -0.000008   0.000124
    33  H   -0.000030   0.000000   0.000000   0.000000  -0.000597  -0.000360
              25         26         27         28         29         30
     1  N    0.002608  -0.000235   0.001292  -0.000021  -0.000002  -0.000012
     2  S   -0.007590   0.005565  -0.013634   0.000194  -0.000002  -0.000000
     3  C    0.004293  -0.000183   0.000383   0.000013  -0.000000   0.000000
     4  C   -0.001355  -0.000023  -0.000008  -0.000012  -0.000000   0.000000
     5  C    0.000014   0.000000  -0.000001  -0.000000  -0.000000   0.000000
     6  C   -0.000012   0.000000   0.000000  -0.000000  -0.000000   0.000000
     7  C    0.000271  -0.000001   0.000005   0.000000   0.000000  -0.000000
     8  C    0.001844  -0.000012   0.000103  -0.000000   0.000000   0.000000
     9  C    0.345961  -0.022210  -0.022036  -0.001292   0.000007   0.000000
    10  C   -0.016021   0.376988   0.371861  -0.011972  -0.000348   0.000040
    11  C    0.011380  -0.017872  -0.019394  -0.078977   0.016588  -0.001504
    12  C   -0.000126  -0.008475   0.009184   0.446256  -0.073425   0.014890
    13  C    0.000010   0.000526  -0.000473  -0.064294   0.451362  -0.071827
    14  C   -0.000003   0.000075   0.000012   0.014832  -0.073628   0.449794
    15  C    0.000025  -0.000626   0.000794  -0.001761   0.014906  -0.070320
    16  C   -0.000375   0.006857  -0.007930   0.015104  -0.001884   0.014669
    17  N    0.004811   0.000121   0.025718  -0.000001  -0.000000   0.000000
    18  H   -0.000072   0.000017  -0.000212  -0.000031   0.000006   0.000002
    19  H    0.000029   0.000004  -0.000002  -0.000012  -0.000000   0.000000
    20  H   -0.000002   0.000000  -0.000000  -0.000000   0.000000  -0.000000
    21  H   -0.000001  -0.000000   0.000000   0.000000  -0.000000  -0.000000
    22  H   -0.000008   0.000000  -0.000000  -0.000000  -0.000000   0.000000
    23  H    0.000597  -0.000001   0.000096  -0.000000   0.000000  -0.000000
    24  H   -0.014120  -0.005376   0.008373   0.002841   0.000025  -0.000001
    25  H    0.603179  -0.006309  -0.004314  -0.000201  -0.000001   0.000000
    26  H   -0.006309   0.632586  -0.021490   0.004390  -0.000006  -0.000001
    27  H   -0.004314  -0.021490   0.604956   0.000066   0.000010  -0.000001
    28  H   -0.000201   0.004390   0.000066   0.695120  -0.013306  -0.000315
    29  H   -0.000001  -0.000006   0.000010  -0.013306   0.685536  -0.012779
    30  H    0.000000  -0.000001  -0.000001  -0.000315  -0.012779   0.680447
    31  H   -0.000000   0.000012  -0.000014   0.000040  -0.000308  -0.012803
    32  H   -0.000062   0.000340   0.006514  -0.000276   0.000032  -0.000278
    33  H   -0.000600   0.000039  -0.001538   0.000000   0.000000  -0.000000
              31         32         33
     1  N    0.000073  -0.000643   0.005154
     2  S    0.000001   0.002975  -0.012829
     3  C   -0.000001   0.000227   0.002182
     4  C    0.000000  -0.000006  -0.000351
     5  C   -0.000000   0.000000  -0.000022
     6  C   -0.000000   0.000000   0.000006
     7  C    0.000000  -0.000000  -0.000094
     8  C    0.000000  -0.000001  -0.000142
     9  C    0.000013  -0.003474   0.006953
    10  C   -0.000362  -0.013070  -0.000015
    11  C    0.017742  -0.080974  -0.000128
    12  C   -0.001935   0.015341   0.000010
    13  C    0.015152  -0.001996  -0.000000
    14  C   -0.077002   0.015480  -0.000002
    15  C    0.451841  -0.064448  -0.000053
    16  C   -0.069952   0.452723   0.000270
    17  N   -0.000014   0.007830   0.333859
    18  H   -0.000015   0.000152  -0.000198
    19  H    0.000000  -0.000002  -0.000030
    20  H    0.000000  -0.000000   0.000000
    21  H    0.000000  -0.000000   0.000000
    22  H    0.000000  -0.000000   0.000000
    23  H    0.000000  -0.000008  -0.000597
    24  H    0.000000   0.000124  -0.000360
    25  H   -0.000000  -0.000062  -0.000600
    26  H    0.000012   0.000340   0.000039
    27  H   -0.000014   0.006514  -0.001538
    28  H    0.000040  -0.000276   0.000000
    29  H   -0.000308   0.000032   0.000000
    30  H   -0.012803  -0.000278  -0.000000
    31  H    0.681466  -0.013476   0.000004
    32  H   -0.013476   0.678688   0.000706
    33  H    0.000004   0.000706   0.530665
 Mulliken charges:
               1
     1  N   -0.394030
     2  S    0.437116
     3  C   -0.107439
     4  C    0.005966
     5  C   -0.018664
     6  C    0.005383
     7  C   -0.006410
     8  C    0.018278
     9  C   -0.065224
    10  C    0.072710
    11  C   -0.133507
    12  C   -0.031635
    13  C   -0.013413
    14  C   -0.011966
    15  C   -0.009516
    16  C    0.050233
    17  N   -0.431377
    18  H    0.118818
    19  H    0.005700
    20  H    0.021622
    21  H    0.022923
    22  H    0.023277
    23  H    0.032647
    24  H    0.060320
    25  H    0.076149
    26  H    0.055299
    27  H    0.061681
    28  H   -0.006384
    29  H    0.007216
    30  H    0.009999
    31  H    0.009538
    32  H   -0.002419
    33  H    0.137110
 Sum of Mulliken charges =  -0.00000
 Mulliken charges with hydrogens summed into heavy atoms:
               1
     1  N   -0.275212
     2  S    0.437116
     3  C   -0.107439
     4  C    0.011666
     5  C    0.002958
     6  C    0.028307
     7  C    0.016866
     8  C    0.050926
     9  C    0.071245
    10  C    0.189689
    11  C   -0.133507
    12  C   -0.038019
    13  C   -0.006197
    14  C   -0.001968
    15  C    0.000022
    16  C    0.047814
    17  N   -0.294266
 Electronic spatial extent (au):  <R**2>=           5111.7619
 Charge=             -0.0000 electrons
 Dipole moment (field-independent basis, Debye):
    X=              2.1380    Y=              2.5262    Z=              1.5505  Tot=              3.6547
 Quadrupole moment (field-independent basis, Debye-Ang):
   XX=            -99.0923   YY=           -103.2714   ZZ=           -108.8301
   XY=              0.8927   XZ=              2.7492   YZ=              1.0736
 Traceless Quadrupole moment (field-independent basis, Debye-Ang):
   XX=              4.6389   YY=              0.4599   ZZ=             -5.0988
   XY=              0.8927   XZ=              2.7492   YZ=              1.0736
 Octapole moment (field-independent basis, Debye-Ang**2):
  XXX=             79.4176  YYY=             14.9976  ZZZ=              8.4315  XYY=              1.8568
  XXY=             13.4279  XXZ=            -15.3648  XZZ=            -13.1611  YZZ=             -6.6088
  YYZ=            -11.2807  XYZ=             -5.3073
 Hexadecapole moment (field-independent basis, Debye-Ang**3):
 XXXX=          -5259.2651 YYYY=           -897.5022 ZZZZ=           -602.5311 XXXY=            -31.5355
 XXXZ=            153.5800 YYYX=             18.8524 YYYZ=             24.6576 ZZZX=              7.1417
 ZZZY=              6.2109 XXYY=           -989.7031 XXZZ=          -1058.2362 YYZZ=           -237.3686
 XXYZ=             -4.7794 YYXZ=             -3.3084 ZZXY=             -8.3767
 N-N= 1.301526002020D+03 E-N=-5.057397984192D+03  KE= 1.042068082711D+03
   1 Symmetry operations used in ECPInt.
 ECPInt:  NShTT=   11628 NPrTT=   42474 LenC2=   10727 LenP2D=   28119.
 LDataN:  DoStor=T MaxTD1= 5 Len=  102
 Calling FoFJK, ICntrl=      2127 FMM=F ISym2X=0 I1Cent= 0 IOpClX= 0 NMat=1 NMatS=1 NMatT=0.
 ***** Axes restored to original set *****
 -------------------------------------------------------------------
 Center     Atomic                   Forces (Hartrees/Bohr)
 Number     Number              X              Y              Z
 -------------------------------------------------------------------
      1        7           0.003621948   -0.000269858   -0.006125322
      2       16          -0.003589977    0.004501413    0.003897601
      3        6           0.000671094   -0.010934645   -0.002982654
      4        6          -0.002791278   -0.000982169   -0.000658594
      5        6          -0.000786640   -0.001037423    0.000038951
      6        6           0.000695885    0.001078276    0.000265040
      7        6          -0.001558909    0.000470819   -0.000235152
      8        6           0.002928387   -0.001324568   -0.000311914
      9        6           0.008162631   -0.008018841   -0.010856618
     10        6          -0.006602730    0.005486987   -0.008598626
     11        6           0.005805759   -0.001780473    0.007191656
     12        6           0.000286723   -0.000190226   -0.000108332
     13        6          -0.002055040    0.000850551    0.000358491
     14        6          -0.000918563   -0.000452792   -0.001334829
     15        6           0.000414611   -0.000908025   -0.000021314
     16        6          -0.001044412   -0.002492717    0.000199995
     17        7           0.012355673   -0.003041163    0.021318442
     18        1          -0.011771441    0.004068093    0.003034828
     19        1          -0.008917323   -0.002999951   -0.002123397
     20        1          -0.007655990    0.004881371    0.000156723
     21        1           0.000397498    0.008920139    0.002080863
     22        1           0.008238265    0.003738971    0.001603709
     23        1           0.008464692   -0.005821418   -0.000541290
     24        1          -0.006970588    0.004889203    0.000535447
     25        1           0.004794681    0.005507613    0.005213212
     26        1           0.000371894   -0.000346609    0.005452272
     27        1           0.005996117   -0.002187895    0.000468575
     28        1          -0.002608703    0.003411554    0.007930162
     29        1          -0.008500948   -0.000122017    0.002371169
     30        1          -0.006142994   -0.003632946   -0.005550699
     31        1           0.002703218   -0.003569832   -0.008028444
     32        1           0.008787872    0.000860320   -0.002569310
     33        1          -0.002781408    0.001448259   -0.012070640
 -------------------------------------------------------------------
 Cartesian Forces:  Max     0.021318442 RMS     0.005294791

 GradGradGradGradGradGradGradGradGradGradGradGradGradGradGradGradGradGrad
 Berny optimization.
 FormGI is forming the generalized inverse of G from B-inverse, IUseBI=4.
 Internal  Forces:  Max     0.014800301 RMS     0.004589013
 Search for a local minimum.
 Step number   1 out of a maximum of  184
 All quantities printed in internal units (Hartrees-Bohrs-Radians)
 Mixed Optimization -- RFO/linear search
 Second derivative matrix not updated -- first step.
 ITU=  0
     Eigenvalues ---    0.00230   0.00230   0.00504   0.00715   0.01505
     Eigenvalues ---    0.01627   0.02249   0.02270   0.02276   0.02280
     Eigenvalues ---    0.02281   0.02283   0.02285   0.02294   0.02296
     Eigenvalues ---    0.02298   0.02301   0.02304   0.02305   0.02308
     Eigenvalues ---    0.02316   0.02331   0.03539   0.03615   0.03933
     Eigenvalues ---    0.04452   0.04906   0.05661   0.06649   0.07713
     Eigenvalues ---    0.07850   0.09011   0.09663   0.11743   0.12623
     Eigenvalues ---    0.15887   0.15999   0.16000   0.16000   0.16000
     Eigenvalues ---    0.16000   0.16000   0.16000   0.16000   0.16000
     Eigenvalues ---    0.16000   0.16000   0.16000   0.19623   0.21985
     Eigenvalues ---    0.21995   0.22000   0.22000   0.22000   0.22000
     Eigenvalues ---    0.22552   0.23473   0.23495   0.23618   0.24988
     Eigenvalues ---    0.24999   0.30386   0.31975   0.34362   0.34681
     Eigenvalues ---    0.35011   0.35145   0.35740   0.35901   0.35908
     Eigenvalues ---    0.35967   0.36002   0.36003   0.36015   0.36022
     Eigenvalues ---    0.36051   0.36073   0.43469   0.43583   0.43609
     Eigenvalues ---    0.43820   0.46657   0.46720   0.47743   0.48031
     Eigenvalues ---    0.48082   0.48233   0.48375   0.48490   0.48510
     Eigenvalues ---    0.48774   0.67426   0.69050
 RFO step:  Lambda=-1.20475805D-02 EMin= 2.30000000D-03
 Linear search not attempted -- first point.
 Iteration  1 RMS(Cart)=  0.14758585 RMS(Int)=  0.00237377
 Iteration  2 RMS(Cart)=  0.00545976 RMS(Int)=  0.00023547
 Iteration  3 RMS(Cart)=  0.00001800 RMS(Int)=  0.00023541
 Iteration  4 RMS(Cart)=  0.00000001 RMS(Int)=  0.00023541
 Variable       Old X    -DE/DX   Delta X   Delta X   Delta X     New X
                                 (Linear)    (Quad)   (Total)
    R1        2.89207   0.00655   0.00000   0.00954   0.00954   2.90161
    R2        1.90097   0.01271   0.00000   0.02656   0.02656   1.92752
    R3        3.46557  -0.00450   0.00000  -0.01814  -0.01814   3.44744
    R4        3.49574  -0.00653   0.00000  -0.02749  -0.02749   3.46825
    R5        2.88124   0.00835   0.00000   0.01188   0.01188   2.89312
    R6        2.61053   0.01151   0.00000   0.02315   0.02316   2.63369
    R7        2.60993   0.01023   0.00000   0.02061   0.02061   2.63055
    R8        2.61778   0.00847   0.00000   0.01711   0.01711   2.63489
    R9        2.04226   0.00956   0.00000   0.02576   0.02576   2.06803
   R10        2.61846   0.01029   0.00000   0.02069   0.02068   2.63913
   R11        2.04076   0.00908   0.00000   0.02440   0.02440   2.06516
   R12        2.61910   0.00984   0.00000   0.01984   0.01983   2.63893
   R13        2.04078   0.00917   0.00000   0.02464   0.02464   2.06542
   R14        2.61620   0.00995   0.00000   0.02014   0.02014   2.63634
   R15        2.04047   0.00918   0.00000   0.02467   0.02467   2.06514
   R16        2.04002   0.01029   0.00000   0.02761   0.02761   2.06763
   R17        2.87200   0.00478   0.00000   0.01512   0.01512   2.88712
   R18        2.05656   0.00821   0.00000   0.02267   0.02267   2.07924
   R19        2.05441   0.00875   0.00000   0.02408   0.02408   2.07849
   R20        2.84190   0.00534   0.00000   0.01610   0.01610   2.85800
   R21        2.06724   0.00520   0.00000   0.01462   0.01462   2.08186
   R22        2.06195   0.00598   0.00000   0.01665   0.01665   2.07861
   R23        2.62531   0.01036   0.00000   0.02126   0.02127   2.64657
   R24        2.62187   0.01000   0.00000   0.02030   0.02030   2.64217
   R25        2.61419   0.01072   0.00000   0.02165   0.02165   2.63584
   R26        2.04490   0.00901   0.00000   0.02440   0.02440   2.06930
   R27        2.61579   0.01029   0.00000   0.02088   0.02088   2.63666
   R28        2.04237   0.00882   0.00000   0.02378   0.02378   2.06614
   R29        2.61580   0.00986   0.00000   0.01992   0.01992   2.63572
   R30        2.04133   0.00904   0.00000   0.02432   0.02432   2.06565
   R31        2.61380   0.00979   0.00000   0.01960   0.01960   2.63340
   R32        2.04058   0.00919   0.00000   0.02469   0.02469   2.06528
   R33        2.03968   0.00915   0.00000   0.02454   0.02454   2.06422
   R34        1.90028   0.01055   0.00000   0.02201   0.02201   1.92229
    A1        2.01062  -0.00272   0.00000  -0.01582  -0.01582   1.99481
    A2        1.97013  -0.00486   0.00000  -0.03150  -0.03147   1.93866
    A3        2.04579  -0.00035   0.00000  -0.00084  -0.00103   2.04476
    A4        1.99402   0.00671   0.00000   0.05015   0.05024   2.04427
    A5        1.68499   0.00354   0.00000   0.00270   0.00253   1.68752
    A6        1.91901  -0.00108   0.00000  -0.00725  -0.00717   1.91184
    A7        1.82167  -0.00469   0.00000  -0.02139  -0.02151   1.80015
    A8        2.11102  -0.00202   0.00000  -0.00807  -0.00811   2.10291
    A9        2.05988   0.00015   0.00000   0.00021   0.00017   2.06004
   A10        2.11225   0.00187   0.00000   0.00797   0.00796   2.12021
   A11        2.08382  -0.00108   0.00000  -0.00424  -0.00424   2.07958
   A12        2.09576   0.00176   0.00000   0.00920   0.00919   2.10496
   A13        2.10359  -0.00068   0.00000  -0.00498  -0.00498   2.09861
   A14        2.09307   0.00019   0.00000   0.00045   0.00044   2.09352
   A15        2.09340  -0.00023   0.00000  -0.00101  -0.00102   2.09238
   A16        2.09671   0.00004   0.00000   0.00055   0.00055   2.09726
   A17        2.09965   0.00018   0.00000   0.00020   0.00019   2.09983
   A18        2.09038  -0.00011   0.00000  -0.00020  -0.00020   2.09018
   A19        2.09316  -0.00007   0.00000  -0.00000  -0.00000   2.09316
   A20        2.09102   0.00101   0.00000   0.00429   0.00429   2.09531
   A21        2.09667  -0.00026   0.00000  -0.00071  -0.00071   2.09596
   A22        2.09550  -0.00075   0.00000  -0.00358  -0.00358   2.09191
   A23        2.08655  -0.00218   0.00000  -0.00869  -0.00868   2.07788
   A24        2.06447   0.00120   0.00000   0.00498   0.00497   2.06944
   A25        2.13216   0.00098   0.00000   0.00370   0.00369   2.13585
   A26        1.91860   0.01067   0.00000   0.05107   0.05085   1.96946
   A27        1.87100  -0.00426   0.00000  -0.01467  -0.01553   1.85546
   A28        1.82706  -0.00438   0.00000  -0.02650  -0.02657   1.80048
   A29        1.96485  -0.00104   0.00000   0.01086   0.01070   1.97555
   A30        1.95066  -0.00202   0.00000  -0.00787  -0.00742   1.94324
   A31        1.92493   0.00088   0.00000  -0.01494  -0.01532   1.90962
   A32        1.93475   0.01480   0.00000   0.07083   0.07031   2.00505
   A33        1.90606  -0.00611   0.00000  -0.03982  -0.03942   1.86664
   A34        1.87892  -0.00298   0.00000   0.00180   0.00017   1.87909
   A35        1.92282  -0.00426   0.00000  -0.02351  -0.02262   1.90020
   A36        1.92063  -0.00275   0.00000   0.00930   0.00792   1.92854
   A37        1.89981   0.00111   0.00000  -0.01983  -0.02015   1.87965
   A38        2.09830   0.00031   0.00000   0.00150   0.00146   2.09975
   A39        2.10833   0.00122   0.00000   0.00499   0.00495   2.11328
   A40        2.07614  -0.00152   0.00000  -0.00606  -0.00609   2.07005
   A41        2.10565   0.00094   0.00000   0.00402   0.00403   2.10969
   A42        2.08737  -0.00034   0.00000  -0.00124  -0.00124   2.08613
   A43        2.09015  -0.00060   0.00000  -0.00279  -0.00279   2.08736
   A44        2.09415  -0.00020   0.00000  -0.00059  -0.00060   2.09354
   A45        2.09248   0.00019   0.00000   0.00082   0.00081   2.09328
   A46        2.09656   0.00001   0.00000  -0.00022  -0.00023   2.09633
   A47        2.08968  -0.00054   0.00000  -0.00216  -0.00217   2.08751
   A48        2.09527   0.00039   0.00000   0.00176   0.00176   2.09703
   A49        2.09824   0.00015   0.00000   0.00040   0.00041   2.09864
   A50        2.09765   0.00029   0.00000   0.00096   0.00096   2.09861
   A51        2.09431   0.00002   0.00000   0.00045   0.00044   2.09475
   A52        2.09121  -0.00031   0.00000  -0.00143  -0.00144   2.08976
   A53        2.10309   0.00103   0.00000   0.00381   0.00381   2.10689
   A54        2.08351  -0.00080   0.00000  -0.00360  -0.00362   2.07989
   A55        2.09652  -0.00023   0.00000  -0.00031  -0.00033   2.09619
   A56        1.97371  -0.01191   0.00000  -0.06922  -0.06922   1.90449
    D1       -0.93769  -0.00079   0.00000  -0.00205  -0.00228  -0.93997
    D2        0.99719   0.00012   0.00000  -0.02149  -0.02160   0.97558
    D3        3.13582  -0.00080   0.00000  -0.00753  -0.00719   3.12864
    D4        0.74730  -0.00174   0.00000  -0.02324  -0.02317   0.72413
    D5       -2.40302  -0.00134   0.00000  -0.00884  -0.00883  -2.41184
    D6       -1.40351  -0.00137   0.00000  -0.01079  -0.01084  -1.41435
    D7        1.72935  -0.00097   0.00000   0.00361   0.00351   1.73286
    D8        2.99635   0.00252   0.00000   0.01313   0.01319   3.00954
    D9       -0.15397   0.00291   0.00000   0.02753   0.02753  -0.12644
   D10        1.19453   0.00381   0.00000   0.06557   0.06560   1.26013
   D11       -0.94639   0.00135   0.00000   0.03089   0.03107  -0.91531
   D12       -2.99111   0.00439   0.00000   0.06736   0.06706  -2.92405
   D13       -2.99535   0.00014   0.00000   0.02908   0.02910  -2.96625
   D14        1.14691  -0.00232   0.00000  -0.00560  -0.00543   1.14149
   D15       -0.89781   0.00072   0.00000   0.03087   0.03056  -0.86725
   D16       -1.03049  -0.00094   0.00000   0.01735   0.01748  -1.01301
   D17        3.11178  -0.00339   0.00000  -0.01733  -0.01704   3.09473
   D18        1.06705  -0.00035   0.00000   0.01914   0.01895   1.08600
   D19        0.32850   0.00043   0.00000   0.01864   0.01871   0.34721
   D20       -1.90744   0.00253   0.00000   0.02703   0.02702  -1.88042
   D21        2.58502   0.00096   0.00000   0.03569   0.03563   2.62064
   D22        3.12951   0.00020   0.00000   0.00754   0.00754   3.13705
   D23       -0.01823   0.00004   0.00000   0.00325   0.00323  -0.01500
   D24       -0.00309  -0.00020   0.00000  -0.00725  -0.00727  -0.01036
   D25        3.13235  -0.00036   0.00000  -0.01154  -0.01157   3.12078
   D26       -3.13074  -0.00028   0.00000  -0.00993  -0.00999  -3.14073
   D27        0.01541  -0.00018   0.00000  -0.00725  -0.00730   0.00810
   D28        0.00212   0.00010   0.00000   0.00440   0.00442   0.00654
   D29       -3.13492   0.00020   0.00000   0.00707   0.00711  -3.12781
   D30        0.00131   0.00015   0.00000   0.00494   0.00492   0.00623
   D31        3.14087  -0.00004   0.00000  -0.00078  -0.00078   3.14009
   D32       -3.13411   0.00030   0.00000   0.00920   0.00916  -3.12494
   D33        0.00546   0.00011   0.00000   0.00348   0.00346   0.00891
   D34        0.00141  -0.00001   0.00000   0.00010   0.00009   0.00151
   D35        3.13972  -0.00009   0.00000  -0.00274  -0.00275   3.13697
   D36       -3.13814   0.00018   0.00000   0.00583   0.00581  -3.13233
   D37        0.00016   0.00010   0.00000   0.00299   0.00298   0.00313
   D38       -0.00240  -0.00009   0.00000  -0.00298  -0.00297  -0.00537
   D39        3.13844  -0.00011   0.00000  -0.00369  -0.00369   3.13475
   D40       -3.14069  -0.00001   0.00000  -0.00013  -0.00013  -3.14082
   D41        0.00014  -0.00003   0.00000  -0.00084  -0.00085  -0.00070
   D42        0.00064   0.00005   0.00000   0.00076   0.00075   0.00140
   D43        3.13750  -0.00006   0.00000  -0.00203  -0.00204   3.13546
   D44       -3.14019   0.00007   0.00000   0.00146   0.00146  -3.13873
   D45       -0.00334  -0.00004   0.00000  -0.00132  -0.00133  -0.00467
   D46       -1.14976  -0.00214   0.00000  -0.06669  -0.06731  -1.21707
   D47        3.01175  -0.00229   0.00000  -0.05656  -0.05642   2.95533
   D48        0.95172   0.00139   0.00000  -0.01221  -0.01229   0.93943
   D49        0.93474  -0.00092   0.00000  -0.04334  -0.04352   0.89121
   D50       -1.18694  -0.00107   0.00000  -0.03320  -0.03264  -1.21957
   D51        3.03621   0.00261   0.00000   0.01115   0.01149   3.04771
   D52        3.11253  -0.00214   0.00000  -0.06098  -0.06147   3.05106
   D53        0.99086  -0.00229   0.00000  -0.05084  -0.05058   0.94028
   D54       -1.06918   0.00139   0.00000  -0.00650  -0.00645  -1.07563
   D55       -1.28876   0.00165   0.00000   0.03315   0.03354  -1.25522
   D56        1.82156   0.00209   0.00000   0.04948   0.04991   1.87147
   D57        0.82304   0.00088   0.00000   0.01407   0.01403   0.83707
   D58       -2.34982   0.00132   0.00000   0.03040   0.03041  -2.31942
   D59        2.91792  -0.00219   0.00000  -0.01949  -0.01991   2.89802
   D60       -0.25494  -0.00175   0.00000  -0.00317  -0.00354  -0.25848
   D61        3.10718   0.00018   0.00000   0.00643   0.00640   3.11358
   D62       -0.03807   0.00018   0.00000   0.00657   0.00654  -0.03153
   D63       -0.00372  -0.00030   0.00000  -0.00979  -0.00977  -0.01348
   D64        3.13422  -0.00030   0.00000  -0.00965  -0.00962   3.12460
   D65       -3.10638  -0.00037   0.00000  -0.01217  -0.01217  -3.11855
   D66        0.02226  -0.00069   0.00000  -0.02158  -0.02156   0.00069
   D67        0.00433   0.00010   0.00000   0.00408   0.00405   0.00839
   D68        3.13297  -0.00022   0.00000  -0.00533  -0.00534   3.12764
   D69       -0.00013   0.00028   0.00000   0.00834   0.00834   0.00821
   D70       -3.14142  -0.00002   0.00000  -0.00026  -0.00025   3.14151
   D71       -3.13807   0.00028   0.00000   0.00820   0.00819  -3.12987
   D72        0.00383  -0.00002   0.00000  -0.00040  -0.00039   0.00343
   D73        0.00341  -0.00005   0.00000  -0.00105  -0.00104   0.00237
   D74       -3.13844  -0.00015   0.00000  -0.00440  -0.00439   3.14036
   D75       -3.13849   0.00025   0.00000   0.00756   0.00757  -3.13092
   D76        0.00285   0.00015   0.00000   0.00421   0.00422   0.00706
   D77       -0.00280  -0.00016   0.00000  -0.00463  -0.00462  -0.00742
   D78       -3.13960   0.00009   0.00000   0.00229   0.00230  -3.13730
   D79        3.13905  -0.00005   0.00000  -0.00127  -0.00126   3.13779
   D80        0.00225   0.00020   0.00000   0.00565   0.00565   0.00790
   D81       -0.00111   0.00013   0.00000   0.00308   0.00307   0.00197
   D82       -3.12965   0.00045   0.00000   0.01258   0.01258  -3.11707
   D83        3.13571  -0.00012   0.00000  -0.00382  -0.00382   3.13189
   D84        0.00717   0.00020   0.00000   0.00567   0.00568   0.01285
         Item               Value     Threshold  Converged?
 Maximum Force            0.014800     0.000450     NO 
[...]
     8  C    0.000005  -0.000002   0.000007   0.000134  -0.000167  -0.005155
     9  C    0.007259  -0.003099   0.006932  -0.021312  -0.104098  -0.013380
    10  C    0.002832   0.002250   0.005504  -0.056595   0.018955   0.003843
    11  C    0.092241  -0.160579   0.145515   0.218068  -0.020391  -0.003265
    12  C    0.392510   0.080913  -0.148075   0.099426   0.001343   0.002017
    13  C    4.957107   0.410927   0.081098  -0.156857  -0.000377  -0.000732
    14  C    0.410927   4.954916   0.386430   0.116231   0.000423   0.000724
    15  C    0.081098   0.386430   5.031029   0.279404  -0.003229  -0.001019
    16  C   -0.156857   0.116231   0.279404   5.273151  -0.001732  -0.000797
    17  N   -0.000377   0.000423  -0.003229  -0.001732   6.950826   0.008992
    18  H   -0.000732   0.000724  -0.001019  -0.000797   0.008992   0.487263
    19  H   -0.000023   0.000007  -0.000033   0.000217   0.000456   0.000175
    20  H    0.000000  -0.000000   0.000000  -0.000000   0.000014  -0.000008
    21  H    0.000000  -0.000000   0.000000   0.000000   0.000001  -0.000001
    22  H   -0.000000   0.000000  -0.000000  -0.000000  -0.000040   0.000001
    23  H    0.000001  -0.000000   0.000002   0.000068   0.026157  -0.000187
    24  H   -0.000478   0.000037  -0.000139   0.004487   0.005686   0.002101
    25  H    0.000025  -0.000019   0.000094  -0.001397   0.000381   0.000446
    26  H    0.000145   0.000495  -0.001784   0.007228   0.001511  -0.000040
    27  H   -0.000291  -0.000001   0.001333   0.003640   0.005630  -0.000226
    28  H   -0.056334   0.012872  -0.004754   0.018113   0.000041   0.000008
    29  H    0.427790  -0.054192   0.011946  -0.003608  -0.000001  -0.000010
    30  H   -0.053610   0.424798  -0.052474   0.011373   0.000001   0.000007
    31  H    0.011590  -0.057647   0.427133  -0.051773  -0.000110  -0.000027
    32  H   -0.005794   0.015201  -0.064929   0.433434   0.025332   0.000141
    33  H    0.000002  -0.000007  -0.000018  -0.000575   0.309873  -0.000085
              19         20         21         22         23         24
     1  N    0.026541  -0.000064  -0.000002   0.000003   0.001675   0.000043
     2  S    0.002944  -0.000178   0.000015  -0.000353  -0.000487  -0.014110
     3  C   -0.116316   0.009920  -0.002210   0.012138  -0.071758  -0.005994
     4  C    0.427137  -0.044092   0.010850   0.000394   0.012601   0.002111
     5  C   -0.027466   0.417008  -0.048494   0.008492  -0.003472   0.000041
     6  C    0.009666  -0.047460   0.422463  -0.051819   0.010249  -0.000000
     7  C   -0.002327   0.008993  -0.051736   0.422608  -0.057975  -0.000252
     8  C    0.011293  -0.001364   0.010789  -0.049981   0.435090   0.001962
     9  C    0.002419  -0.000005   0.000002   0.000109  -0.001977   0.383877
    10  C    0.000435  -0.000001  -0.000000   0.000003  -0.000204  -0.019018
    11  C   -0.000241   0.000000   0.000000  -0.000000  -0.000055  -0.008114
    12  C    0.000017  -0.000000  -0.000000   0.000000  -0.000018  -0.001668
    13  C   -0.000023   0.000000   0.000000  -0.000000   0.000001  -0.000478
    14  C    0.000007  -0.000000  -0.000000   0.000000  -0.000000   0.000037
    15  C   -0.000033   0.000000   0.000000  -0.000000   0.000002  -0.000139
    16  C    0.000217  -0.000000   0.000000  -0.000000   0.000068   0.004487
    17  N    0.000456   0.000014   0.000001  -0.000040   0.026157   0.005686
    18  H    0.000175  -0.000008  -0.000001   0.000001  -0.000187   0.002101
    19  H    0.553261  -0.007039  -0.000302   0.000129   0.000015   0.000537
    20  H   -0.007039   0.545669  -0.007131  -0.000261   0.000069   0.000000
    21  H   -0.000302  -0.007131   0.548123  -0.007672  -0.000145  -0.000001
    22  H    0.000129  -0.000261  -0.007672   0.546595  -0.006377  -0.000001
    23  H    0.000015   0.000069  -0.000145  -0.006377   0.499901   0.000414
    24  H    0.000537   0.000000  -0.000001  -0.000001   0.000414   0.527920
    25  H   -0.000523   0.000015  -0.000003   0.000001   0.000493  -0.019811
    26  H    0.000013  -0.000000  -0.000000   0.000000   0.000059  -0.001432
    27  H   -0.000014  -0.000000   0.000000  -0.000001   0.000303   0.004086
    28  H    0.000001  -0.000000  -0.000000  -0.000000  -0.000000   0.001303
    29  H   -0.000000   0.000000   0.000000  -0.000000   0.000000   0.000012
    30  H    0.000000  -0.000000  -0.000000   0.000000  -0.000000  -0.000002
    31  H    0.000000   0.000000   0.000000   0.000000   0.000000   0.000002
    32  H   -0.000020  -0.000000   0.000000  -0.000000  -0.000024   0.000018
    33  H    0.000126  -0.000001  -0.000000   0.000015  -0.002009  -0.000447
              25         26         27         28         29         30
     1  N    0.004798  -0.000465   0.002186  -0.000127   0.000014  -0.000022
     2  S   -0.013219   0.005392  -0.003259   0.000146  -0.000007   0.000004
     3  C    0.006783  -0.000081  -0.000075   0.000026   0.000000  -0.000000
     4  C   -0.003611   0.000040  -0.000235  -0.000002  -0.000000   0.000000
     5  C    0.000456  -0.000000  -0.000006   0.000000  -0.000000   0.000000
     6  C   -0.000430   0.000001   0.000006   0.000000   0.000000  -0.000000
     7  C    0.001676  -0.000001  -0.000003   0.000000  -0.000000   0.000000
     8  C   -0.007440  -0.000029   0.000587   0.000000   0.000000  -0.000000
     9  C    0.360643  -0.036585  -0.031861  -0.002057   0.000095  -0.000013
    10  C   -0.023510   0.385087   0.410899  -0.004646  -0.000580   0.000130
    11  C    0.010238  -0.042573  -0.035645  -0.076869   0.013981  -0.002096
    12  C    0.000252   0.005460   0.004033   0.435122  -0.057169   0.010774
    13  C    0.000025   0.000145  -0.000291  -0.056334   0.427790  -0.053610
    14  C   -0.000019   0.000495  -0.000001   0.012872  -0.054192   0.424798
    15  C    0.000094  -0.001784   0.001333  -0.004754   0.011946  -0.052474
    16  C   -0.001397   0.007228   0.003640   0.018113  -0.003608   0.011373
    17  N    0.000381   0.001511   0.005630   0.000041  -0.000001   0.000001
    18  H    0.000446  -0.000040  -0.000226   0.000008  -0.000010   0.000007
    19  H   -0.000523   0.000013  -0.000014   0.000001  -0.000000   0.000000
    20  H    0.000015  -0.000000  -0.000000  -0.000000   0.000000  -0.000000
    21  H   -0.000003  -0.000000   0.000000  -0.000000   0.000000  -0.000000
    22  H    0.000001   0.000000  -0.000001  -0.000000  -0.000000   0.000000
    23  H    0.000493   0.000059   0.000303  -0.000000   0.000000  -0.000000
    24  H   -0.019811  -0.001432   0.004086   0.001303   0.000012  -0.000002
    25  H    0.540420  -0.006763  -0.000024  -0.000149  -0.000001   0.000000
    26  H   -0.006763   0.567204  -0.018329   0.004146  -0.000063  -0.000002
    27  H   -0.000024  -0.018329   0.488156   0.000381   0.000015  -0.000003
    28  H   -0.000149   0.004146   0.000381   0.576304  -0.008863  -0.000317
    29  H   -0.000001  -0.000063   0.000015  -0.008863   0.566156  -0.008120
    30  H    0.000000  -0.000002  -0.000003  -0.000317  -0.008120   0.564286
    31  H   -0.000001   0.000018  -0.000034   0.000079  -0.000292  -0.008255
    32  H   -0.000205   0.000757   0.001565  -0.000060   0.000041  -0.000179
    33  H   -0.000457   0.000003  -0.000696  -0.000000   0.000000  -0.000000
              31         32         33
     1  N    0.000037   0.003682  -0.005357
     2  S   -0.000014   0.004614  -0.014979
     3  C   -0.000003   0.001041   0.006125
     4  C    0.000000  -0.000160   0.002303
     5  C   -0.000000   0.000003  -0.000030
     6  C    0.000000   0.000000  -0.000036
     7  C   -0.000000   0.000005  -0.000054
     8  C   -0.000000   0.000077  -0.006101
     9  C    0.000107  -0.007267   0.011624
    10  C   -0.000512  -0.011051  -0.001863
    11  C    0.013727  -0.069590   0.001263
    12  C   -0.002407   0.019408   0.000062
    13  C    0.011590  -0.005794   0.000002
    14  C   -0.057647   0.015201  -0.000007
    15  C    0.427133  -0.064929  -0.000018
    16  C   -0.051773   0.433434  -0.000575
    17  N   -0.000110   0.025332   0.309873
    18  H   -0.000027   0.000141  -0.000085
    19  H    0.000000  -0.000020   0.000126
    20  H    0.000000  -0.000000  -0.000001
    21  H    0.000000   0.000000  -0.000000
    22  H    0.000000  -0.000000   0.000015
    23  H    0.000000  -0.000024  -0.002009
    24  H    0.000002   0.000018  -0.000447
    25  H   -0.000001  -0.000205  -0.000457
    26  H    0.000018   0.000757   0.000003
    27  H   -0.000034   0.001565  -0.000696
    28  H    0.000079  -0.000060  -0.000000
    29  H   -0.000292   0.000041   0.000000
    30  H   -0.008255  -0.000179  -0.000000
    31  H    0.563048  -0.008713   0.000007
    32  H   -0.008713   0.541145  -0.000400
    33  H    0.000007  -0.000400   0.476410
 Mulliken charges:
               1
     1  N   -0.539945
     2  S    0.477728
     3  C    0.152113
     4  C   -0.215277
     5  C   -0.120840
     6  C   -0.105265
     7  C   -0.104521
     8  C   -0.202637
     9  C   -0.231527
    10  C   -0.212318
    11  C    0.135296
    12  C   -0.248468
    13  C   -0.111593
    14  C   -0.128171
    15  C   -0.110935
    16  C   -0.122837
    17  N   -0.563808
    18  H    0.219501
    19  H    0.118912
    20  H    0.125914
    21  H    0.125453
    22  H    0.126015
    23  H    0.157590
    24  H    0.136829
    25  H    0.150842
    26  H    0.130587
    27  H    0.167884
    28  H    0.105633
    29  H    0.112854
    30  H    0.113721
    31  H    0.114040
    32  H    0.121927
    33  H    0.225302
 Sum of Mulliken charges =  -0.00000
 Mulliken charges with hydrogens summed into heavy atoms:
               1
     1  N   -0.320445
     2  S    0.477728
     3  C    0.152113
     4  C   -0.096365
     5  C    0.005073
     6  C    0.020188
     7  C    0.021495
     8  C   -0.045047
     9  C    0.056145
    10  C    0.086153
    11  C    0.135296
    12  C   -0.142834
    13  C    0.001262
    14  C   -0.014449
    15  C    0.003105
    16  C   -0.000910
    17  N   -0.338507
 Electronic spatial extent (au):  <R**2>=           5433.2890
 Charge=             -0.0000 electrons
 Dipole moment (field-independent basis, Debye):
    X=              2.5236    Y=              1.2629    Z=              2.8384  Tot=              4.0025
 Quadrupole moment (field-independent basis, Debye-Ang):
   XX=            -97.5094   YY=           -106.2969   ZZ=           -107.4907
   XY=             -1.8797   XZ=              1.8846   YZ=              0.1299
 Traceless Quadrupole moment (field-independent basis, Debye-Ang):
   XX=              6.2563   YY=             -2.5312   ZZ=             -3.7250
   XY=             -1.8797   XZ=              1.8846   YZ=              0.1299
 Octapole moment (field-independent basis, Debye-Ang**2):
  XXX=             77.2731  YYY=             16.8299  ZZZ=             -3.6017  XYY=             16.3930
  XXY=             28.9170  XXZ=              4.0665  XZZ=            -17.6017  YZZ=            -11.8458
  YYZ=              4.8855  XYZ=             -4.3619
 Hexadecapole moment (field-independent basis, Debye-Ang**3):
 XXXX=          -5732.2310 YYYY=           -797.3719 ZZZZ=           -637.8825 XXXY=           -123.3210
 XXXZ=            142.8874 YYYX=             23.9806 YYYZ=            -16.1314 ZZZX=            -19.2471
 ZZZY=             28.8720 XXYY=          -1075.9664 XXZZ=          -1131.5673 YYZZ=           -247.0015
 XXYZ=              4.8554 YYXZ=             -0.9250 ZZXY=            -22.6767
 N-N= 1.283495272957D+03 E-N=-5.027034002766D+03  KE= 1.045808901372D+03
 Breneman (CHELPG) radii used.
 Read replacement radii for each type of atom:
 Atom Element Radius
    1     7    1.70
    2    16    2.00
    3     6    1.50
    4     6    1.50
    5     6    1.50
    6     6    1.50
    7     6    1.50
    8     6    1.50
    9     6    1.50
   10     6    1.50
   11     6    1.50
   12     6    1.50
   13     6    1.50
   14     6    1.50
   15     6    1.50
   16     6    1.50
   17     7    1.70
   18     1    1.45
   19     1    1.45
   20     1    1.45
   21     1    1.45
   22     1    1.45
   23     1    1.45
   24     1    1.45
   25     1    1.45
   26     1    1.45
   27     1    1.45
   28     1    1.45
   29     1    1.45
   30     1    1.45
   31     1    1.45
   32     1    1.45
   33     1    1.45
 Generate Potential Derived Charges using the Breneman model, NDens= 1.
 Grid spacing= 0.300 Box extension= 2.800
 NStep X,Y,Z=   57     37     36   Total possible points=       75924
 Number of Points to Fit=   19797

 **********************************************************************

            Electrostatic Properties Using The SCF Density.

 **********************************************************************

       Atomic Center    1 is at  -0.102435  0.819745 -1.340342
       Atomic Center    2 is at   0.567140 -0.342292 -0.578602
       Atomic Center    3 is at   2.284469  0.090395 -0.145800
       Atomic Center    4 is at   2.696125  1.417776 -0.196010
       Atomic Center    5 is at   4.017453  1.733201  0.119565
       Atomic Center    6 is at   4.910563  0.721660  0.470495
       Atomic Center    7 is at   4.491479 -0.609972  0.496506
       Atomic Center    8 is at   3.173759 -0.932159  0.181747
       Atomic Center    9 is at  -0.074470 -0.663330  1.088118
       Atomic Center   10 is at  -1.417788 -1.379012  1.071288
       Atomic Center   11 is at  -2.571681 -0.541291  0.587063
       Atomic Center   12 is at  -3.287048  0.265416  1.478678
       Atomic Center   13 is at  -4.342555  1.060263  1.034924
       Atomic Center   14 is at  -4.698501  1.054025 -0.312684
       Atomic Center   15 is at  -3.992355  0.252500 -1.208958
       Atomic Center   16 is at  -2.935217 -0.536832 -0.763851
       Atomic Center   17 is at   0.526215 -1.742450 -1.229645
       Atomic Center   18 is at  -0.249389  1.633801 -0.741406
       Atomic Center   19 is at   1.989751  2.190168 -0.509054
       Atomic Center   20 is at   4.353102  2.772214  0.081363
       Atomic Center   21 is at   5.946131  0.970783  0.713920
       Atomic Center   22 is at   5.199375 -1.401765  0.752946
       Atomic Center   23 is at   2.824747 -1.968038  0.160387
       Atomic Center   24 is at  -0.116609  0.322777  1.576482
       Atomic Center   25 is at   0.697103 -1.269003  1.584831
       Atomic Center   26 is at  -1.613106 -1.713921  2.102922
       Atomic Center   27 is at  -1.306669 -2.280685  0.450590
       Atomic Center   28 is at  -3.018417  0.264756  2.539816
       Atomic Center   29 is at  -4.893610  1.680974  1.745857
       Atomic Center   30 is at  -5.527731  1.672800 -0.664267
       Atomic Center   31 is at  -4.261907  0.246796 -2.267761
       Atomic Center   32 is at  -2.362843 -1.143234 -1.468945
       Atomic Center   33 is at   0.773984 -1.638653 -2.216641
   19797 points will be used for fitting atomic charges
 Fitting point charges to electrostatic potential
 Charges from ESP fit, RMS=   0.00400 RRMS=   0.26565:
 ESP charges:
               1
     1  N   -0.745226
     2  S    0.716143
     3  C   -0.081446
     4  C   -0.059331
     5  C   -0.097544
     6  C   -0.077420
     7  C   -0.111941
     8  C   -0.028750
     9  C    0.217934
    10  C   -0.032029
    11  C    0.044884
    12  C   -0.136210
    13  C   -0.103787
    14  C   -0.094183
    15  C   -0.080180
    16  C   -0.108935
    17  N   -0.737343
    18  H    0.314992
    19  H    0.081072
    20  H    0.099943
    21  H    0.097222
    22  H    0.102263
    23  H    0.080835
    24  H   -0.070248
    25  H   -0.025521
    26  H    0.025423
    27  H    0.017405
    28  H    0.095158
    29  H    0.086602
    30  H    0.086488
    31  H    0.086610
    32  H    0.107048
    33  H    0.330069
 Sum of ESP charges =   0.00000
 ESP charges with hydrogens summed into heavy atoms:
               1
     1  N   -0.430234
     2  S    0.716143
     3  C   -0.081446
     4  C    0.021742
     5  C    0.002399
     6  C    0.019803
     7  C   -0.009677
     8  C    0.052085
     9  C    0.122165
    10  C    0.010800
    11  C    0.044884
    12  C   -0.041052
    13  C   -0.017185
    14  C   -0.007695
    15  C    0.006430
    16  C   -0.001888
    17  N   -0.407274
 Charge=   0.00000 Dipole=     2.4201     1.1370     2.8275 Tot=     3.8916
 -----------------------------------------------------------------

              Electrostatic Properties (Atomic Units)

 -----------------------------------------------------------------
    Center     Electric         -------- Electric Field --------
               Potential          X             Y             Z
 -----------------------------------------------------------------
    1 Atom    -18.428336
    2 Atom    -59.076645
    3 Atom    -14.733745
    4 Atom    -14.742904
    5 Atom    -14.745367
    6 Atom    -14.744715
    7 Atom    -14.745654
    8 Atom    -14.744351
    9 Atom    -14.724776
   10 Atom    -14.749385
   11 Atom    -14.759493
   12 Atom    -14.768507
   13 Atom    -14.768687
   14 Atom    -14.770519
   15 Atom    -14.772346
   16 Atom    -14.775800
   17 Atom    -18.427847
   18 Atom     -1.045844
   19 Atom     -1.084984
   20 Atom     -1.088039
   21 Atom     -1.087629
   22 Atom     -1.088409
   23 Atom     -1.087660
   24 Atom     -1.077962
   25 Atom     -1.079394
   26 Atom     -1.104232
   27 Atom     -1.112916
   28 Atom     -1.105124
   29 Atom     -1.108125
   30 Atom     -1.110148
   31 Atom     -1.113540
   32 Atom     -1.119370
   33 Atom     -1.051874
 -----------------------------------------------------------------
 Unable to Open any file for archive entry.
 1\1\GINC-NOTCH465\SP\RPBE1PBE\def2TZVP\C14H16N2S1\U1414944\06-Jun-2025
 \0\\#N Guess=Read Geom=Check Integral(Ultrafine) Density Pop=(ChelpG,R
 eadRadii) NMR pbe1pbe EmpiricalDispersion=GD3BJ def2TZVP\\SDI0241_11\\
 0,1\N,0,-0.3762711997,0.1843777059,-1.5178674801\S,0,0.6688034865,0.36
 64376156,-0.3982319088\C,0,0.8271952257,2.1290711791,0.0397039104\C,0,
 -0.1560178861,3.030000193,-0.3546848851\C,0,-0.0136881875,4.3786530839
 ,-0.0293119342\C,0,1.1095174675,4.8108126554,0.6747187317\C,0,2.100794
 91,3.900526309,1.0466076372\C,0,1.9655167764,2.5525409421,0.7242762504
 \C,0,0.2020407231,-0.2902593029,1.227672066\C,0,0.3109659121,-1.806771
 0336,1.3005860696\C,0,-0.7218004451,-2.5517419835,0.496764758\C,0,-1.9
 689703704,-2.857685827,1.0521660408\C,0,-2.9383380632,-3.5278757133,0.
 3078774909\C,0,-2.6679027403,-3.9048400796,-1.0064844359\C,0,-1.427431
 0499,-3.6054756945,-1.568626616\C,0,-0.4626466618,-2.9315601421,-0.824
 4943612\N,0,2.0687081743,-0.2478865201,-0.619245162\H,0,-1.3222038311,
 0.3926530275,-1.1940786068\H,0,-1.0096531659,2.6760058711,-0.93738846\
 H,0,-0.7784314089,5.0962177047,-0.3358009372\H,0,1.2205624326,5.868414
 052,0.9254518693\H,0,2.9888616246,4.2462379837,1.5810546393\H,0,2.7401
 567736,1.821837397,0.9718967513\H,0,-0.8202946437,0.078327922,1.405595
 7478\H,0,0.880619783,0.1960167701,1.9431807838\H,0,0.2190063129,-2.081
 8708502,2.363809687\H,0,1.325939863,-2.0833540154,0.9781603473\H,0,-2.
 181568662,-2.5737497897,2.0877137348\H,0,-3.9056399777,-3.7629702569,0
 .7589063515\H,0,-3.4236257527,-4.4337056345,-1.5924020128\H,0,-1.21033
 68525,-3.8926902871,-2.6001944864\H,0,0.4986876095,-2.6710338066,-1.27
 22172317\H,0,2.3692004087,-0.0144514629,-1.5687380196\\Version=ES64L-G
 16RevC.01\State=1-A\HF=-1050.0870984\RMSD=3.384e-09\Dipole=-0.3826281,
 1.1473589,1.0084189\Quadrupole=-0.3111168,2.6999778,-2.388861,2.856884
 8,1.1451047,2.0807085\PG=C01 [X(C14H16N2S1)]\\@
 The archive entry for this job was punched.


 SLITHERY-DITHERY
 FRIEDRICH A. KEKULE
 DREAMT ON A BUS OF THINGS
 FREUD WOULD THINK KEEN.
 MOST OF THE TIME THEY WERE
 HERPETOLOGICAL
 BITING THEIR TAILS IN THE
 SHAPE OF BENZENE.
 Job cpu time:       0 days  0 hours 50 minutes 16.8 seconds.
 Elapsed time:       0 days  0 hours  3 minutes 25.7 seconds.
 File lengths (MBytes):  RWF=    238 Int=      0 D2E=      0 Chk=     37 Scr=      2
 Normal termination of Gaussian 16 at Fri Jun  6 20:46:59 2025.
