 Entering Gaussian System, Link 0=g16
 Input=SDI0241_2.com
 Output=SDI0241_2.log
 Initial command:
 /uufs/chpc.utah.edu/sys/installdir/gaussian16/C01/AVX/g16/l1.exe "/scratch/general/vast/u1414944/4689598-notchpeak.peaks/Gau-3336817.inp" -scrdir="/scratch/general/vast/u1414944/4689598-notchpeak.peaks/"
 Entering Link 1 = /uufs/chpc.utah.edu/sys/installdir/gaussian16/C01/AVX/g16/l1.exe PID=   3336818.
  
 Copyright (c) 1988-2019, Gaussian, Inc.  All Rights Reserved.
  
 This is part of the Gaussian(R) 16 program.  It is based on
 the Gaussian(R) 09 system (copyright 2009, Gaussian, Inc.),
 the Gaussian(R) 03 system (copyright 2003, Gaussian, Inc.),
 the Gaussian(R) 98 system (copyright 1998, Gaussian, Inc.),
 the Gaussian(R) 94 system (copyright 1995, Gaussian, Inc.),
 the Gaussian 92(TM) system (copyright 1992, Gaussian, Inc.),
 the Gaussian 90(TM) system (copyright 1990, Gaussian, Inc.),
 the Gaussian 88(TM) system (copyright 1988, Gaussian, Inc.),
 the Gaussian 86(TM) system (copyright 1986, Carnegie Mellon
 University), and the Gaussian 82(TM) system (copyright 1983,
 Carnegie Mellon University). Gaussian is a federally registered
 trademark of Gaussian, Inc.
  
 This software contains proprietary and confidential information,
 including trade secrets, belonging to Gaussian, Inc.
  
 This software is provided under written license and may be
 used, copied, transmitted, or stored only in accord with that
 written license.
  
 The following legend is applicable only to US Government
 contracts under FAR:
  
                    RESTRICTED RIGHTS LEGEND
  
 Use, reproduction and disclosure by the US Government is
 subject to restrictions as set forth in subparagraphs (a)
 and (c) of the Commercial Computer Software - Restricted
 Rights clause in FAR 52.227-19.
  
 Gaussian, Inc.
 340 Quinnipiac St., Bldg. 40, Wallingford CT 06492
  
  
 ---------------------------------------------------------------
 Warning -- This program may not be used in any manner that
 competes with the business of Gaussian, Inc. or will provide
 assistance to any competitor of Gaussian, Inc.  The licensee
 of this program is prohibited from giving any competitor of
 Gaussian, Inc. access to this program.  By using this program,
 the user acknowledges that Gaussian, Inc. is engaged in the
 business of creating and licensing software in the field of
 computational chemistry and represents and warrants to the
 licensee that it is not a competitor of Gaussian, Inc. and that
 it will not use this program in any manner prohibited above.
 ---------------------------------------------------------------
  

 Cite this work as:
 Gaussian 16, Revision C.01,
 M. J. Frisch, G. W. Trucks, H. B. Schlegel, G. E. Scuseria, 
 M. A. Robb, J. R. Cheeseman, G. Scalmani, V. Barone, 
 G. A. Petersson, H. Nakatsuji, X. Li, M. Caricato, A. V. Marenich, 
 J. Bloino, B. G. Janesko, R. Gomperts, B. Mennucci, H. P. Hratchian, 
 J. V. Ortiz, A. F. Izmaylov, J. L. Sonnenberg, D. Williams-Young, 
 F. Ding, F. Lipparini, F. Egidi, J. Goings, B. Peng, A. Petrone, 
 T. Henderson, D. Ranasinghe, V. G. Zakrzewski, J. Gao, N. Rega, 
 G. Zheng, W. Liang, M. Hada, M. Ehara, K. Toyota, R. Fukuda, 
 J. Hasegawa, M. Ishida, T. Nakajima, Y. Honda, O. Kitao, H. Nakai, 
 T. Vreven, K. Throssell, J. A. Montgomery, Jr., J. E. Peralta, 
 F. Ogliaro, M. J. Bearpark, J. J. Heyd, E. N. Brothers, K. N. Kudin, 
 V. N. Staroverov, T. A. Keith, R. Kobayashi, J. Normand, 
 K. Raghavachari, A. P. Rendell, J. C. Burant, S. S. Iyengar, 
 J. Tomasi, M. Cossi, J. M. Millam, M. Klene, C. Adamo, R. Cammi, 
 J. W. Ochterski, R. L. Martin, K. Morokuma, O. Farkas, 
 J. B. Foresman, and D. J. Fox, Gaussian, Inc., Wallingford CT, 2019.
 
 ******************************************
 Gaussian 16:  ES64L-G16RevC.01  3-Jul-2019
                 6-Jun-2025 
 ******************************************
 %NProcShared=16
 Will use up to   16 processors via shared memory.
 %Mem=40GB
 %chk=SDI0241_2.chk
 ----------------------------------------------------------------------
 #N OPT FREQ=NORAMAN Integral(Ultrafine) pbe1pbe EmpiricalDispersion=GD
 3BJ def2SVP
 ----------------------------------------------------------------------
 1/18=20,19=15,26=4,38=1/1,3;
 2/9=110,12=2,17=6,18=5,40=1/2;
 3/5=43,7=101,11=2,25=1,30=1,71=1,74=-13,75=-5,124=41/1,2,3;
 4//1;
 5/5=2,38=5/2;
 6/7=2,8=2,9=2,10=2,28=1/1;
 7//1,2,3,16;
 1/18=20,19=15,26=4/3(2);
 2/9=110/2;
 99//99;
 2/9=110/2;
 3/5=43,7=101,11=2,25=1,30=1,71=1,74=-13,75=-5,124=41/1,2,3;
 4/5=5,16=3,69=1/1;
 5/5=2,38=5/2;
 7//1,2,3,16;
 1/18=20,19=15,26=4/3(-5);
 2/9=110/2;
 6/7=2,8=2,9=2,10=2,19=2,28=1/1;
 99/9=1/99;
 ---------
 SDI0241_2
 ---------
 Symbolic Z-matrix:
 Charge =  0 Multiplicity = 1
 N                     3.35208   0.78995  -0.63354 
 S                     2.17091   0.06706   0.02813 
 C                     0.63163   1.03141  -0.001 
 C                     0.00774   1.34167  -1.19411 
 C                    -1.13874   2.11754  -1.17987 
 C                    -1.64014   2.5907    0.02129 
 C                    -0.9934    2.29651   1.21035 
 C                     0.14793   1.51475   1.19896 
 C                     1.67871  -1.46478  -0.91627 
 C                     0.75983  -2.32696  -0.07011 
 C                    -0.64219  -1.7867   -0.02383 
 C                    -1.17869  -1.30232   1.16045 
 C                    -2.46063  -0.78265   1.19208 
 C                    -3.22283  -0.74034   0.03825 
 C                    -2.70102  -1.23175  -1.14602 
 C                    -1.42142  -1.75455  -1.17431 
 N                     2.41373  -0.30668   1.48642 
 H                     3.19512   1.05659  -1.59166 
 H                     0.40864   0.98593  -2.13217 
 H                    -1.63835   2.35475  -2.10729 
 H                    -2.53478   3.19533   0.02797 
 H                    -1.3791    2.67463   2.14515 
 H                     0.67741   1.25619   2.10234 
 H                     2.623    -1.96671  -1.12205 
 H                     1.22031  -1.14928  -1.84936 
 H                     1.17781  -2.36038   0.9383 
 H                     0.74621  -3.34281  -0.47685 
 H                    -0.58087  -1.32578   2.05929 
 H                    -2.86467  -0.40643   2.12034 
 H                    -4.2217   -0.3304    0.06115 
 H                    -3.29393  -1.21022  -2.049 
 H                    -1.02423  -2.14711  -2.10064 
 H                     3.37477  -0.20515   1.76342 
 

 GradGradGradGradGradGradGradGradGradGradGradGradGradGradGradGradGradGrad
 Berny optimization.
 Initialization pass.
                           ----------------------------
                           !    Initial Parameters    !
                           ! (Angstroms and Degrees)  !
 --------------------------                            --------------------------
 ! Name  Definition              Value          Derivative Info.                !
 --------------------------------------------------------------------------------
 ! R1    R(1,2)                  1.5348         estimate D2E/DX2                !
 ! R2    R(1,18)                 1.0068         estimate D2E/DX2                !
 ! R3    R(2,3)                  1.8166         estimate D2E/DX2                !
 ! R4    R(2,9)                  1.8657         estimate D2E/DX2                !
 ! R5    R(2,17)                 1.5249         estimate D2E/DX2                !
 ! R6    R(3,4)                  1.3817         estimate D2E/DX2                !
 ! R7    R(3,8)                  1.3811         estimate D2E/DX2                !
 ! R8    R(4,5)                  1.3844         estimate D2E/DX2                !
 ! R9    R(4,19)                 1.0804         estimate D2E/DX2                !
 ! R10   R(5,6)                  1.3849         estimate D2E/DX2                !
 ! R11   R(5,20)                 1.0798         estimate D2E/DX2                !
 ! R12   R(6,7)                  1.3852         estimate D2E/DX2                !
 ! R13   R(6,21)                 1.0798         estimate D2E/DX2                !
 ! R14   R(7,8)                  1.3834         estimate D2E/DX2                !
 ! R15   R(7,22)                 1.0796         estimate D2E/DX2                !
 ! R16   R(8,23)                 1.0786         estimate D2E/DX2                !
 ! R17   R(9,10)                 1.5178         estimate D2E/DX2                !
 ! R18   R(9,24)                 1.089          estimate D2E/DX2                !
 ! R19   R(9,25)                 1.0864         estimate D2E/DX2                !
 ! R20   R(10,11)                1.5032         estimate D2E/DX2                !
 ! R21   R(10,26)                1.0921         estimate D2E/DX2                !
 ! R22   R(10,27)                1.0943         estimate D2E/DX2                !
 ! R23   R(11,12)                1.3874         estimate D2E/DX2                !
 ! R24   R(11,16)                1.3899         estimate D2E/DX2                !
 ! R25   R(12,13)                1.3836         estimate D2E/DX2                !
 ! R26   R(12,28)                1.0797         estimate D2E/DX2                !
 ! R27   R(13,14)                1.3835         estimate D2E/DX2                !
 ! R28   R(13,29)                1.08           estimate D2E/DX2                !
 ! R29   R(14,15)                1.3843         estimate D2E/DX2                !
 ! R30   R(14,30)                1.08           estimate D2E/DX2                !
 ! R31   R(15,16)                1.3826         estimate D2E/DX2                !
 ! R32   R(15,31)                1.0805         estimate D2E/DX2                !
 ! R33   R(16,32)                1.0816         estimate D2E/DX2                !
 ! R34   R(17,33)                1.0053         estimate D2E/DX2                !
 ! A1    A(2,1,18)             114.52           estimate D2E/DX2                !
 ! A2    A(1,2,3)              113.2758         estimate D2E/DX2                !
 ! A3    A(1,2,9)              111.8106         estimate D2E/DX2                !
 ! A4    A(1,2,17)             113.9023         estimate D2E/DX2                !
 ! A5    A(3,2,9)              101.7828         estimate D2E/DX2                !
 ! A6    A(3,2,17)             106.2821         estimate D2E/DX2                !
 ! A7    A(9,2,17)             108.9575         estimate D2E/DX2                !
 ! A8    A(2,3,4)              121.041          estimate D2E/DX2                !
 ! A9    A(2,3,8)              117.943          estimate D2E/DX2                !
 ! A10   A(4,3,8)              120.8997         estimate D2E/DX2                !
 ! A11   A(3,4,5)              119.3999         estimate D2E/DX2                !
 ! A12   A(3,4,19)             120.5491         estimate D2E/DX2                !
 ! A13   A(5,4,19)             120.0509         estimate D2E/DX2                !
 ! A14   A(4,5,6)              120.0141         estimate D2E/DX2                !
 ! A15   A(4,5,20)             119.8308         estimate D2E/DX2                !
 ! A16   A(6,5,20)             120.1548         estimate D2E/DX2                !
 ! A17   A(5,6,7)              120.1927         estimate D2E/DX2                !
 ! A18   A(5,6,21)             119.7768         estimate D2E/DX2                !
 ! A19   A(7,6,21)             120.0296         estimate D2E/DX2                !
 ! A20   A(6,7,8)              119.8771         estimate D2E/DX2                !
 ! A21   A(6,7,22)             120.1375         estimate D2E/DX2                !
 ! A22   A(8,7,22)             119.9853         estimate D2E/DX2                !
 ! A23   A(3,8,7)              119.5934         estimate D2E/DX2                !
 ! A24   A(3,8,23)             118.1574         estimate D2E/DX2                !
 ! A25   A(7,8,23)             122.2466         estimate D2E/DX2                !
 ! A26   A(2,9,10)             110.1163         estimate D2E/DX2                !
 ! A27   A(2,9,24)             104.2008         estimate D2E/DX2                !
 ! A28   A(2,9,25)             107.9162         estimate D2E/DX2                !
 ! A29   A(10,9,24)            111.6218         estimate D2E/DX2                !
 ! A30   A(10,9,25)            112.8509         estimate D2E/DX2                !
 ! A31   A(24,9,25)            109.7195         estimate D2E/DX2                !
 ! A32   A(9,10,11)            112.1886         estimate D2E/DX2                !
 ! A33   A(9,10,26)            107.4841         estimate D2E/DX2                !
 ! A34   A(9,10,27)            109.1254         estimate D2E/DX2                !
 ! A35   A(11,10,26)           109.8478         estimate D2E/DX2                !
 ! A36   A(11,10,27)           109.4792         estimate D2E/DX2                !
 ! A37   A(26,10,27)           108.6355         estimate D2E/DX2                !
 ! A38   A(10,11,12)           120.8242         estimate D2E/DX2                !
 ! A39   A(10,11,16)           120.3788         estimate D2E/DX2                !
 ! A40   A(12,11,16)           118.795          estimate D2E/DX2                !
 ! A41   A(11,12,13)           120.5906         estimate D2E/DX2                !
 ! A42   A(11,12,28)           119.2676         estimate D2E/DX2                !
 ! A43   A(13,12,28)           120.1392         estimate D2E/DX2                !
 ! A44   A(12,13,14)           120.1892         estimate D2E/DX2                !
 ! A45   A(12,13,29)           119.8079         estimate D2E/DX2                !
 ! A46   A(14,13,29)           120.0026         estimate D2E/DX2                !
 ! A47   A(13,14,15)           119.6672         estimate D2E/DX2                !
 ! A48   A(13,14,30)           120.2309         estimate D2E/DX2                !
 ! A49   A(15,14,30)           120.1014         estimate D2E/DX2                !
 ! A50   A(14,15,16)           120.0402         estimate D2E/DX2                !
 ! A51   A(14,15,31)           120.0697         estimate D2E/DX2                !
 ! A52   A(16,15,31)           119.8899         estimate D2E/DX2                !
 ! A53   A(11,16,15)           120.7102         estimate D2E/DX2                !
 ! A54   A(11,16,32)           119.6451         estimate D2E/DX2                !
 ! A55   A(15,16,32)           119.644          estimate D2E/DX2                !
 ! A56   A(2,17,33)            113.0156         estimate D2E/DX2                !
 ! D1    D(18,1,2,3)           -57.2669         estimate D2E/DX2                !
 ! D2    D(18,1,2,9)            57.0372         estimate D2E/DX2                !
 ! D3    D(18,1,2,17)         -178.9003         estimate D2E/DX2                !
 ! D4    D(1,2,3,4)             64.8655         estimate D2E/DX2                !
 ! D5    D(1,2,3,8)           -111.2478         estimate D2E/DX2                !
 ! D6    D(9,2,3,4)            -55.3262         estimate D2E/DX2                !
 ! D7    D(9,2,3,8)            128.5606         estimate D2E/DX2                !
 ! D8    D(17,2,3,4)          -169.3209         estimate D2E/DX2                !
 ! D9    D(17,2,3,8)            14.5658         estimate D2E/DX2                !
 ! D10   D(1,2,9,10)           166.0431         estimate D2E/DX2                !
 ! D11   D(1,2,9,24)            46.2101         estimate D2E/DX2                !
 ! D12   D(1,2,9,25)           -70.3799         estimate D2E/DX2                !
 ! D13   D(3,2,9,10)           -72.741          estimate D2E/DX2                !
 ! D14   D(3,2,9,24)           167.426          estimate D2E/DX2                !
 ! D15   D(3,2,9,25)            50.836          estimate D2E/DX2                !
 ! D16   D(17,2,9,10)           39.2512         estimate D2E/DX2                !
 ! D17   D(17,2,9,24)          -80.5818         estimate D2E/DX2                !
 ! D18   D(17,2,9,25)          162.8282         estimate D2E/DX2                !
 ! D19   D(1,2,17,33)          -12.0519         estimate D2E/DX2                !
 ! D20   D(3,2,17,33)         -137.4837         estimate D2E/DX2                !
 ! D21   D(9,2,17,33)          113.5348         estimate D2E/DX2                !
 ! D22   D(2,3,4,5)           -177.7841         estimate D2E/DX2                !
 ! D23   D(2,3,4,19)             2.0868         estimate D2E/DX2                !
 ! D24   D(8,3,4,5)             -1.7858         estimate D2E/DX2                !
 ! D25   D(8,3,4,19)           178.085          estimate D2E/DX2                !
 ! D26   D(2,3,8,7)            177.5276         estimate D2E/DX2                !
 ! D27   D(2,3,8,23)            -3.0406         estimate D2E/DX2                !
 ! D28   D(4,3,8,7)              1.4086         estimate D2E/DX2                !
 ! D29   D(4,3,8,23)          -179.1596         estimate D2E/DX2                !
 ! D30   D(3,4,5,6)              0.886          estimate D2E/DX2                !
 ! D31   D(3,4,5,20)          -179.299          estimate D2E/DX2                !
 ! D32   D(19,4,5,6)          -178.9856         estimate D2E/DX2                !
 ! D33   D(19,4,5,20)            0.8295         estimate D2E/DX2                !
 ! D34   D(4,5,6,7)              0.3714         estimate D2E/DX2                !
 ! D35   D(4,5,6,21)          -179.9842         estimate D2E/DX2                !
 ! D36   D(20,5,6,7)          -179.4431         estimate D2E/DX2                !
 ! D37   D(20,5,6,21)            0.2013         estimate D2E/DX2                !
 ! D38   D(5,6,7,8)             -0.7529         estimate D2E/DX2                !
 ! D39   D(5,6,7,22)           179.3447         estimate D2E/DX2                !
 ! D40   D(21,6,7,8)           179.6036         estimate D2E/DX2                !
 ! D41   D(21,6,7,22)           -0.2988         estimate D2E/DX2                !
 ! D42   D(6,7,8,3)             -0.1287         estimate D2E/DX2                !
 ! D43   D(6,7,8,23)          -179.5363         estimate D2E/DX2                !
 ! D44   D(22,7,8,3)           179.7739         estimate D2E/DX2                !
 ! D45   D(22,7,8,23)            0.3662         estimate D2E/DX2                !
 ! D46   D(2,9,10,11)           77.0728         estimate D2E/DX2                !
 ! D47   D(2,9,10,26)          -43.7852         estimate D2E/DX2                !
 ! D48   D(2,9,10,27)         -161.4197         estimate D2E/DX2                !
 ! D49   D(24,9,10,11)        -167.6998         estimate D2E/DX2                !
 ! D50   D(24,9,10,26)          71.4422         estimate D2E/DX2                !
 ! D51   D(24,9,10,27)         -46.1923         estimate D2E/DX2                !
 ! D52   D(25,9,10,11)         -43.5818         estimate D2E/DX2                !
 ! D53   D(25,9,10,26)        -164.4398         estimate D2E/DX2                !
 ! D54   D(25,9,10,27)          77.9257         estimate D2E/DX2                !
 ! D55   D(9,10,11,12)        -113.5839         estimate D2E/DX2                !
 ! D56   D(9,10,11,16)          65.9003         estimate D2E/DX2                !
 ! D57   D(26,10,11,12)          5.9003         estimate D2E/DX2                !
 ! D58   D(26,10,11,16)       -174.6155         estimate D2E/DX2                !
 ! D59   D(27,10,11,12)        125.1115         estimate D2E/DX2                !
 ! D60   D(27,10,11,16)        -55.4043         estimate D2E/DX2                !
 ! D61   D(10,11,12,13)        178.7598         estimate D2E/DX2                !
 ! D62   D(10,11,12,28)         -0.6506         estimate D2E/DX2                !
 ! D63   D(16,11,12,13)         -0.7324         estimate D2E/DX2                !
 ! D64   D(16,11,12,28)        179.8571         estimate D2E/DX2                !
 ! D65   D(10,11,16,15)       -178.5495         estimate D2E/DX2                !
 ! D66   D(10,11,16,32)          1.748          estimate D2E/DX2                !
 ! D67   D(12,11,16,15)          0.9451         estimate D2E/DX2                !
 ! D68   D(12,11,16,32)       -178.7574         estimate D2E/DX2                !
 ! D69   D(11,12,13,14)         -0.0255         estimate D2E/DX2                !
 ! D70   D(11,12,13,29)       -179.826          estimate D2E/DX2                !
 ! D71   D(28,12,13,14)        179.3799         estimate D2E/DX2                !
 ! D72   D(28,12,13,29)         -0.4207         estimate D2E/DX2                !
 ! D73   D(12,13,14,15)          0.5837         estimate D2E/DX2                !
 ! D74   D(12,13,14,30)       -179.6979         estimate D2E/DX2                !
 ! D75   D(29,13,14,15)       -179.6161         estimate D2E/DX2                !
 ! D76   D(29,13,14,30)          0.1023         estimate D2E/DX2                !
 ! D77   D(13,14,15,16)         -0.3728         estimate D2E/DX2                !
 ! D78   D(13,14,15,31)        179.4396         estimate D2E/DX2                !
 ! D79   D(30,14,15,16)        179.9085         estimate D2E/DX2                !
 ! D80   D(30,14,15,31)         -0.2791         estimate D2E/DX2                !
 ! D81   D(14,15,16,11)         -0.3987         estimate D2E/DX2                !
 ! D82   D(14,15,16,32)        179.3038         estimate D2E/DX2                !
 ! D83   D(31,15,16,11)        179.7886         estimate D2E/DX2                !
 ! D84   D(31,15,16,32)         -0.5089         estimate D2E/DX2                !
 --------------------------------------------------------------------------------
 Trust Radius=3.00D-01 FncErr=1.00D-07 GrdErr=1.00D-06 EigMax=2.50D+02 EigMin=1.00D-04
 Number of steps in this run=    184 maximum allowed number of steps=    198.
 GradGradGradGradGradGradGradGradGradGradGradGradGradGradGradGradGradGrad

                          Input orientation:                          
 ---------------------------------------------------------------------
 Center     Atomic      Atomic             Coordinates (Angstroms)
 Number     Number       Type             X           Y           Z
 ---------------------------------------------------------------------
      1          7           0        3.352078    0.789954   -0.633536
      2         16           0        2.170909    0.067061    0.028130
      3          6           0        0.631630    1.031410   -0.000998
      4          6           0        0.007743    1.341673   -1.194115
      5          6           0       -1.138739    2.117544   -1.179869
      6          6           0       -1.640143    2.590700    0.021285
      7          6           0       -0.993398    2.296506    1.210353
      8          6           0        0.147935    1.514749    1.198962
      9          6           0        1.678708   -1.464783   -0.916269
     10          6           0        0.759827   -2.326962   -0.070114
     11          6           0       -0.642192   -1.786701   -0.023827
     12          6           0       -1.178686   -1.302324    1.160450
     13          6           0       -2.460626   -0.782650    1.192081
     14          6           0       -3.222830   -0.740339    0.038253
     15          6           0       -2.701022   -1.231750   -1.146025
     16          6           0       -1.421417   -1.754546   -1.174305
     17          7           0        2.413732   -0.306677    1.486420
     18          1           0        3.195118    1.056586   -1.591657
     19          1           0        0.408641    0.985927   -2.132173
     20          1           0       -1.638354    2.354747   -2.107291
     21          1           0       -2.534784    3.195330    0.027968
     22          1           0       -1.379103    2.674625    2.145147
     23          1           0        0.677410    1.256187    2.102345
     24          1           0        2.623002   -1.966713   -1.122047
     25          1           0        1.220311   -1.149278   -1.849364
     26          1           0        1.177809   -2.360380    0.938299
     27          1           0        0.746210   -3.342806   -0.476850
     28          1           0       -0.580868   -1.325781    2.059291
     29          1           0       -2.864674   -0.406435    2.120341
     30          1           0       -4.221697   -0.330400    0.061150
     31          1           0       -3.293935   -1.210221   -2.049002
     32          1           0       -1.024234   -2.147110   -2.100639
     33          1           0        3.374771   -0.205150    1.763417
 ---------------------------------------------------------------------
                    Distance matrix (angstroms):
                    1          2          3          4          5
     1  N    0.000000
     2  S    1.534776   0.000000
     3  C    2.803435   1.816645   0.000000
     4  C    3.435581   2.792455   1.381675   0.000000
     5  C    4.714702   4.076457   2.388227   1.384413   0.000000
     6  C    5.347313   4.570877   2.755510   2.398498   1.384938
     7  C    4.955077   4.047334   2.389258   2.774068   2.401315
     8  C    3.761637   2.749377   1.381116   2.403419   2.770870
     9  C    2.822047   1.865663   2.857459   3.278036   4.565146
    10  C    4.092967   2.780675   3.361529   3.909974   4.958805
    11  C    4.792191   3.369372   3.092716   3.402751   4.101965
    12  C    5.303191   3.791721   3.173723   3.733940   4.144174
    13  C    6.292336   4.850557   3.778398   4.037267   3.972990
    14  C    6.783990   5.453844   4.242345   4.036101   3.740956
    15  C    6.402340   5.176993   4.188024   3.736607   3.695896
    16  C    5.436282   4.203439   3.654203   3.410200   3.882398
    17  N    2.564626   1.524879   2.679325   3.961201   5.060237
    18  H    1.006839   2.156820   3.017002   3.224697   4.480794
    19  H    3.308798   2.935441   2.143292   1.080384   2.140520
    20  H    5.433687   4.929910   3.367569   2.137720   1.079812
    21  H    6.393635   5.650629   3.835305   3.375496   2.137623
    22  H    5.801478   4.887099   3.368849   3.853670   3.379917
    23  H    3.854383   2.819030   2.115815   3.364879   3.848799
    24  H    2.892994   2.379818   3.769755   4.217842   5.552944
    25  H    3.127825   2.430658   2.918630   2.846842   4.084784
    26  H    4.137961   2.776171   3.561577   4.429609   5.468530
    27  H    4.888231   3.729874   4.401514   4.796264   5.819165
    28  H    5.214951   3.692953   3.357274   4.248108   4.760237
    29  H    6.903854   5.473449   4.334930   4.721470   4.498967
    30  H    7.687643   6.405035   5.041148   4.718017   4.127613
    31  H    7.083342   5.984182   4.962790   4.259586   4.058852
    32  H    5.470909   4.432059   4.153716   3.749449   4.364424
    33  H    2.595406   2.129462   3.488133   4.740943   5.867675
                    6          7          8          9         10
     6  C    0.000000
     7  C    1.385176   0.000000
     8  C    2.396208   1.383443   0.000000
     9  C    5.323601   5.080351   3.961702   0.000000
    10  C    5.472807   5.107823   4.091908   1.517785   0.000000
    11  C    4.489942   4.280085   3.608197   2.507321   1.503225
    12  C    4.082435   3.603942   3.114049   3.536078   2.514360
    13  C    3.663802   3.410908   3.476015   4.695160   3.788055
    14  C    3.687954   3.945455   4.218379   5.045890   4.288436
    15  C    4.135118   4.573521   4.599867   4.391939   3.786100
    16  C    4.512032   4.720256   4.333999   3.124310   2.510921
    17  N    5.193777   4.296663   2.921312   2.766657   3.039697
    18  H    5.323048   5.189636   4.157258   3.018767   4.437807
    19  H    3.377898   3.854324   3.382910   3.016202   3.917991
    20  H    2.141615   3.380255   3.850679   5.197139   5.640902
    21  H    1.079817   2.140512   3.375286   6.353090   6.431158
    22  H    2.141489   1.079621   2.138323   5.988086   5.873524
    23  H    3.388626   2.160905   1.078564   4.185488   4.191102
    24  H    6.344417   6.057514   4.861442   1.089022   2.169737
    25  H    5.066455   5.112319   4.187997   1.086433   2.182823
    26  H    5.770178   5.145361   4.018110   2.119532   1.092118
    27  H    6.414773   6.137975   5.173212   2.142337   1.094330
    28  H    4.540303   3.743240   3.056130   3.738845   2.708172
    29  H    3.858539   3.411106   3.689945   5.566275   4.650111
    30  H    3.898568   4.317780   4.877794   6.087442   5.368341
    31  H    4.633370   5.311591   5.460878   5.106374   4.647160
    32  H    5.227690   5.541601   5.066611   3.028893   2.708921
    33  H    6.000097   5.064096   3.699883   3.412335   3.834300
                   11         12         13         14         15
    11  C    0.000000
    12  C    1.387428   0.000000
    13  C    2.406917   1.383630   0.000000
    14  C    2.785394   2.398683   1.383497   0.000000
    15  C    2.409580   2.764473   2.392952   1.384299   0.000000
    16  C    1.389901   2.390503   2.761217   2.396665   1.382572
    17  N    3.716180   3.742063   4.906379   5.835760   5.826340
    18  H    5.026661   5.680555   6.566538   6.861167   6.340311
    19  H    3.638246   4.312431   4.734049   4.569281   3.944690
    20  H    4.741809   4.925809   4.626580   4.085766   3.862158
    21  H    5.329654   4.832226   4.145477   3.995372   4.583113
    22  H    5.015069   4.101941   3.745768   4.415915   5.276272
    23  H    3.939686   3.298217   3.851326   4.843394   5.306180
    24  H    3.449635   4.483752   5.709681   6.084739   5.374567
    25  H    2.684737   3.851959   4.788956   4.844774   3.984764
    26  H    2.137100   2.592662   3.973895   4.774959   4.545716
    27  H    2.134094   3.248006   4.429845   4.774039   4.097287
    28  H    2.134382   1.079746   2.140218   3.377469   3.844209
    29  H    3.382605   2.136953   1.080028   2.138892   3.372992
    30  H    3.865345   3.378316   2.141240   1.079958   2.140597
    31  H    3.386059   3.844911   3.373698   2.140672   1.080452
    32  H    2.142194   3.372272   3.842782   3.374565   2.135600
    33  H    4.672424   4.722428   5.891671   6.840392   6.814252
                   16         17         18         19         20
    16  C    0.000000
    17  N    4.887142   0.000000
    18  H    5.421166   3.455953   0.000000
    19  H    3.431736   4.334217   2.839297   0.000000
    20  H    4.219457   6.034679   5.031258   2.462616   0.000000
    21  H    5.214050   6.235299   6.326862   4.267484   2.463634
    22  H    5.535170   4.869054   6.124153   4.933883   4.272325
    23  H    4.919962   2.415931   4.474857   4.251638   4.928553
    24  H    4.050317   3.098970   3.112586   3.826465   6.148568
    25  H    2.792987   3.641660   2.971887   2.301714   4.529535
    26  H    3.403836   2.458788   4.705940   4.606212   6.280033
    27  H    2.776260   3.981600   5.156994   4.646716   6.388004
    28  H    3.368457   3.214714   5.767422   4.887892   5.659061
    29  H    3.841235   5.317272   7.255373   5.544108   5.196235
    30  H    3.375813   6.786817   7.724290   5.289935   4.311127
    31  H    2.137219   6.774442   6.888787   4.305699   3.931074
    32  H    1.081644   5.298471   5.322186   3.445292   4.543556
    33  H    5.833889   1.005301   3.588980   5.039070   6.831317
                   21         22         23         24         25
    21  H    0.000000
    22  H    2.467626   0.000000
    23  H    4.287366   2.498609   0.000000
    24  H    7.387285   6.945028   4.956724   0.000000
    25  H    6.041583   6.110262   4.658005   1.778970   0.000000
    26  H    6.743734   5.774561   3.832096   2.547269   3.039677
    27  H    7.332597   6.899370   5.273303   2.415006   2.630614
    28  H    5.327711   4.080172   2.872574   4.560316   4.307317
    29  H    4.178464   3.420594   3.912927   6.562174   5.744343
    30  H    3.908650   4.631799   5.539404   7.136342   5.825468
    31  H    4.929401   6.029054   6.252074   6.036693   4.519069
    32  H    5.945955   6.434419   5.669488   3.780544   2.469168
    33  H    7.035474   5.571189   3.086444   3.463259   4.311063
                   26         27         28         29         30
    26  H    0.000000
    27  H    1.775974   0.000000
    28  H    2.328081   3.501647   0.000000
    29  H    4.642929   5.329743   2.462660   0.000000
    30  H    5.834798   5.834736   4.270713   2.467298   0.000000
    31  H    5.499392   4.831392   4.924647   4.267758   2.467300
    32  H    3.758938   2.683440   4.263351   4.922788   4.265857
    33  H    3.186296   4.666156   4.121946   6.252886   7.785868
                   31         32         33
    31  H    0.000000
    32  H    2.456006   0.000000
    33  H    7.747022   6.168742   0.000000
 Stoichiometry    C14H16N2S
 Framework group  C1[X(C14H16N2S)]
 Deg. of freedom    93
 Full point group                 C1      NOp   1
 Largest Abelian subgroup         C1      NOp   1
 Largest concise Abelian subgroup C1      NOp   1
                         Standard orientation:                         
 ---------------------------------------------------------------------
 Center     Atomic      Atomic             Coordinates (Angstroms)
 Number     Number       Type             X           Y           Z
 ---------------------------------------------------------------------
      1          7           0        3.379195    0.635377   -0.743441
      2         16           0        2.188330    0.021905    0.005579
      3          6           0        0.674470    1.018998   -0.113722
      4          6           0        0.043339    1.213628   -1.327319
      5          6           0       -1.082238    2.017456   -1.386783
      6          6           0       -1.555386    2.632895   -0.239866
      7          6           0       -0.901039    2.453164    0.967710
      8          6           0        0.219274    1.643940    1.030711
      9          6           0        1.644047   -1.590144   -0.759765
     10          6           0        0.714140   -2.328973    0.185262
     11          6           0       -0.672591   -1.748747    0.186119
     12          6           0       -1.180741   -1.123048    1.315385
     13          6           0       -2.448172   -0.568168    1.302720
     14          6           0       -3.224035   -0.631689    0.159013
     15          6           0       -2.730747   -1.263976   -0.969333
     16          6           0       -1.465688   -1.821527   -0.952971
     17          7           0        2.440372   -0.196319    1.493567
     18          1           0        3.216726    0.799628   -1.723415
     19          1           0        0.422524    0.746420   -2.224628
     20          1           0       -1.587582    2.165203   -2.329541
     21          1           0       -2.433793    3.258861   -0.290586
     22          1           0       -1.264499    2.941827    1.859162
     23          1           0        0.753594    1.471522    1.951620
     24          1           0        2.572160   -2.137237   -0.918711
     25          1           0        1.181872   -1.366345   -1.717181
     26          1           0        1.144257   -2.263131    1.186954
     27          1           0        0.668722   -3.382507   -0.107244
     28          1           0       -0.572037   -1.064233    2.205256
     29          1           0       -2.830101   -0.081610    2.188073
     30          1           0       -4.211488   -0.194542    0.146854
     31          1           0       -3.334653   -1.325294   -1.863152
     32          1           0       -1.091023   -2.323930   -1.834544
     33          1           0        3.407271   -0.091381    1.747978
 ---------------------------------------------------------------------
 Rotational constants (GHZ):           0.6549420           0.4452309           0.3469822
 Standard basis: def2SVP (5D, 7F)
 There are   339 symmetry adapted cartesian basis functions of A   symmetry.
 There are   322 symmetry adapted basis functions of A   symmetry.
   322 basis functions,   549 primitive gaussians,   339 cartesian basis functions
    65 alpha electrons       65 beta electrons
       nuclear repulsion energy      1381.1280495632 Hartrees.
 NAtoms=   33 NActive=   33 NUniq=   33 SFac= 1.00D+00 NAtFMM=   60 NAOKFM=F Big=F
 Integral buffers will be    131072 words long.
 Raffenetti 2 integral format.
 Two-electron integral symmetry is turned on.
 Nuclear repulsion after empirical dispersion term =     1381.0809430412 Hartrees.
 One-electron integrals computed using PRISM.
   1 Symmetry operations used in ECPInt.
 ECPInt:  NShTT=   11628 NPrTT=   42474 LenC2=   11307 LenP2D=   30483.
 LDataN:  DoStor=T MaxTD1= 4 Len=   56
 NBasis=   322 RedAO= T EigKep=  1.80D-04  NBF=   322
 NBsUse=   322 1.00D-06 EigRej= -1.00D+00 NBFU=   322
 ExpMin= 1.22D-01 ExpMax= 9.18D+03 ExpMxC= 1.38D+03 IAcc=3 IRadAn=         5 AccDes= 0.00D+00
 Harris functional with IExCor= 1009 and IRadAn=       5 diagonalized for initial guess.
 HarFok:  IExCor= 1009 AccDes= 0.00D+00 IRadAn=         5 IDoV= 1 UseB2=F ITyADJ=14
 ICtDFT=  3500011 ScaDFX=  1.000000  1.000000  1.000000  1.000000
 FoFCou: FMM=F IPFlag=           0 FMFlag=      100000 FMFlg1=           0
         NFxFlg=           0 DoJE=T BraDBF=F KetDBF=T FulRan=T
         wScrn=  0.000000 ICntrl=       500 IOpCl=  0 I1Cent=   200000004 NGrid=           0
         NMat0=    1 NMatS0=      1 NMatT0=    0 NMatD0=    1 NMtDS0=    0 NMtDT0=    0
 Petite list used in FoFCou.
 Requested convergence on RMS density matrix=1.00D-08 within 128 cycles.
 Requested convergence on MAX density matrix=1.00D-06.
 Requested convergence on             energy=1.00D-06.
 No special actions if energy rises.
 Integral accuracy reduced to 1.0D-05 until final iterations.
 Initial convergence to 1.0D-05 achieved.  Increase integral accuracy.
 SCF Done:  E(RPBE1PBE) =  -1049.21474968     A.U. after   15 cycles
            NFock= 15  Conv=0.71D-08     -V/T= 2.0069

 **********************************************************************

            Population analysis using the SCF Density.

 **********************************************************************

 Orbital symmetries:
       Occupied  (A) (A) (A) (A) (A) (A) (A) (A) (A) (A) (A) (A)
                 (A) (A) (A) (A) (A) (A) (A) (A) (A) (A) (A) (A)
                 (A) (A) (A) (A) (A) (A) (A) (A) (A) (A) (A) (A)
                 (A) (A) (A) (A) (A) (A) (A) (A) (A) (A) (A) (A)
                 (A) (A) (A) (A) (A) (A) (A) (A) (A) (A) (A) (A)
                 (A) (A) (A) (A) (A)
       Virtual   (A) (A) (A) (A) (A) (A) (A) (A) (A) (A) (A) (A)
                 (A) (A) (A) (A) (A) (A) (A) (A) (A) (A) (A) (A)
                 (A) (A) (A) (A) (A) (A) (A) (A) (A) (A) (A) (A)
                 (A) (A) (A) (A) (A) (A) (A) (A) (A) (A) (A) (A)
                 (A) (A) (A) (A) (A) (A) (A) (A) (A) (A) (A) (A)
                 (A) (A) (A) (A) (A) (A) (A) (A) (A) (A) (A) (A)
                 (A) (A) (A) (A) (A) (A) (A) (A) (A) (A) (A) (A)
                 (A) (A) (A) (A) (A) (A) (A) (A) (A) (A) (A) (A)
                 (A) (A) (A) (A) (A) (A) (A) (A) (A) (A) (A) (A)
                 (A) (A) (A) (A) (A) (A) (A) (A) (A) (A) (A) (A)
                 (A) (A) (A) (A) (A) (A) (A) (A) (A) (A) (A) (A)
                 (A) (A) (A) (A) (A) (A) (A) (A) (A) (A) (A) (A)
                 (A) (A) (A) (A) (A) (A) (A) (A) (A) (A) (A) (A)
                 (A) (A) (A) (A) (A) (A) (A) (A) (A) (A) (A) (A)
                 (A) (A) (A) (A) (A) (A) (A) (A) (A) (A) (A) (A)
                 (A) (A) (A) (A) (A) (A) (A) (A) (A) (A) (A) (A)
                 (A) (A) (A) (A) (A) (A) (A) (A) (A) (A) (A) (A)
                 (A) (A) (A) (A) (A) (A) (A) (A) (A) (A) (A) (A)
                 (A) (A) (A) (A) (A) (A) (A) (A) (A) (A) (A) (A)
                 (A) (A) (A) (A) (A) (A) (A) (A) (A) (A) (A) (A)
                 (A) (A) (A) (A) (A) (A) (A) (A) (A) (A) (A) (A)
                 (A) (A) (A) (A) (A)
 The electronic state is 1-A.
 Alpha  occ. eigenvalues --  -89.17734 -14.34025 -14.33726 -10.26358 -10.26200
 Alpha  occ. eigenvalues --  -10.25610 -10.24863 -10.24696 -10.24474 -10.24407
 Alpha  occ. eigenvalues --  -10.24166 -10.24073 -10.23461 -10.23333 -10.23315
 Alpha  occ. eigenvalues --  -10.23245 -10.22982  -8.15211  -6.09328  -6.09245
 Alpha  occ. eigenvalues --   -6.09214  -1.00429  -0.89388  -0.88338  -0.84635
 Alpha  occ. eigenvalues --   -0.82243  -0.78539  -0.77826  -0.76320  -0.75557
 Alpha  occ. eigenvalues --   -0.68440  -0.65376  -0.63559  -0.62267  -0.60350
 Alpha  occ. eigenvalues --   -0.59168  -0.55542  -0.53310  -0.52388  -0.49965
 Alpha  occ. eigenvalues --   -0.49796  -0.47839  -0.47497  -0.46628  -0.45878
 Alpha  occ. eigenvalues --   -0.45449  -0.44860  -0.43754  -0.43318  -0.41148
 Alpha  occ. eigenvalues --   -0.40327  -0.38723  -0.38249  -0.36967  -0.36885
 Alpha  occ. eigenvalues --   -0.35063  -0.34977  -0.30780  -0.29886  -0.28905
 Alpha  occ. eigenvalues --   -0.27466  -0.25684  -0.25082  -0.24406  -0.23965
 Alpha virt. eigenvalues --   -0.03446  -0.02351   0.00345   0.01100   0.04802
 Alpha virt. eigenvalues --    0.06774   0.07305   0.07875   0.08803   0.09700
 Alpha virt. eigenvalues --    0.09810   0.11206   0.12090   0.12192   0.13115
 Alpha virt. eigenvalues --    0.13279   0.14500   0.15062   0.16069   0.16355
 Alpha virt. eigenvalues --    0.17005   0.17376   0.18278   0.19045   0.20712
 Alpha virt. eigenvalues --    0.21888   0.23343   0.25803   0.28471   0.29285
 Alpha virt. eigenvalues --    0.29685   0.30739   0.30994   0.31374   0.32344
 Alpha virt. eigenvalues --    0.32937   0.34673   0.36027   0.37050   0.39992
 Alpha virt. eigenvalues --    0.41176   0.42892   0.43472   0.44264   0.45559
 Alpha virt. eigenvalues --    0.45927   0.46190   0.46534   0.47405   0.48291
 Alpha virt. eigenvalues --    0.48521   0.49267   0.50306   0.51811   0.53288
 Alpha virt. eigenvalues --    0.53371   0.54588   0.54681   0.56268   0.56919
 Alpha virt. eigenvalues --    0.57799   0.59589   0.61725   0.62113   0.63555
 Alpha virt. eigenvalues --    0.64849   0.65540   0.65816   0.66343   0.66597
 Alpha virt. eigenvalues --    0.67312   0.67645   0.68148   0.68541   0.69528
 Alpha virt. eigenvalues --    0.69989   0.70453   0.70705   0.71151   0.71402
 Alpha virt. eigenvalues --    0.72126   0.73014   0.74033   0.74214   0.74607
 Alpha virt. eigenvalues --    0.75344   0.75951   0.76160   0.76872   0.77902
 Alpha virt. eigenvalues --    0.78319   0.79675   0.81179   0.81790   0.81907
 Alpha virt. eigenvalues --    0.83658   0.84000   0.84298   0.86267   0.86862
 Alpha virt. eigenvalues --    0.87287   0.89533   0.92210   0.93542   0.95159
 Alpha virt. eigenvalues --    0.96351   0.97987   0.99820   1.00529   1.02769
 Alpha virt. eigenvalues --    1.03103   1.05077   1.06537   1.07893   1.09437
 Alpha virt. eigenvalues --    1.11383   1.12120   1.13699   1.15063   1.17852
 Alpha virt. eigenvalues --    1.19442   1.21201   1.22247   1.24682   1.25923
 Alpha virt. eigenvalues --    1.27643   1.27978   1.28528   1.28973   1.29621
 Alpha virt. eigenvalues --    1.30642   1.31508   1.31771   1.32414   1.34339
 Alpha virt. eigenvalues --    1.35702   1.37697   1.41072   1.43081   1.47365
 Alpha virt. eigenvalues --    1.48275   1.52524   1.53875   1.57173   1.59743
 Alpha virt. eigenvalues --    1.61406   1.65280   1.66891   1.69490   1.69817
 Alpha virt. eigenvalues --    1.71205   1.71458   1.73453   1.73841   1.75172
 Alpha virt. eigenvalues --    1.76176   1.76349   1.77199   1.78169   1.78334
 Alpha virt. eigenvalues --    1.79444   1.79948   1.80386   1.80723   1.81416
 Alpha virt. eigenvalues --    1.82826   1.83598   1.84716   1.85196   1.86370
 Alpha virt. eigenvalues --    1.88081   1.88847   1.90485   1.92150   1.93155
 Alpha virt. eigenvalues --    1.93608   1.95781   1.97501   1.98095   1.98780
 Alpha virt. eigenvalues --    1.99557   2.00935   2.01415   2.02187   2.04010
 Alpha virt. eigenvalues --    2.06309   2.08258   2.09382   2.10990   2.11134
 Alpha virt. eigenvalues --    2.16110   2.16371   2.16694   2.16950   2.18835
 Alpha virt. eigenvalues --    2.19486   2.21597   2.23208   2.25635   2.26983
 Alpha virt. eigenvalues --    2.28280   2.29277   2.31112   2.32093   2.32835
 Alpha virt. eigenvalues --    2.33303   2.34981   2.36785   2.37359   2.37672
 Alpha virt. eigenvalues --    2.38450   2.40479   2.40926   2.41785   2.44137
 Alpha virt. eigenvalues --    2.44358   2.50427   2.53119   2.54827   2.56046
 Alpha virt. eigenvalues --    2.59239   2.61111   2.62706   2.64753   2.66071
 Alpha virt. eigenvalues --    2.66659   2.67254   2.68101   2.68915   2.70047
 Alpha virt. eigenvalues --    2.71409   2.75932   2.76389   2.77581   2.78566
 Alpha virt. eigenvalues --    2.83452   2.85705   2.87608   2.89897   2.90437
 Alpha virt. eigenvalues --    2.92423   2.93558   2.95773   2.96926   2.98424
 Alpha virt. eigenvalues --    2.99293   3.07051   3.07855   3.13637   3.16255
 Alpha virt. eigenvalues --    3.18586   3.24834   3.27372   3.30524   3.34564
 Alpha virt. eigenvalues --    3.66480   3.70216
          Condensed to atoms (all electrons):
               1          2          3          4          5          6
     1  N    6.889978   0.349356  -0.027649  -0.002397   0.000040  -0.000017
     2  S    0.349356  14.680405   0.060041  -0.042565   0.000841   0.000204
     3  C   -0.027649   0.060041   6.004371   0.091203   0.126315  -0.201946
     4  C   -0.002397  -0.042565   0.091203   5.198598   0.298849   0.110139
     5  C    0.000040   0.000841   0.126315   0.298849   5.026894   0.253738
     6  C   -0.000017   0.000204  -0.201946   0.110139   0.253738   5.151750
     7  C   -0.000099   0.006135   0.131185  -0.163642   0.108012   0.219094
     8  C   -0.002391  -0.024723   0.256743   0.081873  -0.148642   0.128032
     9  C   -0.060794   0.248925  -0.118372  -0.009710  -0.000089  -0.000165
    10  C    0.005511  -0.070686  -0.006713   0.003188  -0.000226   0.000065
    11  C   -0.000210   0.003365  -0.006657  -0.000955  -0.000082   0.000343
    12  C   -0.000002   0.002509  -0.005338  -0.003614   0.000440  -0.000786
    13  C    0.000000  -0.000220  -0.002102   0.001510  -0.000384   0.000693
    14  C    0.000000   0.000028   0.000369  -0.000974  -0.000174  -0.001498
    15  C    0.000000  -0.000072  -0.001152   0.001800  -0.001903   0.000483
    16  C   -0.000025  -0.000327   0.002892  -0.006224   0.000417  -0.000774
    17  N   -0.066438   0.394851  -0.095195   0.007732  -0.000045  -0.000049
    18  H    0.313977  -0.005585  -0.010501   0.005706   0.000298   0.000006
    19  H    0.000574  -0.006054  -0.090381   0.445928  -0.048381   0.013900
    20  H    0.000003  -0.000138   0.017941  -0.073888   0.454754  -0.072781
    21  H   -0.000000   0.000022  -0.001840   0.015992  -0.072168   0.453594
    22  H    0.000002  -0.000174   0.018365  -0.001984   0.015106  -0.078307
    23  H    0.000722  -0.014307  -0.062356   0.016800  -0.002226   0.013146
    24  H    0.010637  -0.008256   0.008757  -0.000196  -0.000015   0.000003
    25  H    0.002167  -0.013358   0.001845   0.002633   0.000892   0.000040
    26  H    0.000587  -0.006710   0.001672  -0.000218   0.000024   0.000003
    27  H   -0.000125   0.004833  -0.000524  -0.000063   0.000000  -0.000002
    28  H    0.000023   0.000612  -0.003107   0.000266  -0.000144   0.000141
    29  H   -0.000000   0.000001   0.000339  -0.000198   0.000168  -0.000428
    30  H    0.000000  -0.000000  -0.000024  -0.000008   0.000074   0.000155
    31  H   -0.000000   0.000001  -0.000081   0.000218  -0.000147   0.000121
    32  H   -0.000002   0.000234   0.000603  -0.000844   0.000206  -0.000049
    33  H    0.006777  -0.012780   0.006109  -0.000504  -0.000005   0.000007
               7          8          9         10         11         12
     1  N   -0.000099  -0.002391  -0.060794   0.005511  -0.000210  -0.000002
     2  S    0.006135  -0.024723   0.248925  -0.070686   0.003365   0.002509
     3  C    0.131185   0.256743  -0.118372  -0.006713  -0.006657  -0.005338
     4  C   -0.163642   0.081873  -0.009710   0.003188  -0.000955  -0.003614
     5  C    0.108012  -0.148642  -0.000089  -0.000226  -0.000082   0.000440
     6  C    0.219094   0.128032  -0.000165   0.000065   0.000343  -0.000786
     7  C    5.173844   0.197445  -0.000072   0.000095  -0.000219  -0.001523
     8  C    0.197445   5.092389   0.004436   0.001438  -0.004780  -0.007179
     9  C   -0.000072   0.004436   5.298579   0.271584  -0.068077   0.000573
    10  C    0.000095   0.001438   0.271584   4.829221   0.389269  -0.082019
    11  C   -0.000219  -0.004780  -0.068077   0.389269   5.379572   0.286352
    12  C   -0.001523  -0.007179   0.000573  -0.082019   0.286352   5.116756
    13  C   -0.006040  -0.001577  -0.000678   0.013880   0.103577   0.271538
    14  C    0.000437   0.000185   0.000043  -0.000194  -0.169636   0.099056
    15  C   -0.000622   0.000310   0.000430   0.010685   0.106968  -0.147607
    16  C    0.000598   0.000026  -0.008084  -0.102536   0.250624   0.056314
    17  N    0.002200  -0.000566  -0.087769  -0.001600  -0.003302   0.000321
    18  H   -0.000036  -0.000584  -0.000625  -0.000020   0.000047  -0.000001
    19  H   -0.001146   0.011956   0.000943   0.000070  -0.000682   0.000313
    20  H    0.014681  -0.001888   0.000042  -0.000003   0.000003  -0.000055
    21  H   -0.072501   0.015194  -0.000000   0.000000   0.000007  -0.000062
    22  H    0.464141  -0.079781   0.000006  -0.000001  -0.000093   0.000454
    23  H   -0.065288   0.439684   0.001106   0.000251   0.000227  -0.000517
    24  H   -0.000000  -0.000076   0.326537   0.000090   0.007478  -0.000430
    25  H   -0.000060  -0.000287   0.339816  -0.019993  -0.011949   0.000002
    26  H   -0.000021   0.000036  -0.036832   0.371262  -0.014581  -0.010130
    27  H    0.000002  -0.000069  -0.004340   0.336924  -0.008044   0.007036
    28  H   -0.000456   0.003834  -0.000397  -0.017608  -0.060778   0.445097
    29  H    0.002457  -0.000859   0.000005  -0.000333   0.016822  -0.070491
    30  H    0.000132  -0.000028   0.000000   0.000034  -0.001726   0.015491
    31  H   -0.000037   0.000015   0.000007  -0.000349   0.017527  -0.002174
    32  H    0.000023  -0.000108  -0.000983  -0.013605  -0.083606   0.016364
    33  H   -0.000049   0.000681   0.003775  -0.001436   0.000139  -0.000038
              13         14         15         16         17         18
     1  N    0.000000   0.000000   0.000000  -0.000025  -0.066438   0.313977
     2  S   -0.000220   0.000028  -0.000072  -0.000327   0.394851  -0.005585
     3  C   -0.002102   0.000369  -0.001152   0.002892  -0.095195  -0.010501
     4  C    0.001510  -0.000974   0.001800  -0.006224   0.007732   0.005706
     5  C   -0.000384  -0.000174  -0.001903   0.000417  -0.000045   0.000298
     6  C    0.000693  -0.001498   0.000483  -0.000774  -0.000049   0.000006
     7  C   -0.006040   0.000437  -0.000622   0.000598   0.002200  -0.000036
     8  C   -0.001577   0.000185   0.000310   0.000026  -0.000566  -0.000584
     9  C   -0.000678   0.000043   0.000430  -0.008084  -0.087769  -0.000625
    10  C    0.013880  -0.000194   0.010685  -0.102536  -0.001600  -0.000020
    11  C    0.103577  -0.169636   0.106968   0.250624  -0.003302   0.000047
    12  C    0.271538   0.099056  -0.147607   0.056314   0.000321  -0.000001
    13  C    5.088421   0.258522   0.097581  -0.147144   0.000036   0.000000
    14  C    0.258522   5.135275   0.259193   0.095127  -0.000000  -0.000000
    15  C    0.097581   0.259193   5.065471   0.291590   0.000001   0.000000
    16  C   -0.147144   0.095127   0.291590   5.177710  -0.000215  -0.000005
    17  N    0.000036  -0.000000   0.000001  -0.000215   6.864522   0.005049
    18  H    0.000000  -0.000000   0.000000  -0.000005   0.005049   0.580073
    19  H   -0.000144   0.000096  -0.000236   0.001064   0.000293   0.001925
    20  H   -0.000001   0.000024   0.000364   0.000150   0.000001  -0.000004
    21  H    0.000158  -0.000047   0.000113  -0.000031   0.000000  -0.000000
    22  H   -0.000532   0.000185  -0.000033   0.000012  -0.000007   0.000000
    23  H    0.000196  -0.000087   0.000020  -0.000122   0.036428  -0.000113
    24  H    0.000022  -0.000002   0.000012   0.000301   0.000021  -0.000735
    25  H    0.000103  -0.000036  -0.000506   0.006135   0.004502   0.000954
    26  H    0.000824  -0.000018  -0.000379   0.008734   0.034991  -0.000091
    27  H   -0.000845   0.000130   0.000224  -0.008344   0.000369  -0.000019
    28  H   -0.066230   0.014295  -0.001641   0.014773   0.004587  -0.000005
    29  H    0.449061  -0.074750   0.014786  -0.001644  -0.000005   0.000000
    30  H   -0.073463   0.453072  -0.073463   0.015461   0.000000  -0.000000
    31  H    0.015816  -0.077224   0.456662  -0.076992  -0.000000   0.000000
    32  H   -0.002175   0.015707  -0.068453   0.454733  -0.000003  -0.000004
    33  H   -0.000001   0.000000  -0.000000   0.000012   0.333864  -0.000379
              19         20         21         22         23         24
     1  N    0.000574   0.000003  -0.000000   0.000002   0.000722   0.010637
     2  S   -0.006054  -0.000138   0.000022  -0.000174  -0.014307  -0.008256
     3  C   -0.090381   0.017941  -0.001840   0.018365  -0.062356   0.008757
     4  C    0.445928  -0.073888   0.015992  -0.001984   0.016800  -0.000196
     5  C   -0.048381   0.454754  -0.072168   0.015106  -0.002226  -0.000015
     6  C    0.013900  -0.072781   0.453594  -0.078307   0.013146   0.000003
     7  C   -0.001146   0.014681  -0.072501   0.464141  -0.065288  -0.000000
     8  C    0.011956  -0.001888   0.015194  -0.079781   0.439684  -0.000076
     9  C    0.000943   0.000042  -0.000000   0.000006   0.001106   0.326537
    10  C    0.000070  -0.000003   0.000000  -0.000001   0.000251   0.000090
    11  C   -0.000682   0.000003   0.000007  -0.000093   0.000227   0.007478
    12  C    0.000313  -0.000055  -0.000062   0.000454  -0.000517  -0.000430
    13  C   -0.000144  -0.000001   0.000158  -0.000532   0.000196   0.000022
    14  C    0.000096   0.000024  -0.000047   0.000185  -0.000087  -0.000002
    15  C   -0.000236   0.000364   0.000113  -0.000033   0.000020   0.000012
    16  C    0.001064   0.000150  -0.000031   0.000012  -0.000122   0.000301
    17  N    0.000293   0.000001   0.000000  -0.000007   0.036428   0.000021
    18  H    0.001925  -0.000004  -0.000000   0.000000  -0.000113  -0.000735
    19  H    0.675676  -0.013068  -0.000283   0.000040  -0.000198  -0.000418
    20  H   -0.013068   0.670303  -0.012473  -0.000277   0.000028  -0.000001
    21  H   -0.000283  -0.012473   0.670062  -0.012497  -0.000211   0.000000
    22  H    0.000040  -0.000277  -0.012497   0.668725  -0.010833  -0.000000
    23  H   -0.000198   0.000028  -0.000211  -0.010833   0.615943  -0.000043
    24  H   -0.000418  -0.000001   0.000000  -0.000000  -0.000043   0.600528
    25  H    0.002543  -0.000026  -0.000001   0.000000  -0.000116  -0.009840
    26  H   -0.000054  -0.000000   0.000000  -0.000001  -0.000244  -0.000323
    27  H    0.000027   0.000000  -0.000000   0.000000   0.000014  -0.010977
    28  H   -0.000000   0.000000   0.000001  -0.000018   0.000675  -0.000042
    29  H   -0.000001  -0.000001  -0.000022   0.000207   0.000006  -0.000000
    30  H   -0.000000  -0.000007   0.000042   0.000000   0.000000   0.000000
    31  H   -0.000005   0.000042   0.000002  -0.000000   0.000000  -0.000001
    32  H   -0.000245   0.000003  -0.000000   0.000000  -0.000001  -0.000220
    33  H   -0.000025  -0.000000   0.000000  -0.000003  -0.000932   0.000742
              25         26         27         28         29         30
     1  N    0.002167   0.000587  -0.000125   0.000023  -0.000000   0.000000
     2  S   -0.013358  -0.006710   0.004833   0.000612   0.000001  -0.000000
     3  C    0.001845   0.001672  -0.000524  -0.003107   0.000339  -0.000024
     4  C    0.002633  -0.000218  -0.000063   0.000266  -0.000198  -0.000008
     5  C    0.000892   0.000024   0.000000  -0.000144   0.000168   0.000074
     6  C    0.000040   0.000003  -0.000002   0.000141  -0.000428   0.000155
     7  C   -0.000060  -0.000021   0.000002  -0.000456   0.002457   0.000132
     8  C   -0.000287   0.000036  -0.000069   0.003834  -0.000859  -0.000028
     9  C    0.339816  -0.036832  -0.004340  -0.000397   0.000005   0.000000
    10  C   -0.019993   0.371262   0.336924  -0.017608  -0.000333   0.000034
    11  C   -0.011949  -0.014581  -0.008044  -0.060778   0.016822  -0.001726
    12  C    0.000002  -0.010130   0.007036   0.445097  -0.070491   0.015491
    13  C    0.000103   0.000824  -0.000845  -0.066230   0.449061  -0.073463
    14  C   -0.000036  -0.000018   0.000130   0.014295  -0.074750   0.453072
    15  C   -0.000506  -0.000379   0.000224  -0.001641   0.014786  -0.073463
    16  C    0.006135   0.008734  -0.008344   0.014773  -0.001644   0.015461
    17  N    0.004502   0.034991   0.000369   0.004587  -0.000005   0.000000
    18  H    0.000954  -0.000091  -0.000019  -0.000005   0.000000  -0.000000
    19  H    0.002543  -0.000054   0.000027  -0.000000  -0.000001  -0.000000
    20  H   -0.000026  -0.000000   0.000000   0.000000  -0.000001  -0.000007
    21  H   -0.000001   0.000000  -0.000000   0.000001  -0.000022   0.000042
    22  H    0.000000  -0.000001   0.000000  -0.000018   0.000207   0.000000
    23  H   -0.000116  -0.000244   0.000014   0.000675   0.000006   0.000000
    24  H   -0.009840  -0.000323  -0.010977  -0.000042  -0.000000   0.000000
    25  H    0.626930   0.008947  -0.004685  -0.000020   0.000002  -0.000001
    26  H    0.008947   0.599440  -0.019834   0.006732  -0.000011  -0.000001
    27  H   -0.004685  -0.019834   0.650036   0.000460   0.000012  -0.000001
    28  H   -0.000020   0.006732   0.000460   0.657424  -0.012488  -0.000271
    29  H    0.000002  -0.000011   0.000012  -0.012488   0.682789  -0.012911
    30  H   -0.000001  -0.000001  -0.000001  -0.000271  -0.012911   0.682792
    31  H    0.000036   0.000010  -0.000003   0.000031  -0.000312  -0.012938
    32  H    0.004084   0.000051   0.003691  -0.000276   0.000039  -0.000307
    33  H   -0.000198  -0.000240   0.000010  -0.000059   0.000000  -0.000000
              31         32         33
     1  N   -0.000000  -0.000002   0.006777
     2  S    0.000001   0.000234  -0.012780
     3  C   -0.000081   0.000603   0.006109
     4  C    0.000218  -0.000844  -0.000504
     5  C   -0.000147   0.000206  -0.000005
     6  C    0.000121  -0.000049   0.000007
     7  C   -0.000037   0.000023  -0.000049
     8  C    0.000015  -0.000108   0.000681
     9  C    0.000007  -0.000983   0.003775
    10  C   -0.000349  -0.013605  -0.001436
    11  C    0.017527  -0.083606   0.000139
    12  C   -0.002174   0.016364  -0.000038
    13  C    0.015816  -0.002175  -0.000001
    14  C   -0.077224   0.015707   0.000000
    15  C    0.456662  -0.068453  -0.000000
    16  C   -0.076992   0.454733   0.000012
    17  N   -0.000000  -0.000003   0.333864
    18  H    0.000000  -0.000004  -0.000379
    19  H   -0.000005  -0.000245  -0.000025
    20  H    0.000042   0.000003  -0.000000
    21  H    0.000002  -0.000000   0.000000
    22  H   -0.000000   0.000000  -0.000003
    23  H    0.000000  -0.000001  -0.000932
    24  H   -0.000001  -0.000220   0.000742
    25  H    0.000036   0.004084  -0.000198
    26  H    0.000010   0.000051  -0.000240
    27  H   -0.000003   0.003691   0.000010
    28  H    0.000031  -0.000276  -0.000059
    29  H   -0.000312   0.000039   0.000000
    30  H   -0.012938  -0.000307  -0.000000
    31  H    0.687080  -0.013516  -0.000000
    32  H   -0.013516   0.694153   0.000000
    33  H   -0.000000   0.000000   0.528229
 Mulliken charges:
               1
     1  N   -0.420205
     2  S    0.453592
     3  C   -0.094814
     4  C    0.025549
     5  C   -0.012437
     6  C    0.011148
     7  C   -0.008671
     8  C    0.039262
     9  C   -0.099820
    10  C    0.083755
    11  C   -0.126941
    12  C    0.013345
    13  C   -0.000401
    14  C   -0.007107
    15  C   -0.010625
    16  C   -0.024206
    17  N   -0.434574
    18  H    0.110672
    19  H    0.005974
    20  H    0.016273
    21  H    0.016949
    22  H    0.017296
    23  H    0.032349
    24  H    0.076446
    25  H    0.059444
    26  H    0.056374
    27  H    0.054108
    28  H    0.014591
    29  H    0.007759
    30  H    0.007896
    31  H    0.006212
    32  H   -0.005495
    33  H    0.136304
 Sum of Mulliken charges =  -0.00000
 Mulliken charges with hydrogens summed into heavy atoms:
               1
     1  N   -0.309534
     2  S    0.453592
     3  C   -0.094814
     4  C    0.031524
     5  C    0.003836
     6  C    0.028097
     7  C    0.008625
     8  C    0.071610
     9  C    0.036069
    10  C    0.194236
    11  C   -0.126941
    12  C    0.027936
    13  C    0.007358
    14  C    0.000789
    15  C   -0.004412
    16  C   -0.029701
    17  N   -0.298271
 Electronic spatial extent (au):  <R**2>=           3569.0201
 Charge=             -0.0000 electrons
 Dipole moment (field-independent basis, Debye):
    X=             -2.8360    Y=             -0.2902    Z=             -2.1587  Tot=              3.5758
 Quadrupole moment (field-independent basis, Debye-Ang):
   XX=           -114.0642   YY=           -106.5470   ZZ=            -99.9370
   XY=            -10.7072   XZ=             -1.0894   YZ=              3.8350
 Traceless Quadrupole moment (field-independent basis, Debye-Ang):
   XX=             -7.2147   YY=              0.3024   ZZ=              6.9124
   XY=            -10.7072   XZ=             -1.0894   YZ=              3.8350
 Octapole moment (field-independent basis, Debye-Ang**2):
  XXX=            -39.4607  YYY=             -2.8691  ZZZ=            -11.3387  XYY=              2.7590
  XXY=             -0.2068  XXZ=              1.2681  XZZ=              3.6224  YZZ=              7.9351
  YYZ=             -1.8219  XYZ=             -1.6408
 Hexadecapole moment (field-independent basis, Debye-Ang**3):
 XXXX=          -2599.0896 YYYY=          -1633.7023 ZZZZ=           -712.4816 XXXY=           -105.7748
 XXXZ=             68.8321 YYYX=            -84.9175 YYYZ=             28.8708 ZZZX=            -14.3037
 ZZZY=              8.5619 XXYY=           -694.1078 XXZZ=           -491.1750 YYZZ=           -379.4243
 XXYZ=             14.3262 YYXZ=              5.0490 ZZXY=             -0.9107
 N-N= 1.381080943041D+03 E-N=-5.216459540466D+03  KE= 1.042046215155D+03
   1 Symmetry operations used in ECPInt.
 ECPInt:  NShTT=   11628 NPrTT=   42474 LenC2=   11307 LenP2D=   30483.
 LDataN:  DoStor=T MaxTD1= 5 Len=  102
 Calling FoFJK, ICntrl=      2127 FMM=F ISym2X=0 I1Cent= 0 IOpClX= 0 NMat=1 NMatS=1 NMatT=0.
 ***** Axes restored to original set *****
 -------------------------------------------------------------------
 Center     Atomic                   Forces (Hartrees/Bohr)
 Number     Number              X              Y              Z
 -------------------------------------------------------------------
      1        7           0.006950906    0.000885259    0.004145009
      2       16           0.006207982   -0.000039212   -0.007089555
      3        6           0.008097774   -0.006057951    0.002429789
      4        6           0.001134431   -0.000169015   -0.002589431
      5        6           0.001318429    0.000129627   -0.000444338
      6        6          -0.000314144    0.001048757    0.000791733
      7        6           0.001567703    0.001578473   -0.002086226
      8        6           0.002234480    0.002462726    0.002124604
      9        6          -0.003489722    0.006788596    0.016701602
     10        6          -0.004727809    0.006396753   -0.004813495
     11        6           0.004788435   -0.008141177    0.001559845
     12        6          -0.001686167   -0.002485038   -0.000174813
     13        6          -0.001357951   -0.000762906    0.000141618
     14        6          -0.001484289    0.000271308    0.000540911
     15        6          -0.000419716   -0.000790158   -0.001682571
     16        6          -0.000936618   -0.000632265    0.000528080
     17        7          -0.020106642   -0.007894959    0.010363651
     18        1          -0.004053614    0.001883440   -0.011703880
     19        1           0.002230502   -0.003286035   -0.008502577
     20        1          -0.004075469    0.001701763   -0.007757246
     21        1          -0.007755453    0.004904954    0.000076169
     22        1          -0.003152081    0.002900460    0.008141927
     23        1           0.004712967   -0.003369177    0.008546249
     24        1           0.008996450    0.000952897   -0.000205376
     25        1          -0.002425167    0.002581355   -0.008896134
     26        1           0.002923407   -0.002619698    0.004690026
     27        1           0.001142050   -0.005147396   -0.002042321
     28        1           0.005726179    0.000239491    0.007387228
     29        1          -0.003186167    0.003509781    0.007798556
     30        1          -0.008420465    0.003569444    0.000269656
     31        1          -0.004996942    0.000113518   -0.007474551
     32        1           0.003378497   -0.003070845   -0.007931723
     33        1           0.011178225    0.002547231   -0.002842417
 -------------------------------------------------------------------
 Cartesian Forces:  Max     0.020106642 RMS     0.005327785

 GradGradGradGradGradGradGradGradGradGradGradGradGradGradGradGradGradGrad
 Berny optimization.
 FormGI is forming the generalized inverse of G from B-inverse, IUseBI=4.
 Internal  Forces:  Max     0.033170367 RMS     0.006118072
 Search for a local minimum.
 Step number   1 out of a maximum of  184
 All quantities printed in internal units (Hartrees-Bohrs-Radians)
 Mixed Optimization -- RFO/linear search
 Second derivative matrix not updated -- first step.
 ITU=  0
     Eigenvalues ---    0.00230   0.00230   0.00531   0.00723   0.01512
     Eigenvalues ---    0.01625   0.02246   0.02271   0.02280   0.02286
     Eigenvalues ---    0.02290   0.02292   0.02295   0.02297   0.02301
     Eigenvalues ---    0.02305   0.02305   0.02306   0.02310   0.02313
     Eigenvalues ---    0.02322   0.02332   0.03482   0.03613   0.03881
     Eigenvalues ---    0.04327   0.04923   0.05634   0.06883   0.07883
     Eigenvalues ---    0.07898   0.09033   0.09235   0.11795   0.12773
     Eigenvalues ---    0.15999   0.15999   0.16000   0.16000   0.16000
     Eigenvalues ---    0.16000   0.16000   0.16000   0.16000   0.16000
     Eigenvalues ---    0.16000   0.16000   0.16809   0.19368   0.21559
     Eigenvalues ---    0.21965   0.21998   0.21999   0.22000   0.22000
     Eigenvalues ---    0.22017   0.23471   0.23475   0.24848   0.24943
     Eigenvalues ---    0.24999   0.30581   0.32041   0.34317   0.34569
     Eigenvalues ---    0.34926   0.35228   0.35796   0.35940   0.35948
     Eigenvalues ---    0.35991   0.35999   0.36016   0.36017   0.36025
     Eigenvalues ---    0.36040   0.36168   0.43466   0.43584   0.43708
     Eigenvalues ---    0.43873   0.46506   0.46768   0.47703   0.48041
     Eigenvalues ---    0.48220   0.48398   0.48417   0.48532   0.48559
     Eigenvalues ---    0.48781   0.66223   0.68994
 RFO step:  Lambda=-2.88323021D-02 EMin= 2.30000000D-03
 Linear search not attempted -- first point.
 Iteration  1 RMS(Cart)=  0.42379669 RMS(Int)=  0.01243799
 Iteration  2 RMS(Cart)=  0.09759961 RMS(Int)=  0.00129268
 Iteration  3 RMS(Cart)=  0.00272985 RMS(Int)=  0.00107609
 Iteration  4 RMS(Cart)=  0.00000480 RMS(Int)=  0.00107609
 Iteration  5 RMS(Cart)=  0.00000001 RMS(Int)=  0.00107609
 Variable       Old X    -DE/DX   Delta X   Delta X   Delta X     New X
                                 (Linear)    (Quad)   (Total)
    R1        2.90031   0.00679   0.00000   0.00983   0.00983   2.91014
    R2        1.90265   0.01227   0.00000   0.02484   0.02484   1.92749
    R3        3.43296  -0.00412   0.00000  -0.01484  -0.01484   3.41812
    R4        3.52559  -0.00224   0.00000  -0.00918  -0.00918   3.51641
    R5        2.88160   0.00708   0.00000   0.00985   0.00985   2.89145
    R6        2.61099   0.01081   0.00000   0.02114   0.02121   2.63220
    R7        2.60993   0.00936   0.00000   0.01826   0.01834   2.62827
    R8        2.61616   0.00831   0.00000   0.01626   0.01626   2.63242
    R9        2.04163   0.00929   0.00000   0.02393   0.02393   2.06556
   R10        2.61715   0.01020   0.00000   0.01979   0.01971   2.63686
   R11        2.04055   0.00892   0.00000   0.02294   0.02294   2.06348
   R12        2.61760   0.00944   0.00000   0.01828   0.01821   2.63581
   R13        2.04056   0.00917   0.00000   0.02358   0.02358   2.06414
   R14        2.61433   0.00885   0.00000   0.01719   0.01719   2.63152
   R15        2.04019   0.00919   0.00000   0.02362   0.02362   2.06380
   R16        2.03819   0.01028   0.00000   0.02632   0.02632   2.06451
   R17        2.86820   0.01036   0.00000   0.03095   0.03095   2.89915
   R18        2.05795   0.00740   0.00000   0.01957   0.01957   2.07753
   R19        2.05306   0.00941   0.00000   0.02470   0.02470   2.07776
   R20        2.84068   0.00511   0.00000   0.01462   0.01462   2.85530
   R21        2.06380   0.00553   0.00000   0.01476   0.01476   2.07857
   R22        2.06798   0.00552   0.00000   0.01485   0.01485   2.08283
   R23        2.62186   0.00911   0.00000   0.01790   0.01794   2.63980
   R24        2.62653   0.01057   0.00000   0.02096   0.02100   2.64753
   R25        2.61468   0.01081   0.00000   0.02106   0.02106   2.63574
   R26        2.04042   0.00931   0.00000   0.02394   0.02394   2.06436
   R27        2.61443   0.00967   0.00000   0.01892   0.01888   2.63331
   R28        2.04096   0.00912   0.00000   0.02345   0.02345   2.06441
   R29        2.61595   0.01006   0.00000   0.01971   0.01968   2.63562
   R30        2.04083   0.00915   0.00000   0.02353   0.02353   2.06435
   R31        2.61268   0.00981   0.00000   0.01903   0.01904   2.63172
   R32        2.04176   0.00899   0.00000   0.02316   0.02316   2.06492
   R33        2.04401   0.00915   0.00000   0.02365   0.02365   2.06766
   R34        1.89974   0.01016   0.00000   0.02046   0.02046   1.92021
    A1        1.99875  -0.00476   0.00000  -0.02523  -0.02523   1.97352
    A2        1.97704  -0.00752   0.00000  -0.04188  -0.04101   1.93602
    A3        1.95146  -0.00912   0.00000  -0.04835  -0.04769   1.90377
    A4        1.98797   0.00936   0.00000   0.04139   0.04106   2.02903
    A5        1.77644   0.01565   0.00000   0.07052   0.07042   1.84686
    A6        1.85497  -0.00392   0.00000  -0.00715  -0.00721   1.84776
    A7        1.90167  -0.00378   0.00000  -0.01034  -0.01049   1.89118
    A8        2.11256  -0.00039   0.00000  -0.00285  -0.00350   2.10907
    A9        2.05849  -0.00183   0.00000  -0.00804  -0.00867   2.04983
   A10        2.11010   0.00207   0.00000   0.00730   0.00699   2.11708
   A11        2.08392  -0.00142   0.00000  -0.00485  -0.00468   2.07924
   A12        2.10398   0.00175   0.00000   0.00792   0.00783   2.11181
   A13        2.09528  -0.00033   0.00000  -0.00307  -0.00316   2.09212
   A14        2.09464   0.00021   0.00000   0.00090   0.00091   2.09555
   A15        2.09144  -0.00033   0.00000  -0.00163  -0.00163   2.08981
   A16        2.09710   0.00012   0.00000   0.00072   0.00071   2.09781
   A17        2.09776   0.00011   0.00000  -0.00004  -0.00011   2.09765
   A18        2.09050  -0.00006   0.00000  -0.00001   0.00002   2.09052
   A19        2.09491  -0.00005   0.00000   0.00006   0.00010   2.09501
   A20        2.09225   0.00084   0.00000   0.00320   0.00322   2.09547
   A21        2.09680  -0.00008   0.00000   0.00019   0.00018   2.09697
   A22        2.09414  -0.00076   0.00000  -0.00340  -0.00341   2.09073
   A23        2.08730  -0.00180   0.00000  -0.00657  -0.00642   2.08088
   A24        2.06224   0.00060   0.00000   0.00175   0.00164   2.06388
   A25        2.13361   0.00120   0.00000   0.00492   0.00482   2.13842
   A26        1.92189   0.03317   0.00000   0.14277   0.14030   2.06219
   A27        1.81865  -0.01711   0.00000  -0.10908  -0.10614   1.71251
   A28        1.88349  -0.00772   0.00000   0.00731   0.00070   1.88420
   A29        1.94817  -0.00706   0.00000  -0.04658  -0.04115   1.90702
   A30        1.96962  -0.00657   0.00000   0.01094   0.00496   1.97458
   A31        1.91497   0.00474   0.00000  -0.01169  -0.01305   1.90192
   A32        1.95806   0.02498   0.00000   0.10788   0.10675   2.06481
   A33        1.87595  -0.00586   0.00000  -0.00311  -0.00687   1.86908
   A34        1.90460  -0.00867   0.00000  -0.05082  -0.04922   1.85537
   A35        1.91721  -0.00348   0.00000   0.01726   0.01416   1.93137
   A36        1.91077  -0.00973   0.00000  -0.05608  -0.05410   1.85668
   A37        1.89605   0.00231   0.00000  -0.01772  -0.01835   1.87770
   A38        2.10878   0.00289   0.00000   0.01065   0.01030   2.11908
   A39        2.10101  -0.00145   0.00000  -0.00489  -0.00522   2.09578
   A40        2.07336  -0.00142   0.00000  -0.00542  -0.00557   2.06779
   A41        2.10470   0.00049   0.00000   0.00168   0.00176   2.10646
   A42        2.08161  -0.00069   0.00000  -0.00320  -0.00324   2.07837
   A43        2.09682   0.00020   0.00000   0.00153   0.00149   2.09831
   A44        2.09770   0.00053   0.00000   0.00219   0.00220   2.09990
   A45        2.09104  -0.00037   0.00000  -0.00162  -0.00162   2.08942
   A46        2.09444  -0.00017   0.00000  -0.00058  -0.00058   2.09386
   A47        2.08859  -0.00065   0.00000  -0.00241  -0.00244   2.08615
   A48        2.09842   0.00022   0.00000   0.00068   0.00069   2.09912
   A49        2.09616   0.00042   0.00000   0.00173   0.00175   2.09791
   A50        2.09510  -0.00033   0.00000  -0.00131  -0.00131   2.09379
   A51        2.09561   0.00012   0.00000   0.00043   0.00043   2.09604
   A52        2.09247   0.00021   0.00000   0.00087   0.00087   2.09334
   A53        2.10679   0.00138   0.00000   0.00522   0.00529   2.11209
   A54        2.08820  -0.00060   0.00000  -0.00214  -0.00219   2.08601
   A55        2.08818  -0.00078   0.00000  -0.00311  -0.00315   2.08503
   A56        1.97249  -0.01143   0.00000  -0.06051  -0.06051   1.91199
    D1       -0.99950  -0.00454   0.00000  -0.01750  -0.01837  -1.01787
    D2        0.99549   0.00446   0.00000   0.01323   0.01419   1.00967
    D3       -3.12240  -0.00066   0.00000  -0.00723  -0.00731  -3.12971
    D4        1.13212  -0.00286   0.00000  -0.00291  -0.00306   1.12906
    D5       -1.94164  -0.00029   0.00000   0.05666   0.05621  -1.88543
    D6       -0.96562   0.00205   0.00000   0.03177   0.03229  -0.93334
    D7        2.24381   0.00461   0.00000   0.09134   0.09156   2.33536
    D8       -2.95521   0.00116   0.00000   0.01663   0.01671  -2.93849
    D9        0.25422   0.00373   0.00000   0.07620   0.07598   0.33020
   D10        2.89800  -0.00249   0.00000  -0.09095  -0.09267   2.80533
   D11        0.80652  -0.00112   0.00000  -0.04586  -0.04362   0.76289
   D12       -1.22836   0.00526   0.00000   0.01748   0.01825  -1.21011
   D13       -1.26957  -0.00651   0.00000  -0.12205  -0.12452  -1.39409
   D14        2.92213  -0.00513   0.00000  -0.07696  -0.07547   2.84666
   D15        0.88726   0.00124   0.00000  -0.01361  -0.01360   0.87366
   D16        0.68506  -0.00514   0.00000  -0.10174  -0.10399   0.58107
   D17       -1.40642  -0.00377   0.00000  -0.05664  -0.05494  -1.46136
   D18        2.84189   0.00260   0.00000   0.00670   0.00694   2.84883
   D19       -0.21034   0.00040   0.00000   0.00016   0.00032  -0.21003
   D20       -2.39954   0.00670   0.00000   0.03145   0.03127  -2.36828
   D21        1.98156  -0.00772   0.00000  -0.04124  -0.04122   1.94034
   D22       -3.10292   0.00282   0.00000   0.05831   0.05848  -3.04444
   D23        0.03642   0.00254   0.00000   0.05384   0.05399   0.09041
   D24       -0.03117   0.00002   0.00000  -0.00364  -0.00372  -0.03488
   D25        3.10817  -0.00025   0.00000  -0.00811  -0.00821   3.09996
   D26        3.09844  -0.00302   0.00000  -0.06273  -0.06274   3.03571
   D27       -0.05307  -0.00246   0.00000  -0.05255  -0.05260  -0.10567
   D28        0.02459  -0.00036   0.00000  -0.00283  -0.00275   0.02184
   D29       -3.12693   0.00020   0.00000   0.00735   0.00739  -3.11953
   D30        0.01546   0.00023   0.00000   0.00629   0.00634   0.02180
   D31       -3.12936   0.00007   0.00000   0.00271   0.00273  -3.12662
   D32       -3.12389   0.00049   0.00000   0.01073   0.01076  -3.11312
   D33        0.01448   0.00034   0.00000   0.00715   0.00716   0.02164
   D34        0.00648  -0.00020   0.00000  -0.00276  -0.00276   0.00372
   D35       -3.14132  -0.00002   0.00000  -0.00057  -0.00059   3.14128
   D36       -3.13187  -0.00004   0.00000   0.00084   0.00086  -3.13101
   D37        0.00351   0.00014   0.00000   0.00303   0.00303   0.00655
   D38       -0.01314  -0.00015   0.00000  -0.00377  -0.00381  -0.01695
   D39        3.13016   0.00014   0.00000   0.00107   0.00104   3.13120
   D40        3.13467  -0.00033   0.00000  -0.00596  -0.00598   3.12869
   D41       -0.00521  -0.00004   0.00000  -0.00113  -0.00113  -0.00635
   D42       -0.00225   0.00044   0.00000   0.00658   0.00656   0.00431
   D43       -3.13350  -0.00014   0.00000  -0.00401  -0.00401  -3.13751
   D44        3.13765   0.00015   0.00000   0.00175   0.00173   3.13938
   D45        0.00639  -0.00043   0.00000  -0.00883  -0.00884  -0.00245
   D46        1.34517   0.00981   0.00000   0.16705   0.16883   1.51400
   D47       -0.76420   0.00277   0.00000   0.08183   0.08275  -0.68145
   D48       -2.81731   0.00794   0.00000   0.13190   0.13245  -2.68486
   D49       -2.92691   0.00489   0.00000   0.09277   0.09330  -2.83361
   D50        1.24690  -0.00216   0.00000   0.00755   0.00722   1.25412
   D51       -0.80621   0.00301   0.00000   0.05762   0.05692  -0.74929
   D52       -0.76065   0.00067   0.00000   0.04939   0.04917  -0.71148
   D53       -2.87002  -0.00638   0.00000  -0.03583  -0.03691  -2.90693
   D54        1.36006  -0.00121   0.00000   0.01423   0.01279   1.37285
   D55       -1.98241  -0.00377   0.00000  -0.06535  -0.06673  -2.04915
   D56        1.15018  -0.00177   0.00000  -0.02092  -0.02218   1.12799
   D57        0.10298   0.00264   0.00000   0.01195   0.01281   0.11579
   D58       -3.04761   0.00463   0.00000   0.05638   0.05736  -2.99026
   D59        2.18361  -0.00259   0.00000  -0.03356  -0.03322   2.15039
   D60       -0.96699  -0.00060   0.00000   0.01088   0.01133  -0.95565
   D61        3.11995   0.00186   0.00000   0.03909   0.03924  -3.12400
   D62       -0.01136   0.00180   0.00000   0.03833   0.03844   0.02708
   D63       -0.01278  -0.00011   0.00000  -0.00465  -0.00462  -0.01740
   D64        3.13910  -0.00017   0.00000  -0.00541  -0.00542   3.13368
   D65       -3.11628  -0.00191   0.00000  -0.03986  -0.03963   3.12728
   D66        0.03051  -0.00154   0.00000  -0.03304  -0.03283  -0.00232
   D67        0.01649   0.00007   0.00000   0.00376   0.00370   0.02020
   D68       -3.11991   0.00044   0.00000   0.01059   0.01050  -3.10941
   D69       -0.00044   0.00011   0.00000   0.00302   0.00304   0.00260
   D70       -3.13856   0.00021   0.00000   0.00458   0.00458  -3.13398
   D71        3.13077   0.00016   0.00000   0.00376   0.00382   3.13459
   D72       -0.00734   0.00026   0.00000   0.00533   0.00536  -0.00198
   D73        0.01019  -0.00004   0.00000  -0.00032  -0.00034   0.00984
   D74       -3.13632   0.00001   0.00000  -0.00000  -0.00002  -3.13634
   D75       -3.13489  -0.00014   0.00000  -0.00190  -0.00189  -3.13678
   D76        0.00178  -0.00009   0.00000  -0.00158  -0.00156   0.00023
   D77       -0.00651  -0.00000   0.00000  -0.00059  -0.00060  -0.00711
   D78        3.13181  -0.00013   0.00000  -0.00329  -0.00327   3.12854
   D79        3.14000  -0.00005   0.00000  -0.00091  -0.00092   3.13907
   D80       -0.00487  -0.00018   0.00000  -0.00361  -0.00359  -0.00846
   D81       -0.00696  -0.00002   0.00000  -0.00118  -0.00114  -0.00810
   D82        3.12944  -0.00039   0.00000  -0.00801  -0.00793   3.12151
   D83        3.13790   0.00011   0.00000   0.00152   0.00153   3.13943
   D84       -0.00888  -0.00026   0.00000  -0.00530  -0.00526  -0.01415
         Item               Value     Threshold  Converged?
[...]
    10  C    0.027134  -0.005678   0.016437  -0.101314  -0.040955   0.001994
    11  C    0.074700  -0.124681   0.059949   0.342620   0.008432  -0.000041
    12  C    0.390670   0.051725  -0.095722   0.027779  -0.000515  -0.000167
    13  C    4.948311   0.429577   0.041051  -0.113245  -0.000151   0.000019
    14  C    0.429577   4.940371   0.432048   0.062923   0.000003  -0.000012
    15  C    0.041051   0.432048   4.945025   0.392027   0.000027   0.000031
    16  C   -0.113245   0.062923   0.392027   5.201672  -0.000327  -0.000208
    17  N   -0.000151   0.000003   0.000027  -0.000327   6.982611   0.009135
    18  H    0.000019  -0.000012   0.000031  -0.000208   0.009135   0.506181
    19  H   -0.000013  -0.000068  -0.000444   0.002261   0.000934   0.001538
    20  H   -0.000978   0.001372   0.001660   0.000006  -0.000001  -0.000006
    21  H    0.000183   0.000079  -0.000025  -0.000026   0.000003  -0.000000
    22  H   -0.000106  -0.000071   0.000014  -0.000007  -0.000187   0.000001
    23  H    0.000083   0.000021  -0.000001  -0.000042   0.026120  -0.000128
    24  H   -0.000016   0.000040  -0.000245   0.001828  -0.004847  -0.001454
    25  H   -0.000204  -0.000071   0.000442  -0.004208   0.006859   0.001365
    26  H    0.000518   0.000369  -0.000810   0.008188   0.026686  -0.000260
    27  H   -0.001352   0.000186   0.000553   0.000360   0.000157  -0.000049
    28  H   -0.047422   0.009150  -0.001860   0.012720   0.002153  -0.000010
    29  H    0.424078  -0.055155   0.011619  -0.002736  -0.000003   0.000000
    30  H   -0.053500   0.427897  -0.053809   0.011448  -0.000000  -0.000000
    31  H    0.011374  -0.053979   0.428765  -0.056672   0.000000   0.000000
    32  H   -0.003522   0.011581  -0.053182   0.435201   0.000016  -0.000041
    33  H    0.000004   0.000000  -0.000001   0.000017   0.309202   0.000059
              19         20         21         22         23         24
     1  N    0.001412   0.000011  -0.000002   0.000006   0.001509   0.013521
     2  S    0.002454  -0.000379   0.000051  -0.000406  -0.011724  -0.024587
     3  C   -0.111340   0.013778  -0.002202   0.012486  -0.044463   0.014259
     4  C    0.446166  -0.051482   0.012426  -0.002738   0.018357  -0.004025
     5  C   -0.038011   0.422527  -0.053010   0.012409  -0.004406  -0.000067
     6  C    0.012079  -0.051813   0.427820  -0.057372   0.011133  -0.000014
     7  C   -0.003093   0.010888  -0.054555   0.435842  -0.069392   0.000062
     8  C    0.012398  -0.002844   0.010937  -0.058082   0.430252  -0.000255
     9  C    0.005717   0.000090   0.000001   0.000012   0.001304   0.366430
    10  C   -0.003301  -0.000056   0.000019  -0.000018  -0.001149  -0.015983
    11  C   -0.000547  -0.000374   0.000071   0.000072   0.000167   0.006796
    12  C    0.000656  -0.000506  -0.000075  -0.000308   0.000247  -0.000522
    13  C   -0.000013  -0.000978   0.000183  -0.000106   0.000083  -0.000016
    14  C   -0.000068   0.001372   0.000079  -0.000071   0.000021   0.000040
    15  C   -0.000444   0.001660  -0.000025   0.000014  -0.000001  -0.000245
    16  C    0.002261   0.000006  -0.000026  -0.000007  -0.000042   0.001828
    17  N    0.000934  -0.000001   0.000003  -0.000187   0.026120  -0.004847
    18  H    0.001538  -0.000006  -0.000000   0.000001  -0.000128  -0.001454
    19  H    0.575400  -0.008622  -0.000309   0.000081  -0.000050  -0.000423
    20  H   -0.008622   0.557628  -0.007646  -0.000239   0.000036  -0.000001
    21  H   -0.000309  -0.007646   0.555025  -0.008158  -0.000136   0.000000
    22  H    0.000081  -0.000239  -0.008158   0.550028  -0.006496  -0.000001
    23  H   -0.000050   0.000036  -0.000136  -0.006496   0.481298  -0.000110
    24  H   -0.000423  -0.000001   0.000000  -0.000001  -0.000110   0.529335
    25  H    0.000810  -0.000002  -0.000002   0.000002  -0.000072  -0.015805
    26  H   -0.000032  -0.000001  -0.000000  -0.000005   0.000383   0.002298
    27  H    0.000113  -0.000002   0.000000  -0.000000   0.000028  -0.010505
    28  H   -0.000053   0.000008  -0.000040   0.000013   0.000976  -0.000032
    29  H    0.000006  -0.000067   0.000137   0.000096  -0.000015  -0.000001
    30  H   -0.000011   0.000081   0.000028  -0.000001  -0.000000   0.000000
    31  H   -0.000018   0.000075  -0.000001   0.000000   0.000000  -0.000004
    32  H    0.000212  -0.000014  -0.000000  -0.000000  -0.000000   0.000159
    33  H   -0.000079  -0.000000   0.000000  -0.000000  -0.001664   0.002189
              25         26         27         28         29         30
     1  N   -0.000771   0.001847  -0.000619   0.000040  -0.000000  -0.000000
     2  S   -0.002484   0.000371   0.002921   0.000277  -0.000013  -0.000001
     3  C   -0.003081  -0.000675  -0.000972  -0.000198  -0.000201   0.000049
     4  C   -0.000002   0.000972   0.000517  -0.000123  -0.000128   0.000186
     5  C    0.002253   0.000115  -0.000038   0.000707  -0.001134  -0.000020
     6  C   -0.000305   0.000041   0.000009  -0.000782   0.001915   0.000095
     7  C    0.000369   0.000071  -0.000056   0.001596   0.001231  -0.000055
     8  C   -0.002623  -0.001307   0.000388   0.001296  -0.000091   0.000007
     9  C    0.359349  -0.039809  -0.022245  -0.000538   0.000009   0.000002
    10  C   -0.058088   0.386584   0.366832  -0.011470  -0.000279   0.000068
    11  C    0.006072  -0.037453  -0.036896  -0.046191   0.013664  -0.002072
    12  C    0.005694   0.011576   0.002195   0.414002  -0.052474   0.010700
    13  C   -0.000204   0.000518  -0.001352  -0.047422   0.424078  -0.053500
    14  C   -0.000071   0.000369   0.000186   0.009150  -0.055155   0.427897
    15  C    0.000442  -0.000810   0.000553  -0.001860   0.011619  -0.053809
    16  C   -0.004208   0.008188   0.000360   0.012720  -0.002736   0.011448
    17  N    0.006859   0.026686   0.000157   0.002153  -0.000003  -0.000000
    18  H    0.001365  -0.000260  -0.000049  -0.000010   0.000000  -0.000000
    19  H    0.000810  -0.000032   0.000113  -0.000053   0.000006  -0.000011
    20  H   -0.000002  -0.000001  -0.000002   0.000008  -0.000067   0.000081
    21  H   -0.000002  -0.000000   0.000000  -0.000040   0.000137   0.000028
    22  H    0.000002  -0.000005  -0.000000   0.000013   0.000096  -0.000001
    23  H   -0.000072   0.000383   0.000028   0.000976  -0.000015  -0.000000
    24  H   -0.015805   0.002298  -0.010505  -0.000032  -0.000001   0.000000
    25  H    0.558048   0.006053  -0.002018   0.000166   0.000002  -0.000002
    26  H    0.006053   0.510680  -0.023604   0.005014  -0.000080  -0.000001
    27  H   -0.002018  -0.023604   0.590855   0.000472   0.000018  -0.000003
    28  H    0.000166   0.005014   0.000472   0.545459  -0.007912  -0.000281
    29  H    0.000002  -0.000080   0.000018  -0.007912   0.565512  -0.008109
    30  H   -0.000002  -0.000001  -0.000003  -0.000281  -0.008109   0.561008
    31  H    0.000046   0.000010  -0.000014   0.000080  -0.000296  -0.008067
    32  H    0.003880   0.000298   0.001731  -0.000252   0.000075  -0.000296
    33  H    0.000030  -0.000650  -0.000095  -0.000038   0.000000   0.000000
              31         32         33
     1  N    0.000000   0.000008  -0.001571
     2  S    0.000006  -0.000009  -0.008879
     3  C   -0.000038   0.000812   0.014450
     4  C   -0.000432  -0.000236  -0.002013
     5  C    0.000058   0.000063   0.000074
     6  C   -0.000044   0.000009  -0.000032
     7  C    0.000010  -0.000002   0.000170
     8  C   -0.000003  -0.000016  -0.001188
     9  C    0.000042   0.001297  -0.003850
    10  C   -0.000445  -0.007934   0.000493
    11  C    0.012839  -0.071986  -0.000191
    12  C   -0.002238   0.015079  -0.000010
    13  C    0.011374  -0.003522   0.000004
    14  C   -0.053979   0.011581   0.000000
    15  C    0.428765  -0.053182  -0.000001
    16  C   -0.056672   0.435201   0.000017
    17  N    0.000000   0.000016   0.309202
    18  H    0.000000  -0.000041   0.000059
    19  H   -0.000018   0.000212  -0.000079
    20  H    0.000075  -0.000014  -0.000000
    21  H   -0.000001  -0.000000   0.000000
    22  H    0.000000  -0.000000  -0.000000
    23  H    0.000000  -0.000000  -0.001664
    24  H   -0.000004   0.000159   0.002189
    25  H    0.000046   0.003880   0.000030
    26  H    0.000010   0.000298  -0.000650
    27  H   -0.000014   0.001731  -0.000095
    28  H    0.000080  -0.000252  -0.000038
    29  H   -0.000296   0.000075   0.000000
    30  H   -0.008067  -0.000296   0.000000
    31  H    0.561056  -0.008515  -0.000000
    32  H   -0.008515   0.561338   0.000001
    33  H   -0.000000   0.000001   0.466051
 Mulliken charges:
               1
     1  N   -0.547440
     2  S    0.494455
     3  C    0.236743
     4  C   -0.185576
     5  C   -0.091817
     6  C   -0.135720
     7  C   -0.082178
     8  C   -0.237364
     9  C   -0.289411
    10  C   -0.180263
    11  C    0.147006
    12  C   -0.160493
    13  C   -0.090711
    14  C   -0.145373
    15  C   -0.101550
    16  C   -0.256084
    17  N   -0.573467
    18  H    0.207465
    19  H    0.104175
    20  H    0.116874
    21  H    0.119406
    22  H    0.123133
    23  H    0.167935
    24  H    0.141979
    25  H    0.138296
    26  H    0.142612
    27  H    0.131131
    28  H    0.123074
    29  H    0.110331
    30  H    0.114658
    31  H    0.116404
    32  H    0.114249
    33  H    0.227521
 Sum of Mulliken charges =  -0.00000
 Mulliken charges with hydrogens summed into heavy atoms:
               1
     1  N   -0.339975
     2  S    0.494455
     3  C    0.236743
     4  C   -0.081402
     5  C    0.025057
     6  C   -0.016313
     7  C    0.040955
     8  C   -0.069429
     9  C   -0.009136
    10  C    0.093481
    11  C    0.147006
    12  C   -0.037419
    13  C    0.019619
    14  C   -0.030716
    15  C    0.014854
    16  C   -0.141835
    17  N   -0.345946
 Electronic spatial extent (au):  <R**2>=           3768.4837
 Charge=             -0.0000 electrons
 Dipole moment (field-independent basis, Debye):
    X=             -3.7281    Y=             -1.0780    Z=             -1.1633  Tot=              4.0515
 Quadrupole moment (field-independent basis, Debye-Ang):
   XX=           -119.4258   YY=           -100.6459   ZZ=           -104.4055
   XY=            -11.1642   XZ=              4.4552   YZ=              5.5744
 Traceless Quadrupole moment (field-independent basis, Debye-Ang):
   XX=            -11.2667   YY=              7.5132   ZZ=              3.7536
   XY=            -11.1642   XZ=              4.4552   YZ=              5.5744
 Octapole moment (field-independent basis, Debye-Ang**2):
  XXX=            -50.5017  YYY=             -1.5284  ZZZ=            -14.2562  XYY=              2.8702
  XXY=             -2.4572  XXZ=              5.2835  XZZ=             -3.5225  YZZ=             -0.8844
  YYZ=              4.8843  XYZ=             -3.4244
 Hexadecapole moment (field-independent basis, Debye-Ang**3):
 XXXX=          -2901.3217 YYYY=          -1643.9951 ZZZZ=           -684.6350 XXXY=           -114.1560
 XXXZ=            140.8509 YYYX=            -83.8857 YYYZ=             45.0287 ZZZX=            -10.7870
 ZZZY=             28.0879 XXYY=           -744.5782 XXZZ=           -584.3956 YYZZ=           -387.1672
 XXYZ=             19.3147 YYXZ=             24.5731 ZZXY=            -20.5709
 N-N= 1.360024318740D+03 E-N=-5.179843494665D+03  KE= 1.045823630586D+03
 Breneman (CHELPG) radii used.
 Read replacement radii for each type of atom:
 Atom Element Radius
    1     7    1.70
    2    16    2.00
    3     6    1.50
    4     6    1.50
    5     6    1.50
    6     6    1.50
    7     6    1.50
    8     6    1.50
    9     6    1.50
   10     6    1.50
   11     6    1.50
   12     6    1.50
   13     6    1.50
   14     6    1.50
   15     6    1.50
   16     6    1.50
   17     7    1.70
   18     1    1.45
   19     1    1.45
   20     1    1.45
   21     1    1.45
   22     1    1.45
   23     1    1.45
   24     1    1.45
   25     1    1.45
   26     1    1.45
   27     1    1.45
   28     1    1.45
   29     1    1.45
   30     1    1.45
   31     1    1.45
   32     1    1.45
   33     1    1.45
 Generate Potential Derived Charges using the Breneman model, NDens= 1.
 Grid spacing= 0.300 Box extension= 2.800
 NStep X,Y,Z=   47     43     35   Total possible points=       70735
 Number of Points to Fit=   18552

 **********************************************************************

            Electrostatic Properties Using The SCF Density.

 **********************************************************************

       Atomic Center    1 is at   3.310594 -0.179753 -1.230441
       Atomic Center    2 is at   2.263895 -0.291570 -0.100109
       Atomic Center    3 is at   0.940908  0.924143 -0.168025
       Atomic Center    4 is at   0.117025  0.964343 -1.291088
       Atomic Center    5 is at  -0.880063  1.931140 -1.367384
       Atomic Center    6 is at  -1.028028  2.862620 -0.339061
       Atomic Center    7 is at  -0.178330  2.829079  0.765218
       Atomic Center    8 is at   0.813723  1.854664  0.858092
       Atomic Center    9 is at   1.348440 -1.868958 -0.320260
       Atomic Center   10 is at   0.308992 -2.148620  0.755393
       Atomic Center   11 is at  -1.043035 -1.535937  0.496098
       Atomic Center   12 is at  -1.563770 -0.548473  1.336495
       Atomic Center   13 is at  -2.794953  0.044461  1.064558
       Atomic Center   14 is at  -3.531751 -0.348624 -0.050752
       Atomic Center   15 is at  -3.031270 -1.344710 -0.888443
       Atomic Center   16 is at  -1.798715 -1.932009 -0.614154
       Atomic Center   17 is at   2.781538 -0.146521  1.345068
       Atomic Center   18 is at   2.925762 -0.529804 -2.110537
       Atomic Center   19 is at   0.236142  0.241395 -2.101532
       Atomic Center   20 is at  -1.546026  1.956269 -2.232323
       Atomic Center   21 is at  -1.812233  3.620651 -0.401958
       Atomic Center   22 is at  -0.291623  3.563477  1.566219
       Atomic Center   23 is at   1.491183  1.779491  1.710741
       Atomic Center   24 is at   2.184827 -2.584274 -0.279823
       Atomic Center   25 is at   0.933254 -1.893267 -1.339943
       Atomic Center   26 is at   0.716983 -1.797490  1.717339
       Atomic Center   27 is at   0.200234 -3.242913  0.840172
       Atomic Center   28 is at  -0.983565 -0.225674  2.204188
       Atomic Center   29 is at  -3.176490  0.825443  1.726449
       Atomic Center   30 is at  -4.496174  0.117600 -0.265783
       Atomic Center   31 is at  -3.606362 -1.668465 -1.759566
       Atomic Center   32 is at  -1.416202 -2.714771 -1.276749
       Atomic Center   33 is at   3.698005 -0.597344  1.382327
   18552 points will be used for fitting atomic charges
 Fitting point charges to electrostatic potential
 Charges from ESP fit, RMS=   0.00366 RRMS=   0.22330:
 ESP charges:
               1
     1  N   -0.751642
     2  S    0.566305
     3  C    0.133279
     4  C   -0.175953
     5  C   -0.015033
     6  C   -0.109001
     7  C   -0.108685
     8  C   -0.054858
     9  C    0.149652
    10  C   -0.124157
    11  C    0.112522
    12  C   -0.126098
    13  C   -0.050880
    14  C   -0.138063
    15  C   -0.074122
    16  C   -0.167255
    17  N   -0.729300
    18  H    0.300960
    19  H    0.102982
    20  H    0.070650
    21  H    0.101493
    22  H    0.100810
    23  H    0.102127
    24  H    0.009574
    25  H   -0.003611
    26  H    0.038176
    27  H    0.034615
    28  H    0.086864
    29  H    0.078099
    30  H    0.100610
    31  H    0.090295
    32  H    0.094742
    33  H    0.354900
 Sum of ESP charges =  -0.00000
 ESP charges with hydrogens summed into heavy atoms:
               1
     1  N   -0.450683
     2  S    0.566305
     3  C    0.133279
     4  C   -0.072971
     5  C    0.055617
     6  C   -0.007507
     7  C   -0.007875
     8  C    0.047269
     9  C    0.155616
    10  C   -0.051365
    11  C    0.112522
    12  C   -0.039235
    13  C    0.027219
    14  C   -0.037453
    15  C    0.016173
    16  C   -0.072512
    17  N   -0.374400
 Charge=  -0.00000 Dipole=    -3.7383    -1.0458    -1.0767 Tot=     4.0284
 -----------------------------------------------------------------

              Electrostatic Properties (Atomic Units)

 -----------------------------------------------------------------
    Center     Electric         -------- Electric Field --------
               Potential          X             Y             Z
 -----------------------------------------------------------------
    1 Atom    -18.428815
    2 Atom    -59.077873
    3 Atom    -14.733474
    4 Atom    -14.743413
    5 Atom    -14.750187
    6 Atom    -14.750200
    7 Atom    -14.752471
    8 Atom    -14.753239
    9 Atom    -14.728021
   10 Atom    -14.744376
   11 Atom    -14.748850
   12 Atom    -14.763023
   13 Atom    -14.760287
   14 Atom    -14.760613
   15 Atom    -14.758312
   16 Atom    -14.759330
   17 Atom    -18.428103
   18 Atom     -1.048570
   19 Atom     -1.082246
   20 Atom     -1.092589
   21 Atom     -1.092623
   22 Atom     -1.094857
   23 Atom     -1.099566
   24 Atom     -1.080583
   25 Atom     -1.077413
   26 Atom     -1.105799
   27 Atom     -1.098991
   28 Atom     -1.103625
   29 Atom     -1.101406
   30 Atom     -1.100063
   31 Atom     -1.098492
   32 Atom     -1.095539
   33 Atom     -1.052024
 -----------------------------------------------------------------
 Unable to Open any file for archive entry.
 1\1\GINC-NOTCH326\SP\RPBE1PBE\def2TZVP\C14H16N2S1\U1414944\06-Jun-2025
 \0\\#N Guess=Read Geom=Check Integral(Ultrafine) Density Pop=(ChelpG,R
 eadRadii) NMR pbe1pbe EmpiricalDispersion=GD3BJ def2TZVP\\SDI0241_2\\0
 ,1\N,0,3.2941717145,0.790200801,-1.0509735725\S,0,2.2793889578,0.17186
 4121,-0.0642578726\C,0,0.7532478847,1.1011183487,0.1363607032\C,0,-0.0
 563354712,1.3194295536,-0.9765562376\C,0,-1.2158034332,2.0746133472,-0
 .8350208465\C,0,-1.5416839496,2.6258933331,0.4046924408\C,0,-0.7078603
 406,2.4238601631,1.5030844064\C,0,0.4479756573,1.6558088331,1.37494445
 33\C,0,1.675822723,-1.4094528181,-0.7782764774\C,0,0.6998407444,-2.168
 4816708,0.1088682997\C,0,-0.7410521898,-1.7559134919,-0.0467191429\C,0
 ,-1.4423704532,-1.1632900674,1.0065941676\C,0,-2.760776788,-0.74426927
 81,0.8405867146\C,0,-3.4040013142,-0.9203061287,-0.3827590875\C,0,-2.7
 209897973,-1.5254034518,-1.4371535492\C,0,-1.4023026665,-1.9395648624,
 -1.2672123375\N,0,2.751451352,-0.0198770029,1.3910497554\H,0,2.9871600
 622,0.6485354804,-2.0157934546\H,0,0.2008725388,0.8959023441,-1.950276
 9033\H,0,-1.8691123781,2.2317078747,-1.695698806\H,0,-2.4531428292,3.2
 184710507,0.5125758256\H,0,-0.9614211875,2.8619270979,2.4713727606\H,0
 ,1.1219982368,1.4572501977,2.2103370772\H,0,2.630721324,-1.9461158206,
 -0.8923696698\H,0,1.2791132987,-1.2096041356,-1.7859503341\H,0,1.02886
 92604,-2.0454768421,1.1537121169\H,0,0.796648425,-3.2414538708,-0.1274
 638656\H,0,-0.938255874,-1.0091285411,1.9635843528\H,0,-3.2856507242,-
 0.2694032993,1.6728196829\H,0,-4.4370645248,-0.5898334445,-0.514225670
 9\H,0,-3.2198805305,-1.6785650195,-2.397389584\H,0,-0.876132896,-2.415
 7284643,-2.1005660726\H,0,3.7356853666,-0.2927213101,1.353890137\\Vers
 ion=ES64L-G16RevC.01\State=1-A\HF=-1050.0897149\RMSD=4.190e-09\Dipole=
 -1.3588433,-0.5251856,-0.6469119\Quadrupole=-4.8788078,-0.4481542,5.32
 6962,-10.5738376,-0.66831,3.6301838\PG=C01 [X(C14H16N2S1)]\\@
 The archive entry for this job was punched.


 ALL OUR THINKING ABOUT NATURE MUST NECESSARILY MOVE IN CIRCLES OR SPIRALS;
 FOR WE CAN ONLY UNDERSTAND NATURE IF WE THINK ABOUT HER, AND WE CAN ONLY
 THINK BECAUSE OUR BRAIN IS BUILT IN ACCORDANCE WITH NATURE'S LAWS.

                                             -- TIMOTHY FERRIS, "GALAXIES"
 Job cpu time:       0 days  1 hours 24 minutes 16.7 seconds.
 Elapsed time:       0 days  0 hours  5 minutes 39.3 seconds.
 File lengths (MBytes):  RWF=    238 Int=      0 D2E=      0 Chk=     37 Scr=      2
 Normal termination of Gaussian 16 at Fri Jun  6 23:00:40 2025.
