 Entering Gaussian System, Link 0=g16
 Input=SDI0241_6.com
 Output=SDI0241_6.log
 Initial command:
 /uufs/chpc.utah.edu/sys/installdir/gaussian16/C01/AVX/g16/l1.exe "/scratch/general/vast/u1414944/4689602-notchpeak.peaks/Gau-15620.inp" -scrdir="/scratch/general/vast/u1414944/4689602-notchpeak.peaks/"
 Entering Link 1 = /uufs/chpc.utah.edu/sys/installdir/gaussian16/C01/AVX/g16/l1.exe PID=     15621.
  
 Copyright (c) 1988-2019, Gaussian, Inc.  All Rights Reserved.
  
 This is part of the Gaussian(R) 16 program.  It is based on
 the Gaussian(R) 09 system (copyright 2009, Gaussian, Inc.),
 the Gaussian(R) 03 system (copyright 2003, Gaussian, Inc.),
 the Gaussian(R) 98 system (copyright 1998, Gaussian, Inc.),
 the Gaussian(R) 94 system (copyright 1995, Gaussian, Inc.),
 the Gaussian 92(TM) system (copyright 1992, Gaussian, Inc.),
 the Gaussian 90(TM) system (copyright 1990, Gaussian, Inc.),
 the Gaussian 88(TM) system (copyright 1988, Gaussian, Inc.),
 the Gaussian 86(TM) system (copyright 1986, Carnegie Mellon
 University), and the Gaussian 82(TM) system (copyright 1983,
 Carnegie Mellon University). Gaussian is a federally registered
 trademark of Gaussian, Inc.
  
 This software contains proprietary and confidential information,
 including trade secrets, belonging to Gaussian, Inc.
  
 This software is provided under written license and may be
 used, copied, transmitted, or stored only in accord with that
 written license.
  
 The following legend is applicable only to US Government
 contracts under FAR:
  
                    RESTRICTED RIGHTS LEGEND
  
 Use, reproduction and disclosure by the US Government is
 subject to restrictions as set forth in subparagraphs (a)
 and (c) of the Commercial Computer Software - Restricted
 Rights clause in FAR 52.227-19.
  
 Gaussian, Inc.
 340 Quinnipiac St., Bldg. 40, Wallingford CT 06492
  
  
 ---------------------------------------------------------------
 Warning -- This program may not be used in any manner that
 competes with the business of Gaussian, Inc. or will provide
 assistance to any competitor of Gaussian, Inc.  The licensee
 of this program is prohibited from giving any competitor of
 Gaussian, Inc. access to this program.  By using this program,
 the user acknowledges that Gaussian, Inc. is engaged in the
 business of creating and licensing software in the field of
 computational chemistry and represents and warrants to the
 licensee that it is not a competitor of Gaussian, Inc. and that
 it will not use this program in any manner prohibited above.
 ---------------------------------------------------------------
  

 Cite this work as:
 Gaussian 16, Revision C.01,
 M. J. Frisch, G. W. Trucks, H. B. Schlegel, G. E. Scuseria, 
 M. A. Robb, J. R. Cheeseman, G. Scalmani, V. Barone, 
 G. A. Petersson, H. Nakatsuji, X. Li, M. Caricato, A. V. Marenich, 
 J. Bloino, B. G. Janesko, R. Gomperts, B. Mennucci, H. P. Hratchian, 
 J. V. Ortiz, A. F. Izmaylov, J. L. Sonnenberg, D. Williams-Young, 
 F. Ding, F. Lipparini, F. Egidi, J. Goings, B. Peng, A. Petrone, 
 T. Henderson, D. Ranasinghe, V. G. Zakrzewski, J. Gao, N. Rega, 
 G. Zheng, W. Liang, M. Hada, M. Ehara, K. Toyota, R. Fukuda, 
 J. Hasegawa, M. Ishida, T. Nakajima, Y. Honda, O. Kitao, H. Nakai, 
 T. Vreven, K. Throssell, J. A. Montgomery, Jr., J. E. Peralta, 
 F. Ogliaro, M. J. Bearpark, J. J. Heyd, E. N. Brothers, K. N. Kudin, 
 V. N. Staroverov, T. A. Keith, R. Kobayashi, J. Normand, 
 K. Raghavachari, A. P. Rendell, J. C. Burant, S. S. Iyengar, 
 J. Tomasi, M. Cossi, J. M. Millam, M. Klene, C. Adamo, R. Cammi, 
 J. W. Ochterski, R. L. Martin, K. Morokuma, O. Farkas, 
 J. B. Foresman, and D. J. Fox, Gaussian, Inc., Wallingford CT, 2019.
 
 ******************************************
 Gaussian 16:  ES64L-G16RevC.01  3-Jul-2019
                 6-Jun-2025 
 ******************************************
 %NProcShared=16
 Will use up to   16 processors via shared memory.
 %Mem=40GB
 %chk=SDI0241_6.chk
 ----------------------------------------------------------------------
 #N OPT FREQ=NORAMAN Integral(Ultrafine) pbe1pbe EmpiricalDispersion=GD
 3BJ def2SVP
 ----------------------------------------------------------------------
 1/18=20,19=15,26=4,38=1/1,3;
 2/9=110,12=2,17=6,18=5,40=1/2;
 3/5=43,7=101,11=2,25=1,30=1,71=1,74=-13,75=-5,124=41/1,2,3;
 4//1;
 5/5=2,38=5/2;
 6/7=2,8=2,9=2,10=2,28=1/1;
 7//1,2,3,16;
 1/18=20,19=15,26=4/3(2);
 2/9=110/2;
 99//99;
 2/9=110/2;
 3/5=43,7=101,11=2,25=1,30=1,71=1,74=-13,75=-5,124=41/1,2,3;
 4/5=5,16=3,69=1/1;
 5/5=2,38=5/2;
 7//1,2,3,16;
 1/18=20,19=15,26=4/3(-5);
 2/9=110/2;
 6/7=2,8=2,9=2,10=2,19=2,28=1/1;
 99/9=1/99;
 ---------
 SDI0241_6
 ---------
 Symbolic Z-matrix:
 Charge =  0 Multiplicity = 1
 N                     3.12129   0.34744   0.52596 
 S                     1.64109  -0.02221   0.48143 
 C                     0.66421   1.42622  -0.06865 
 C                    -0.44422   1.83506   0.64627 
 C                    -1.13642   2.96593   0.24335 
 C                    -0.70922   3.67857  -0.86504 
 C                     0.41778   3.27369  -1.56399 
 C                     1.11198   2.14594  -1.16062 
 C                     1.57359  -1.08745  -1.02805 
 C                     0.18813  -1.18967  -1.64504 
 C                    -0.83805  -1.65879  -0.64911 
 C                    -1.92571  -0.85962  -0.32251 
 C                    -2.85032  -1.27626   0.62031 
 C                    -2.70131  -2.5021    1.24468 
 C                    -1.63102  -3.31541   0.91067 
 C                    -0.70901  -2.89803  -0.03147 
 N                     1.10671  -0.64428   1.77282 
 H                     3.4647    0.53339   1.45237 
 H                    -0.75443   1.27065   1.51298 
 H                    -2.00617   3.29053   0.79507 
 H                    -1.25001   4.55871  -1.1802 
 H                     0.75676   3.83952  -2.41907 
 H                     2.00627   1.82586  -1.67232 
 H                     1.94347  -2.05141  -0.68563 
 H                     2.29901  -0.64933  -1.70705 
 H                     0.2325   -1.89443  -2.48204 
 H                    -0.10873  -0.21675  -2.04384 
 H                    -2.04949   0.09856  -0.80795 
 H                    -3.68718  -0.63951   0.86761 
 H                    -3.41795  -2.82511   1.98492 
 H                    -1.51356  -4.27717   1.3873 
 H                     0.12064  -3.54044  -0.28791 
 H                     0.13459  -0.90344   1.75133 
 

 GradGradGradGradGradGradGradGradGradGradGradGradGradGradGradGradGradGrad
 Berny optimization.
 Initialization pass.
                           ----------------------------
                           !    Initial Parameters    !
                           ! (Angstroms and Degrees)  !
 --------------------------                            --------------------------
 ! Name  Definition              Value          Derivative Info.                !
 --------------------------------------------------------------------------------
 ! R1    R(1,2)                  1.5263         estimate D2E/DX2                !
 ! R2    R(1,18)                 1.0054         estimate D2E/DX2                !
 ! R3    R(2,3)                  1.8316         estimate D2E/DX2                !
 ! R4    R(2,9)                  1.8487         estimate D2E/DX2                !
 ! R5    R(2,17)                 1.5298         estimate D2E/DX2                !
 ! R6    R(3,4)                  1.3809         estimate D2E/DX2                !
 ! R7    R(3,8)                  1.3824         estimate D2E/DX2                !
 ! R8    R(4,5)                  1.3858         estimate D2E/DX2                !
 ! R9    R(4,19)                 1.0798         estimate D2E/DX2                !
 ! R10   R(5,6)                  1.3852         estimate D2E/DX2                !
 ! R11   R(5,20)                 1.0799         estimate D2E/DX2                !
 ! R12   R(6,7)                  1.3866         estimate D2E/DX2                !
 ! R13   R(6,21)                 1.08           estimate D2E/DX2                !
 ! R14   R(7,8)                  1.3844         estimate D2E/DX2                !
 ! R15   R(7,22)                 1.0799         estimate D2E/DX2                !
 ! R16   R(8,23)                 1.0789         estimate D2E/DX2                !
 ! R17   R(9,10)                 1.5201         estimate D2E/DX2                !
 ! R18   R(9,24)                 1.0878         estimate D2E/DX2                !
 ! R19   R(9,25)                 1.0859         estimate D2E/DX2                !
 ! R20   R(10,11)                1.505          estimate D2E/DX2                !
 ! R21   R(10,26)                1.0951         estimate D2E/DX2                !
 ! R22   R(10,27)                1.0926         estimate D2E/DX2                !
 ! R23   R(11,12)                1.3886         estimate D2E/DX2                !
 ! R24   R(11,16)                1.3906         estimate D2E/DX2                !
 ! R25   R(12,13)                1.3847         estimate D2E/DX2                !
 ! R26   R(12,28)                1.0812         estimate D2E/DX2                !
 ! R27   R(13,14)                1.3837         estimate D2E/DX2                !
 ! R28   R(13,29)                1.0802         estimate D2E/DX2                !
 ! R29   R(14,15)                1.3851         estimate D2E/DX2                !
 ! R30   R(14,30)                1.0798         estimate D2E/DX2                !
 ! R31   R(15,16)                1.3827         estimate D2E/DX2                !
 ! R32   R(15,31)                1.0798         estimate D2E/DX2                !
 ! R33   R(16,32)                1.0802         estimate D2E/DX2                !
 ! R34   R(17,33)                1.0063         estimate D2E/DX2                !
 ! A1    A(2,1,18)             113.7619         estimate D2E/DX2                !
 ! A2    A(1,2,3)              109.5405         estimate D2E/DX2                !
 ! A3    A(1,2,9)              101.4651         estimate D2E/DX2                !
 ! A4    A(1,2,17)             114.3695         estimate D2E/DX2                !
 ! A5    A(3,2,9)              101.0093         estimate D2E/DX2                !
 ! A6    A(3,2,17)             112.8793         estimate D2E/DX2                !
 ! A7    A(9,2,17)             116.2442         estimate D2E/DX2                !
 ! A8    A(2,3,4)              120.4474         estimate D2E/DX2                !
 ! A9    A(2,3,8)              118.4379         estimate D2E/DX2                !
 ! A10   A(4,3,8)              120.9859         estimate D2E/DX2                !
 ! A11   A(3,4,5)              119.4737         estimate D2E/DX2                !
 ! A12   A(3,4,19)             119.4326         estimate D2E/DX2                !
 ! A13   A(5,4,19)             121.0932         estimate D2E/DX2                !
 ! A14   A(4,5,6)              119.8964         estimate D2E/DX2                !
 ! A15   A(4,5,20)             119.9368         estimate D2E/DX2                !
 ! A16   A(6,5,20)             120.1667         estimate D2E/DX2                !
 ! A17   A(5,6,7)              120.25           estimate D2E/DX2                !
 ! A18   A(5,6,21)             119.8894         estimate D2E/DX2                !
 ! A19   A(7,6,21)             119.8576         estimate D2E/DX2                !
 ! A20   A(6,7,8)              119.9066         estimate D2E/DX2                !
 ! A21   A(6,7,22)             120.0836         estimate D2E/DX2                !
 ! A22   A(8,7,22)             120.0092         estimate D2E/DX2                !
 ! A23   A(3,8,7)              119.4637         estimate D2E/DX2                !
 ! A24   A(3,8,23)             119.2535         estimate D2E/DX2                !
 ! A25   A(7,8,23)             121.2751         estimate D2E/DX2                !
 ! A26   A(2,9,10)             113.793          estimate D2E/DX2                !
 ! A27   A(2,9,24)             103.9561         estimate D2E/DX2                !
 ! A28   A(2,9,25)             104.695          estimate D2E/DX2                !
 ! A29   A(10,9,24)            112.2154         estimate D2E/DX2                !
 ! A30   A(10,9,25)            112.4698         estimate D2E/DX2                !
 ! A31   A(24,9,25)            109.0997         estimate D2E/DX2                !
 ! A32   A(9,10,11)            111.9517         estimate D2E/DX2                !
 ! A33   A(9,10,26)            108.4563         estimate D2E/DX2                !
 ! A34   A(9,10,27)            109.6278         estimate D2E/DX2                !
 ! A35   A(11,10,26)           109.4397         estimate D2E/DX2                !
 ! A36   A(11,10,27)           109.503          estimate D2E/DX2                !
 ! A37   A(26,10,27)           107.7647         estimate D2E/DX2                !
 ! A38   A(10,11,12)           120.6846         estimate D2E/DX2                !
 ! A39   A(10,11,16)           120.5585         estimate D2E/DX2                !
 ! A40   A(12,11,16)           118.7554         estimate D2E/DX2                !
 ! A41   A(11,12,13)           120.6628         estimate D2E/DX2                !
 ! A42   A(11,12,28)           119.6088         estimate D2E/DX2                !
 ! A43   A(13,12,28)           119.7282         estimate D2E/DX2                !
 ! A44   A(12,13,14)           120.1238         estimate D2E/DX2                !
 ! A45   A(12,13,29)           119.723          estimate D2E/DX2                !
 ! A46   A(14,13,29)           120.1531         estimate D2E/DX2                !
 ! A47   A(13,14,15)           119.642          estimate D2E/DX2                !
 ! A48   A(13,14,30)           120.191          estimate D2E/DX2                !
 ! A49   A(15,14,30)           120.1664         estimate D2E/DX2                !
 ! A50   A(14,15,16)           120.1526         estimate D2E/DX2                !
 ! A51   A(14,15,31)           120.0403         estimate D2E/DX2                !
 ! A52   A(16,15,31)           119.807          estimate D2E/DX2                !
 ! A53   A(11,16,15)           120.6467         estimate D2E/DX2                !
 ! A54   A(11,16,32)           119.7233         estimate D2E/DX2                !
 ! A55   A(15,16,32)           119.6299         estimate D2E/DX2                !
 ! A56   A(2,17,33)            115.0971         estimate D2E/DX2                !
 ! D1    D(18,1,2,3)           101.9018         estimate D2E/DX2                !
 ! D2    D(18,1,2,9)          -151.9127         estimate D2E/DX2                !
 ! D3    D(18,1,2,17)          -25.9537         estimate D2E/DX2                !
 ! D4    D(1,2,3,4)           -129.9921         estimate D2E/DX2                !
 ! D5    D(1,2,3,8)             45.9227         estimate D2E/DX2                !
 ! D6    D(9,2,3,4)            123.5136         estimate D2E/DX2                !
 ! D7    D(9,2,3,8)            -60.5716         estimate D2E/DX2                !
 ! D8    D(17,2,3,4)            -1.3102         estimate D2E/DX2                !
 ! D9    D(17,2,3,8)           174.6046         estimate D2E/DX2                !
 ! D10   D(1,2,9,10)          -158.067          estimate D2E/DX2                !
 ! D11   D(1,2,9,24)            79.5653         estimate D2E/DX2                !
 ! D12   D(1,2,9,25)           -34.8747         estimate D2E/DX2                !
 ! D13   D(3,2,9,10)           -45.2904         estimate D2E/DX2                !
 ! D14   D(3,2,9,24)          -167.6581         estimate D2E/DX2                !
 ! D15   D(3,2,9,25)            77.9019         estimate D2E/DX2                !
 ! D16   D(17,2,9,10)           77.2244         estimate D2E/DX2                !
 ! D17   D(17,2,9,24)          -45.1432         estimate D2E/DX2                !
 ! D18   D(17,2,9,25)         -159.5833         estimate D2E/DX2                !
 ! D19   D(1,2,17,33)         -179.2279         estimate D2E/DX2                !
 ! D20   D(3,2,17,33)           54.6367         estimate D2E/DX2                !
 ! D21   D(9,2,17,33)          -61.4128         estimate D2E/DX2                !
 ! D22   D(2,3,4,5)            177.3659         estimate D2E/DX2                !
 ! D23   D(2,3,4,19)            -2.3466         estimate D2E/DX2                !
 ! D24   D(8,3,4,5)              1.5564         estimate D2E/DX2                !
 ! D25   D(8,3,4,19)          -178.1561         estimate D2E/DX2                !
 ! D26   D(2,3,8,7)           -177.5991         estimate D2E/DX2                !
 ! D27   D(2,3,8,23)             1.4086         estimate D2E/DX2                !
 ! D28   D(4,3,8,7)             -1.7072         estimate D2E/DX2                !
 ! D29   D(4,3,8,23)           177.3004         estimate D2E/DX2                !
 ! D30   D(3,4,5,6)             -0.3151         estimate D2E/DX2                !
 ! D31   D(3,4,5,20)           179.8014         estimate D2E/DX2                !
 ! D32   D(19,4,5,6)           179.3925         estimate D2E/DX2                !
 ! D33   D(19,4,5,20)           -0.491          estimate D2E/DX2                !
 ! D34   D(4,5,6,7)             -0.7547         estimate D2E/DX2                !
 ! D35   D(4,5,6,21)           179.8706         estimate D2E/DX2                !
 ! D36   D(20,5,6,7)           179.1285         estimate D2E/DX2                !
 ! D37   D(20,5,6,21)           -0.2462         estimate D2E/DX2                !
 ! D38   D(5,6,7,8)              0.603          estimate D2E/DX2                !
 ! D39   D(5,6,7,22)          -179.1064         estimate D2E/DX2                !
 ! D40   D(21,6,7,8)           179.9779         estimate D2E/DX2                !
 ! D41   D(21,6,7,22)            0.2686         estimate D2E/DX2                !
 ! D42   D(6,7,8,3)              0.6159         estimate D2E/DX2                !
 ! D43   D(6,7,8,23)          -178.3711         estimate D2E/DX2                !
 ! D44   D(22,7,8,3)          -179.6745         estimate D2E/DX2                !
 ! D45   D(22,7,8,23)            1.3385         estimate D2E/DX2                !
 ! D46   D(2,9,10,11)          -55.012          estimate D2E/DX2                !
 ! D47   D(2,9,10,26)         -175.8626         estimate D2E/DX2                !
 ! D48   D(2,9,10,27)           66.7167         estimate D2E/DX2                !
 ! D49   D(24,9,10,11)          62.6843         estimate D2E/DX2                !
 ! D50   D(24,9,10,26)         -58.1663         estimate D2E/DX2                !
 ! D51   D(24,9,10,27)        -175.587          estimate D2E/DX2                !
 ! D52   D(25,9,10,11)        -173.8523         estimate D2E/DX2                !
 ! D53   D(25,9,10,26)          65.297          estimate D2E/DX2                !
 ! D54   D(25,9,10,27)         -52.1237         estimate D2E/DX2                !
 ! D55   D(9,10,11,12)         119.1853         estimate D2E/DX2                !
 ! D56   D(9,10,11,16)         -60.3599         estimate D2E/DX2                !
 ! D57   D(26,10,11,12)       -120.5357         estimate D2E/DX2                !
 ! D58   D(26,10,11,16)         59.919          estimate D2E/DX2                !
 ! D59   D(27,10,11,12)         -2.615          estimate D2E/DX2                !
 ! D60   D(27,10,11,16)        177.8398         estimate D2E/DX2                !
 ! D61   D(10,11,12,13)       -178.2599         estimate D2E/DX2                !
 ! D62   D(10,11,12,28)          1.5761         estimate D2E/DX2                !
 ! D63   D(16,11,12,13)          1.2934         estimate D2E/DX2                !
 ! D64   D(16,11,12,28)       -178.8706         estimate D2E/DX2                !
 ! D65   D(10,11,16,15)        178.2318         estimate D2E/DX2                !
 ! D66   D(10,11,16,32)         -1.6202         estimate D2E/DX2                !
 ! D67   D(12,11,16,15)         -1.3221         estimate D2E/DX2                !
 ! D68   D(12,11,16,32)        178.8259         estimate D2E/DX2                !
 ! D69   D(11,12,13,14)         -0.2904         estimate D2E/DX2                !
 ! D70   D(11,12,13,29)        179.5918         estimate D2E/DX2                !
 ! D71   D(28,12,13,14)        179.8738         estimate D2E/DX2                !
 ! D72   D(28,12,13,29)         -0.244          estimate D2E/DX2                !
 ! D73   D(12,13,14,15)         -0.7048         estimate D2E/DX2                !
 ! D74   D(12,13,14,30)        179.5823         estimate D2E/DX2                !
 ! D75   D(29,13,14,15)        179.4135         estimate D2E/DX2                !
 ! D76   D(29,13,14,30)         -0.2994         estimate D2E/DX2                !
 ! D77   D(13,14,15,16)          0.6762         estimate D2E/DX2                !
 ! D78   D(13,14,15,31)       -179.4385         estimate D2E/DX2                !
 ! D79   D(30,14,15,16)       -179.6107         estimate D2E/DX2                !
 ! D80   D(30,14,15,31)          0.2745         estimate D2E/DX2                !
 ! D81   D(14,15,16,11)          0.3476         estimate D2E/DX2                !
 ! D82   D(14,15,16,32)       -179.8003         estimate D2E/DX2                !
 ! D83   D(31,15,16,11)       -179.538          estimate D2E/DX2                !
 ! D84   D(31,15,16,32)          0.3142         estimate D2E/DX2                !
 --------------------------------------------------------------------------------
 Trust Radius=3.00D-01 FncErr=1.00D-07 GrdErr=1.00D-06 EigMax=2.50D+02 EigMin=1.00D-04
 Number of steps in this run=    184 maximum allowed number of steps=    198.
 GradGradGradGradGradGradGradGradGradGradGradGradGradGradGradGradGradGrad

                          Input orientation:                          
 ---------------------------------------------------------------------
 Center     Atomic      Atomic             Coordinates (Angstroms)
 Number     Number       Type             X           Y           Z
 ---------------------------------------------------------------------
      1          7           0        3.121292    0.347437    0.525959
      2         16           0        1.641087   -0.022211    0.481432
      3          6           0        0.664213    1.426220   -0.068651
      4          6           0       -0.444219    1.835058    0.646271
      5          6           0       -1.136415    2.965925    0.243349
      6          6           0       -0.709225    3.678567   -0.865037
      7          6           0        0.417777    3.273686   -1.563986
      8          6           0        1.111983    2.145939   -1.160622
      9          6           0        1.573593   -1.087449   -1.028046
     10          6           0        0.188127   -1.189669   -1.645040
     11          6           0       -0.838050   -1.658787   -0.649108
     12          6           0       -1.925705   -0.859625   -0.322511
     13          6           0       -2.850319   -1.276257    0.620308
     14          6           0       -2.701306   -2.502101    1.244681
     15          6           0       -1.631020   -3.315412    0.910670
     16          6           0       -0.709008   -2.898026   -0.031469
     17          7           0        1.106710   -0.644282    1.772820
     18          1           0        3.464699    0.533392    1.452368
     19          1           0       -0.754429    1.270648    1.512984
     20          1           0       -2.006168    3.290533    0.795067
     21          1           0       -1.250006    4.558707   -1.180199
     22          1           0        0.756757    3.839523   -2.419068
     23          1           0        2.006267    1.825855   -1.672317
     24          1           0        1.943465   -2.051406   -0.685633
     25          1           0        2.299011   -0.649326   -1.707047
     26          1           0        0.232498   -1.894430   -2.482039
     27          1           0       -0.108725   -0.216747   -2.043837
     28          1           0       -2.049485    0.098555   -0.807948
     29          1           0       -3.687180   -0.639510    0.867606
     30          1           0       -3.417946   -2.825112    1.984919
     31          1           0       -1.513557   -4.277174    1.387295
     32          1           0        0.120644   -3.540436   -0.287914
     33          1           0        0.134585   -0.903443    1.751335
 ---------------------------------------------------------------------
                    Distance matrix (angstroms):
                    1          2          3          4          5
     1  N    0.000000
     2  S    1.526312   0.000000
     3  C    2.748558   1.831618   0.000000
     4  C    3.865276   2.797342   1.380900   0.000000
     5  C    5.006438   4.086583   2.389624   1.385764   0.000000
     6  C    5.263474   4.586142   2.755654   2.398500   1.385232
     7  C    4.498866   4.067328   2.389537   2.774513   2.403474
     8  C    3.180643   2.770770   1.382351   2.404844   2.774672
     9  C    2.620916   1.848733   2.840060   3.926315   5.038892
    10  C    3.959721   2.827709   3.091041   3.846939   4.752830
    11  C    4.591526   3.178463   3.480085   3.747007   4.719477
    12  C    5.258239   3.750946   3.463699   3.224074   3.946899
    13  C    6.189137   4.665260   4.486645   3.933226   4.590825
    14  C    6.522199   5.058536   5.336972   4.925798   5.775020
    15  C    6.012398   4.662199   5.358193   5.292045   6.336020
    16  C    5.051233   3.749177   4.537204   4.788688   5.885926
    17  N    2.568406   1.529776   2.806029   3.133947   4.517133
    18  H    1.005357   2.139386   3.309587   4.198068   5.343146
    19  H    4.104601   2.911027   2.130333   1.079806   2.152174
    20  H    5.918199   4.937116   3.369363   2.140148   1.079922
    21  H    6.305078   5.666060   3.835655   3.376914   2.139239
    22  H    5.143819   4.909983   3.370023   3.854416   3.381677
    23  H    2.874268   2.861353   2.128981   3.373547   3.853049
    24  H    2.934225   2.360319   3.756465   4.751800   5.960057
    25  H    2.579922   2.369721   3.108825   4.385839   5.355020
    26  H    4.734887   3.777763   4.127655   4.914606   5.738007
    27  H    4.165953   3.078421   2.682934   3.399874   4.051762
    28  H    5.345857   3.911190   3.110211   2.776161   3.187590
    29  H    6.888112   5.377790   4.906979   4.085250   4.460410
    30  H    7.413182   5.975830   6.241394   5.687901   6.463324
    31  H    6.603844   5.373740   6.276238   6.249159   7.342570
    32  H    4.978136   3.909163   5.001122   5.485227   6.647946
    33  H    3.462177   2.158419   3.003362   3.009248   4.342980
                    6          7          8          9         10
     6  C    0.000000
     7  C    1.386576   0.000000
     8  C    2.398566   1.384354   0.000000
     9  C    5.287035   4.543417   3.268862   0.000000
    10  C    5.011324   4.469994   3.494918   1.520081   0.000000
    11  C    5.343273   5.171401   4.305835   2.507198   1.504988
    12  C    4.729624   4.910949   4.354697   3.576978   2.515213
    13  C    5.598287   6.012784   5.530187   4.724798   3.790970
    14  C    6.827880   7.139818   6.475409   5.043936   4.292061
    15  C    7.274516   7.330600   6.452958   4.357979   3.789423
    16  C    6.629209   6.458195   5.480199   3.079224   2.515342
    17  N    5.379864   5.192242   4.048511   2.873887   3.580923
    18  H    5.717004   5.088354   3.868243   3.515091   4.826884
    19  H    3.384539   3.854086   3.376063   4.175780   4.112747
    20  H    2.142096   3.382443   3.854566   5.941814   5.553491
    21  H    1.080008   2.140110   3.376510   6.314660   5.943747
    22  H    2.142434   1.079928   2.139649   5.184324   5.120082
    23  H    3.384987   2.152034   1.078902   3.014902   3.521330
    24  H    6.316766   5.608550   4.305192   1.087780   2.178134
    25  H    5.337521   4.353106   3.085632   1.085922   2.179828
    26  H    5.878762   5.252292   4.340993   2.136317   1.095091
    27  H    4.113836   3.562385   2.802228   2.149453   1.092583
    28  H    3.823093   4.091507   3.782993   3.818605   2.714250
    29  H    5.524134   6.170609   5.907994   5.609802   4.651244
    30  H    7.599820   8.031366   7.424690   6.083822   5.371689
    31  H    8.307453   8.334003   7.392004   5.053584   4.650105
    32  H    7.289428   6.938942   5.837742   2.945505   2.715226
    33  H    5.343429   5.340408   4.328225   3.135213   3.408835
                   11         12         13         14         15
    11  C    0.000000
    12  C    1.388640   0.000000
    13  C    2.409766   1.384703   0.000000
    14  C    2.787354   2.399037   1.383741   0.000000
    15  C    2.409588   2.763778   2.393565   1.385118   0.000000
    16  C    1.390627   2.391681   2.764084   2.398868   1.382729
    17  N    3.267576   3.692199   4.169623   4.269826   3.920893
    18  H    5.266451   5.843557   6.621677   6.875826   6.408828
    19  H    3.641871   3.046144   3.417067   4.253934   4.707774
    20  H    5.286389   4.298752   4.647441   5.851494   6.617599
    21  H    6.253718   5.527252   6.312656   7.605348   8.155897
    22  H    5.992294   5.802857   6.958449   8.099226   8.245103
    23  H    4.613007   4.949160   6.202069   7.028608   6.806931
    24  H    2.809326   4.064810   5.028589   5.050063   4.113737
    25  H    3.461127   4.450775   5.685528   6.094969   5.422693
    26  H    2.135705   3.223697   4.417064   4.781727   4.123392
    27  H    2.134634   2.584119   3.966934   4.770605   4.544031
    28  H    2.140340   1.081239   2.138073   3.376620   3.844988
    29  H    3.384803   2.137200   1.080250   2.140883   3.374923
    30  H    3.867076   3.378485   2.140868   1.079751   2.141848
    31  H    3.385144   3.843560   3.373530   2.140554   1.079794
    32  H    2.142466   3.372758   3.844216   3.374966   2.134377
    33  H    2.697905   2.923620   3.213699   3.294645   3.105104
                   16         17         18         19         20
    16  C    0.000000
    17  N    3.410521   0.000000
    18  H    5.603234   2.655131   0.000000
    19  H    4.445812   2.682967   4.283487   0.000000
    20  H    6.376837   5.111632   6.161515   2.482377   0.000000
    21  H    7.564068   6.430049   6.735133   4.279038   2.466114
    22  H    7.296826   6.148082   5.766410   4.933948   4.273851
    23  H    5.690357   4.333561   3.682546   4.251570   4.932839
    24  H    2.860124   2.953667   3.683257   4.811298   6.806496
    25  H    4.112468   3.678462   3.569251   4.835121   6.349617
    26  H    2.810504   4.520060   5.641011   5.191527   6.529540
    27  H    3.405764   4.028268   5.055248   3.908997   4.894965
    28  H    3.373322   4.144121   5.975311   2.904772   3.572150
    29  H    3.844313   4.878609   7.270972   3.558967   4.275079
    30  H    3.377793   5.027277   7.676846   4.908390   6.388269
    31  H    2.135940   4.495813   6.923064   5.600929   7.606813
    32  H    1.080175   3.688721   5.550438   5.211096   7.235905
    33  H    2.805066   1.006307   3.639167   2.360896   4.804864
                   21         22         23         24         25
    21  H    0.000000
    22  H    2.465587   0.000000
    23  H    4.279482   2.484707   0.000000
    24  H    7.357747   6.254288   4.001330   0.000000
    25  H    6.324294   4.799510   2.492675   1.770742   0.000000
    26  H    6.748006   5.758215   4.200290   2.485785   2.534043
    27  H    4.985314   4.164515   2.963688   3.069557   2.469362
    28  H    4.546503   4.946266   4.492196   4.536623   4.503013
    29  H    6.095472   7.114249   6.704072   6.009174   6.516397
    30  H    8.320980   9.013357   8.026766   6.039470   7.144806
    31  H    9.205122   9.247892   7.680974   4.604572   6.105073
    32  H    8.262625   7.707805   5.853993   2.387063   3.888154
    33  H    6.351855   6.346266   4.761687   3.244792   4.087752
                   26         27         28         29         30
    26  H    0.000000
    27  H    1.767222   0.000000
    28  H    3.461506   2.322367   0.000000
    29  H    5.306489   4.632556   2.456474   0.000000
    30  H    5.843426   5.829699   4.268562   2.469359   0.000000
    31  H    4.868051   5.498481   4.924766   4.269346   2.468266
    32  H    2.745183   3.766004   4.268742   4.924442   4.266039
    33  H    4.348919   3.864464   3.510569   3.931479   4.045720
                   31         32         33
    31  H    0.000000
    32  H    2.453512   0.000000
    33  H    3.772394   3.333536   0.000000
 Stoichiometry    C14H16N2S
 Framework group  C1[X(C14H16N2S)]
 Deg. of freedom    93
 Full point group                 C1      NOp   1
 Largest Abelian subgroup         C1      NOp   1
 Largest concise Abelian subgroup C1      NOp   1
                         Standard orientation:                         
 ---------------------------------------------------------------------
 Center     Atomic      Atomic             Coordinates (Angstroms)
 Number     Number       Type             X           Y           Z
 ---------------------------------------------------------------------
      1          7           0       -1.438497   -2.754437   -0.770933
      2         16           0       -0.535729   -1.539564   -0.574157
      3          6           0       -1.563873   -0.057139   -0.257676
      4          6           0       -1.356183    1.104586   -0.974714
      5          6           0       -2.181256    2.196578   -0.757573
      6          6           0       -3.208000    2.112845    0.168523
      7          6           0       -3.423358    0.935229    0.868118
      8          6           0       -2.601788   -0.157389    0.649835
      9          6           0        0.149741   -1.860457    1.112547
     10          6           0        0.661939   -0.612897    1.813901
     11          6           0        1.682033    0.119898    0.984799
     12          6           0        1.454040    1.426172    0.572502
     13          6           0        2.376715    2.087703   -0.220246
     14          6           0        3.543515    1.451680   -0.605980
     15          6           0        3.789556    0.155962   -0.182744
     16          6           0        2.867358   -0.502900    0.609337
     17          7           0        0.487736   -1.326177   -1.690938
     18          1           0       -1.556940   -3.019461   -1.733470
     19          1           0       -0.556211    1.145345   -1.698845
     20          1           0       -2.023538    3.109879   -1.311866
     21          1           0       -3.849651    2.964654    0.339177
     22          1           0       -4.233574    0.868318    1.578974
     23          1           0       -2.765264   -1.092429    1.162674
     24          1           0        0.939001   -2.589027    0.940737
     25          1           0       -0.662143   -2.337081    1.653749
     26          1           0        1.112553   -0.910980    2.766433
     27          1           0       -0.175103    0.053536    2.035183
     28          1           0        0.545386    1.929963    0.871866
     29          1           0        2.180860    3.101497   -0.537743
     30          1           0        4.260610    1.964142   -1.229695
     31          1           0        4.702162   -0.343222   -0.472438
     32          1           0        3.069316   -1.512079    0.937283
     33          1           0        1.096898   -0.534970   -1.566172
 ---------------------------------------------------------------------
 Rotational constants (GHZ):           0.6609256           0.3712070           0.2945140
 Standard basis: def2SVP (5D, 7F)
 There are   339 symmetry adapted cartesian basis functions of A   symmetry.
 There are   322 symmetry adapted basis functions of A   symmetry.
   322 basis functions,   549 primitive gaussians,   339 cartesian basis functions
    65 alpha electrons       65 beta electrons
       nuclear repulsion energy      1348.8250103066 Hartrees.
 NAtoms=   33 NActive=   33 NUniq=   33 SFac= 1.00D+00 NAtFMM=   60 NAOKFM=F Big=F
 Integral buffers will be    131072 words long.
 Raffenetti 2 integral format.
 Two-electron integral symmetry is turned on.
 Nuclear repulsion after empirical dispersion term =     1348.7803360095 Hartrees.
 One-electron integrals computed using PRISM.
   1 Symmetry operations used in ECPInt.
 ECPInt:  NShTT=   11628 NPrTT=   42474 LenC2=   11139 LenP2D=   29581.
 LDataN:  DoStor=T MaxTD1= 4 Len=   56
 NBasis=   322 RedAO= T EigKep=  2.50D-04  NBF=   322
 NBsUse=   322 1.00D-06 EigRej= -1.00D+00 NBFU=   322
 ExpMin= 1.22D-01 ExpMax= 9.18D+03 ExpMxC= 1.38D+03 IAcc=3 IRadAn=         5 AccDes= 0.00D+00
 Harris functional with IExCor= 1009 and IRadAn=       5 diagonalized for initial guess.
 HarFok:  IExCor= 1009 AccDes= 0.00D+00 IRadAn=         5 IDoV= 1 UseB2=F ITyADJ=14
 ICtDFT=  3500011 ScaDFX=  1.000000  1.000000  1.000000  1.000000
 FoFCou: FMM=F IPFlag=           0 FMFlag=      100000 FMFlg1=           0
         NFxFlg=           0 DoJE=T BraDBF=F KetDBF=T FulRan=T
         wScrn=  0.000000 ICntrl=       500 IOpCl=  0 I1Cent=   200000004 NGrid=           0
         NMat0=    1 NMatS0=      1 NMatT0=    0 NMatD0=    1 NMtDS0=    0 NMtDT0=    0
 Petite list used in FoFCou.
 Requested convergence on RMS density matrix=1.00D-08 within 128 cycles.
 Requested convergence on MAX density matrix=1.00D-06.
 Requested convergence on             energy=1.00D-06.
 No special actions if energy rises.
 Integral accuracy reduced to 1.0D-05 until final iterations.
 Initial convergence to 1.0D-05 achieved.  Increase integral accuracy.
 SCF Done:  E(RPBE1PBE) =  -1049.21733447     A.U. after   14 cycles
            NFock= 14  Conv=0.67D-08     -V/T= 2.0069

 **********************************************************************

            Population analysis using the SCF Density.

 **********************************************************************

 Orbital symmetries:
       Occupied  (A) (A) (A) (A) (A) (A) (A) (A) (A) (A) (A) (A)
                 (A) (A) (A) (A) (A) (A) (A) (A) (A) (A) (A) (A)
                 (A) (A) (A) (A) (A) (A) (A) (A) (A) (A) (A) (A)
                 (A) (A) (A) (A) (A) (A) (A) (A) (A) (A) (A) (A)
                 (A) (A) (A) (A) (A) (A) (A) (A) (A) (A) (A) (A)
                 (A) (A) (A) (A) (A)
       Virtual   (A) (A) (A) (A) (A) (A) (A) (A) (A) (A) (A) (A)
                 (A) (A) (A) (A) (A) (A) (A) (A) (A) (A) (A) (A)
                 (A) (A) (A) (A) (A) (A) (A) (A) (A) (A) (A) (A)
                 (A) (A) (A) (A) (A) (A) (A) (A) (A) (A) (A) (A)
                 (A) (A) (A) (A) (A) (A) (A) (A) (A) (A) (A) (A)
                 (A) (A) (A) (A) (A) (A) (A) (A) (A) (A) (A) (A)
                 (A) (A) (A) (A) (A) (A) (A) (A) (A) (A) (A) (A)
                 (A) (A) (A) (A) (A) (A) (A) (A) (A) (A) (A) (A)
                 (A) (A) (A) (A) (A) (A) (A) (A) (A) (A) (A) (A)
                 (A) (A) (A) (A) (A) (A) (A) (A) (A) (A) (A) (A)
                 (A) (A) (A) (A) (A) (A) (A) (A) (A) (A) (A) (A)
                 (A) (A) (A) (A) (A) (A) (A) (A) (A) (A) (A) (A)
                 (A) (A) (A) (A) (A) (A) (A) (A) (A) (A) (A) (A)
                 (A) (A) (A) (A) (A) (A) (A) (A) (A) (A) (A) (A)
                 (A) (A) (A) (A) (A) (A) (A) (A) (A) (A) (A) (A)
                 (A) (A) (A) (A) (A) (A) (A) (A) (A) (A) (A) (A)
                 (A) (A) (A) (A) (A) (A) (A) (A) (A) (A) (A) (A)
                 (A) (A) (A) (A) (A) (A) (A) (A) (A) (A) (A) (A)
                 (A) (A) (A) (A) (A) (A) (A) (A) (A) (A) (A) (A)
                 (A) (A) (A) (A) (A) (A) (A) (A) (A) (A) (A) (A)
                 (A) (A) (A) (A) (A) (A) (A) (A) (A) (A) (A) (A)
                 (A) (A) (A) (A) (A)
 The electronic state is 1-A.
 Alpha  occ. eigenvalues --  -89.17295 -14.33900 -14.32546 -10.26337 -10.26066
 Alpha  occ. eigenvalues --  -10.25426 -10.25403 -10.25398 -10.25250 -10.25237
 Alpha  occ. eigenvalues --  -10.25168 -10.25150 -10.24340 -10.24303 -10.24230
 Alpha  occ. eigenvalues --  -10.24190 -10.24179  -8.14717  -6.08836  -6.08763
 Alpha  occ. eigenvalues --   -6.08719  -0.99862  -0.89693  -0.89412  -0.84072
 Alpha  occ. eigenvalues --   -0.82929  -0.78726  -0.78233  -0.77308  -0.76100
 Alpha  occ. eigenvalues --   -0.68812  -0.65462  -0.63899  -0.63135  -0.61158
 Alpha  occ. eigenvalues --   -0.59360  -0.55734  -0.54088  -0.52004  -0.50132
 Alpha  occ. eigenvalues --   -0.49521  -0.48944  -0.48376  -0.47106  -0.46598
 Alpha  occ. eigenvalues --   -0.45725  -0.45229  -0.44178  -0.43326  -0.41827
 Alpha  occ. eigenvalues --   -0.40400  -0.39616  -0.38561  -0.38382  -0.37409
 Alpha  occ. eigenvalues --   -0.36004  -0.35798  -0.30127  -0.29139  -0.28617
 Alpha  occ. eigenvalues --   -0.27562  -0.27231  -0.26578  -0.24339  -0.23225
 Alpha virt. eigenvalues --   -0.03295  -0.02190  -0.01288  -0.00529   0.05325
 Alpha virt. eigenvalues --    0.06826   0.07793   0.08046   0.08657   0.09557
 Alpha virt. eigenvalues --    0.10134   0.10298   0.11757   0.12402   0.12869
 Alpha virt. eigenvalues --    0.13302   0.13989   0.14527   0.15110   0.16187
 Alpha virt. eigenvalues --    0.16581   0.17913   0.18452   0.18818   0.19430
 Alpha virt. eigenvalues --    0.20757   0.23327   0.25285   0.28470   0.28753
 Alpha virt. eigenvalues --    0.29298   0.30295   0.30458   0.31584   0.32222
 Alpha virt. eigenvalues --    0.33607   0.36490   0.38956   0.38999   0.39547
 Alpha virt. eigenvalues --    0.40650   0.41360   0.42816   0.43796   0.44702
 Alpha virt. eigenvalues --    0.45562   0.45861   0.47161   0.47638   0.48552
 Alpha virt. eigenvalues --    0.48877   0.49243   0.50100   0.51397   0.51520
 Alpha virt. eigenvalues --    0.51869   0.52448   0.54289   0.55268   0.56177
 Alpha virt. eigenvalues --    0.57554   0.58298   0.58585   0.60404   0.61353
 Alpha virt. eigenvalues --    0.62535   0.63546   0.64227   0.64433   0.65406
 Alpha virt. eigenvalues --    0.65763   0.66158   0.66970   0.67166   0.67680
 Alpha virt. eigenvalues --    0.68505   0.68788   0.69411   0.70086   0.71124
 Alpha virt. eigenvalues --    0.71849   0.72257   0.72576   0.73506   0.73561
 Alpha virt. eigenvalues --    0.74147   0.74964   0.75632   0.76309   0.77051
 Alpha virt. eigenvalues --    0.77681   0.78163   0.78849   0.79608   0.81031
 Alpha virt. eigenvalues --    0.83063   0.83709   0.84908   0.85338   0.87357
 Alpha virt. eigenvalues --    0.87924   0.88430   0.91426   0.91890   0.94246
 Alpha virt. eigenvalues --    0.94693   0.95607   0.96953   0.98088   1.00042
 Alpha virt. eigenvalues --    1.01509   1.01785   1.05050   1.08451   1.10076
 Alpha virt. eigenvalues --    1.11403   1.12654   1.14677   1.14770   1.17409
 Alpha virt. eigenvalues --    1.17931   1.20759   1.21594   1.23791   1.24637
 Alpha virt. eigenvalues --    1.25174   1.26000   1.27052   1.28063   1.29283
 Alpha virt. eigenvalues --    1.29547   1.30150   1.31006   1.33546   1.34545
 Alpha virt. eigenvalues --    1.35641   1.37777   1.40307   1.43892   1.47936
 Alpha virt. eigenvalues --    1.48992   1.50612   1.52567   1.56488   1.58146
 Alpha virt. eigenvalues --    1.59341   1.66634   1.68051   1.68693   1.68857
 Alpha virt. eigenvalues --    1.70351   1.70887   1.71523   1.72846   1.73546
 Alpha virt. eigenvalues --    1.74566   1.76092   1.76460   1.76961   1.77459
 Alpha virt. eigenvalues --    1.78226   1.78489   1.79361   1.79680   1.79919
 Alpha virt. eigenvalues --    1.81039   1.81367   1.82306   1.83755   1.85122
 Alpha virt. eigenvalues --    1.85873   1.86691   1.87418   1.90471   1.92449
 Alpha virt. eigenvalues --    1.93302   1.95500   1.96143   1.96666   1.97893
 Alpha virt. eigenvalues --    1.98194   1.98885   2.00086   2.01498   2.02236
 Alpha virt. eigenvalues --    2.03088   2.06713   2.07619   2.10606   2.12412
 Alpha virt. eigenvalues --    2.13201   2.15331   2.15552   2.16952   2.17476
 Alpha virt. eigenvalues --    2.17894   2.19674   2.20448   2.22472   2.24134
 Alpha virt. eigenvalues --    2.27661   2.28550   2.29805   2.30956   2.31498
 Alpha virt. eigenvalues --    2.32265   2.33423   2.34206   2.36045   2.36520
 Alpha virt. eigenvalues --    2.37192   2.39182   2.41200   2.41780   2.43235
 Alpha virt. eigenvalues --    2.44506   2.49970   2.50974   2.54625   2.55833
 Alpha virt. eigenvalues --    2.60535   2.61189   2.61526   2.63171   2.64397
 Alpha virt. eigenvalues --    2.65020   2.65823   2.66457   2.67496   2.68300
 Alpha virt. eigenvalues --    2.70796   2.75997   2.76347   2.76891   2.77686
 Alpha virt. eigenvalues --    2.84167   2.84628   2.87241   2.87948   2.89651
 Alpha virt. eigenvalues --    2.91027   2.92594   2.93516   2.95285   2.99559
 Alpha virt. eigenvalues --    3.03429   3.05689   3.06876   3.13015   3.16124
 Alpha virt. eigenvalues --    3.17520   3.24470   3.29272   3.29751   3.35777
 Alpha virt. eigenvalues --    3.65865   3.69107
          Condensed to atoms (all electrons):
               1          2          3          4          5          6
     1  N    6.912746   0.364798  -0.067326  -0.002497  -0.000060  -0.000062
     2  S    0.364798  14.709469   0.059800  -0.033778   0.005464   0.000075
     3  C   -0.067326   0.059800   6.005051   0.238439   0.104938  -0.202258
     4  C   -0.002497  -0.033778   0.238439   5.144402   0.225150   0.111254
     5  C   -0.000060   0.005464   0.104938   0.225150   5.125410   0.250385
     6  C   -0.000062   0.000075  -0.202258   0.111254   0.250385   5.149730
     7  C    0.001112   0.001353   0.125953  -0.154637   0.096387   0.248601
     8  C    0.009029  -0.044328   0.143430   0.069128  -0.142741   0.108620
     9  C   -0.097266   0.245051  -0.125718   0.003617  -0.000247  -0.000171
    10  C    0.007811  -0.044824   0.010223   0.002184   0.000690   0.000204
    11  C    0.000473  -0.008849  -0.003168  -0.003004   0.000420  -0.000079
    12  C   -0.000046   0.007287  -0.002469  -0.000458  -0.002740  -0.000252
    13  C    0.000000  -0.000367   0.000429  -0.001719   0.000324  -0.000016
    14  C   -0.000000   0.000061  -0.000041   0.000034  -0.000039   0.000001
    15  C    0.000001  -0.000229  -0.000109   0.000029   0.000009  -0.000000
    16  C   -0.000118  -0.001988   0.001885  -0.000017  -0.000063   0.000002
    17  N   -0.062460   0.363092  -0.067742   0.006769   0.001184  -0.000024
    18  H    0.332707  -0.013944   0.002527   0.000491  -0.000036   0.000003
    19  H   -0.000135  -0.005975  -0.076039   0.424847  -0.049313   0.013318
    20  H    0.000003  -0.000133   0.018689  -0.074349   0.457378  -0.075538
    21  H   -0.000000   0.000019  -0.001720   0.014959  -0.069959   0.451525
    22  H   -0.000002  -0.000141   0.017607  -0.002079   0.014836  -0.074262
    23  H    0.012552  -0.009622  -0.077184   0.013523  -0.001535   0.013422
    24  H    0.007393  -0.015817   0.009444  -0.000064  -0.000008   0.000004
    25  H    0.010272  -0.002399  -0.002851  -0.000771  -0.000017   0.000014
    26  H   -0.000242   0.005441  -0.000799  -0.000038   0.000001  -0.000009
    27  H    0.000233  -0.013379   0.011776  -0.000967  -0.000346  -0.000148
    28  H   -0.000004  -0.000314  -0.004701   0.007420  -0.000413   0.000960
    29  H   -0.000000  -0.000005   0.000041  -0.000016   0.000178  -0.000003
    30  H    0.000000  -0.000001   0.000001  -0.000003  -0.000000  -0.000000
    31  H   -0.000000  -0.000009   0.000001  -0.000000   0.000000  -0.000000
    32  H   -0.000029   0.000019  -0.000054  -0.000009  -0.000000  -0.000000
    33  H    0.003647  -0.007046  -0.004468   0.003158   0.000691   0.000000
               7          8          9         10         11         12
     1  N    0.001112   0.009029  -0.097266   0.007811   0.000473  -0.000046
     2  S    0.001353  -0.044328   0.245051  -0.044824  -0.008849   0.007287
     3  C    0.125953   0.143430  -0.125718   0.010223  -0.003168  -0.002469
     4  C   -0.154637   0.069128   0.003617   0.002184  -0.003004  -0.000458
     5  C    0.096387  -0.142741  -0.000247   0.000690   0.000420  -0.002740
     6  C    0.248601   0.108620  -0.000171   0.000204  -0.000079  -0.000252
     7  C    5.090747   0.261361  -0.000734  -0.001187   0.000221   0.000089
     8  C    0.261361   5.174325  -0.006119  -0.002720  -0.001262   0.000527
     9  C   -0.000734  -0.006119   5.236602   0.235824  -0.069369  -0.000933
    10  C   -0.001187  -0.002720   0.235824   4.991405   0.264397  -0.072907
    11  C    0.000221  -0.001262  -0.069369   0.264397   5.578802   0.273013
    12  C    0.000089   0.000527  -0.000933  -0.072907   0.273013   5.135945
    13  C   -0.000002  -0.000008  -0.000468   0.013580   0.087840   0.290605
    14  C   -0.000000   0.000000   0.000086  -0.000293  -0.168544   0.089876
    15  C   -0.000000   0.000003  -0.000111   0.013566   0.102922  -0.141731
    16  C    0.000003  -0.000098   0.000797  -0.119558   0.219899   0.049774
    17  N   -0.000006   0.005228  -0.038084  -0.009095   0.003759  -0.000932
    18  H   -0.000051  -0.001600   0.007799  -0.000347  -0.000071   0.000010
    19  H   -0.002180   0.016693   0.001411   0.001115  -0.001963   0.004490
    20  H    0.014907  -0.002333   0.000013  -0.000021   0.000012  -0.000036
    21  H   -0.069606   0.014879  -0.000001   0.000002   0.000000  -0.000008
    22  H    0.457260  -0.074003   0.000050  -0.000034   0.000003  -0.000000
    23  H   -0.055986   0.449808   0.002932  -0.001360   0.000038  -0.000009
    24  H   -0.000006  -0.000067   0.343831  -0.000071  -0.015177  -0.000346
    25  H    0.000743   0.004335   0.348589  -0.021722   0.011565  -0.000128
    26  H    0.000015   0.000034  -0.004930   0.349515  -0.010149   0.005326
    27  H    0.000398   0.001036  -0.008008   0.351484  -0.009381  -0.014267
    28  H    0.000063  -0.000997   0.000797  -0.018809  -0.063478   0.442552
    29  H    0.000000  -0.000004   0.000008  -0.000320   0.017428  -0.072414
    30  H    0.000000   0.000000  -0.000000   0.000037  -0.001541   0.014674
    31  H   -0.000000   0.000000   0.000012  -0.000312   0.016565  -0.001987
    32  H    0.000000   0.000001   0.002809  -0.016480  -0.078386   0.015419
    33  H   -0.000034  -0.000833  -0.002740  -0.003362   0.005714   0.000222
              13         14         15         16         17         18
     1  N    0.000000  -0.000000   0.000001  -0.000118  -0.062460   0.332707
     2  S   -0.000367   0.000061  -0.000229  -0.001988   0.363092  -0.013944
     3  C    0.000429  -0.000041  -0.000109   0.001885  -0.067742   0.002527
     4  C   -0.001719   0.000034   0.000029  -0.000017   0.006769   0.000491
     5  C    0.000324  -0.000039   0.000009  -0.000063   0.001184  -0.000036
     6  C   -0.000016   0.000001  -0.000000   0.000002  -0.000024   0.000003
     7  C   -0.000002  -0.000000  -0.000000   0.000003  -0.000006  -0.000051
     8  C   -0.000008   0.000000   0.000003  -0.000098   0.005228  -0.001600
     9  C   -0.000468   0.000086  -0.000111   0.000797  -0.038084   0.007799
    10  C    0.013580  -0.000293   0.013566  -0.119558  -0.009095  -0.000347
    11  C    0.087840  -0.168544   0.102922   0.219899   0.003759  -0.000071
    12  C    0.290605   0.089876  -0.141731   0.049774  -0.000932   0.000010
    13  C    5.068468   0.271178   0.086173  -0.138518  -0.000263  -0.000000
    14  C    0.271178   5.126772   0.272300   0.086058   0.000059   0.000000
    15  C    0.086173   0.272300   5.036347   0.302596  -0.002044  -0.000000
    16  C   -0.138518   0.086058   0.302596   5.179959   0.008295   0.000016
    17  N   -0.000263   0.000059  -0.002044   0.008295   6.838792   0.003533
    18  H   -0.000000   0.000000  -0.000000   0.000016   0.003533   0.543314
    19  H    0.000370   0.000039   0.000044  -0.000665   0.020115   0.000046
    20  H    0.000058  -0.000001   0.000000  -0.000000  -0.000002  -0.000000
    21  H    0.000000   0.000000  -0.000000   0.000000  -0.000000   0.000000
    22  H   -0.000000  -0.000000   0.000000  -0.000000   0.000001   0.000000
    23  H    0.000001  -0.000000   0.000000  -0.000002   0.000434  -0.000266
    24  H    0.000073  -0.000007  -0.000405   0.009577   0.004391  -0.000354
    25  H    0.000007  -0.000001  -0.000012   0.000181   0.003331  -0.000804
    26  H   -0.000684   0.000093   0.000304  -0.009245  -0.000164   0.000014
    27  H    0.000621  -0.000000  -0.000461   0.012190   0.000208  -0.000009
    28  H   -0.063595   0.014538  -0.001869   0.015718   0.000023   0.000000
    29  H    0.454058  -0.075351   0.014862  -0.002010  -0.000008   0.000000
    30  H   -0.070453   0.451539  -0.069847   0.014697  -0.000004  -0.000000
    31  H    0.014916  -0.073374   0.453615  -0.070699  -0.000014   0.000000
    32  H   -0.001974   0.015036  -0.059681   0.450638   0.000012  -0.000000
    33  H    0.000629   0.001104   0.000527  -0.002460   0.329163  -0.000096
              19         20         21         22         23         24
     1  N   -0.000135   0.000003  -0.000000  -0.000002   0.012552   0.007393
     2  S   -0.005975  -0.000133   0.000019  -0.000141  -0.009622  -0.015817
     3  C   -0.076039   0.018689  -0.001720   0.017607  -0.077184   0.009444
     4  C    0.424847  -0.074349   0.014959  -0.002079   0.013523  -0.000064
     5  C   -0.049313   0.457378  -0.069959   0.014836  -0.001535  -0.000008
     6  C    0.013318  -0.075538   0.451525  -0.074262   0.013422   0.000004
     7  C   -0.002180   0.014907  -0.069606   0.457260  -0.055986  -0.000006
     8  C    0.016693  -0.002333   0.014879  -0.074003   0.449808  -0.000067
     9  C    0.001411   0.000013  -0.000001   0.000050   0.002932   0.343831
    10  C    0.001115  -0.000021   0.000002  -0.000034  -0.001360  -0.000071
    11  C   -0.001963   0.000012   0.000000   0.000003   0.000038  -0.015177
    12  C    0.004490  -0.000036  -0.000008  -0.000000  -0.000009  -0.000346
    13  C    0.000370   0.000058   0.000000  -0.000000   0.000001   0.000073
    14  C    0.000039  -0.000001   0.000000  -0.000000  -0.000000  -0.000007
    15  C    0.000044   0.000000  -0.000000   0.000000   0.000000  -0.000405
    16  C   -0.000665  -0.000000   0.000000  -0.000000  -0.000002   0.009577
    17  N    0.020115  -0.000002  -0.000000   0.000001   0.000434   0.004391
    18  H    0.000046  -0.000000   0.000000   0.000000  -0.000266  -0.000354
    19  H    0.652767  -0.011856  -0.000248   0.000040  -0.000170  -0.000082
    20  H   -0.011856   0.665406  -0.012259  -0.000260   0.000031  -0.000000
    21  H   -0.000248  -0.012259   0.662660  -0.012266  -0.000236   0.000000
    22  H    0.000040  -0.000260  -0.012266   0.662788  -0.011592  -0.000001
    23  H   -0.000170   0.000031  -0.000236  -0.011592   0.638261  -0.000171
    24  H   -0.000082  -0.000000   0.000000  -0.000001  -0.000171   0.577722
    25  H   -0.000103   0.000000  -0.000000  -0.000023   0.001694  -0.006313
    26  H    0.000009   0.000000   0.000000   0.000001   0.000014  -0.009857
    27  H   -0.000072  -0.000000  -0.000006   0.000091   0.000832   0.006022
    28  H   -0.001218   0.000048   0.000030  -0.000008   0.000002  -0.000021
    29  H    0.000127   0.000040  -0.000000   0.000000   0.000000   0.000000
    30  H    0.000006  -0.000000   0.000000   0.000000  -0.000000  -0.000000
    31  H   -0.000001  -0.000000  -0.000000   0.000000  -0.000000   0.000013
    32  H    0.000005   0.000000  -0.000000   0.000000   0.000001   0.002084
    33  H    0.002142  -0.000002  -0.000000   0.000000  -0.000078  -0.000242
              25         26         27         28         29         30
     1  N    0.010272  -0.000242   0.000233  -0.000004  -0.000000   0.000000
     2  S   -0.002399   0.005441  -0.013379  -0.000314  -0.000005  -0.000001
     3  C   -0.002851  -0.000799   0.011776  -0.004701   0.000041   0.000001
     4  C   -0.000771  -0.000038  -0.000967   0.007420  -0.000016  -0.000003
     5  C   -0.000017   0.000001  -0.000346  -0.000413   0.000178  -0.000000
     6  C    0.000014  -0.000009  -0.000148   0.000960  -0.000003  -0.000000
     7  C    0.000743   0.000015   0.000398   0.000063   0.000000   0.000000
     8  C    0.004335   0.000034   0.001036  -0.000997  -0.000004   0.000000
     9  C    0.348589  -0.004930  -0.008008   0.000797   0.000008  -0.000000
    10  C   -0.021722   0.349515   0.351484  -0.018809  -0.000320   0.000037
    11  C    0.011565  -0.010149  -0.009381  -0.063478   0.017428  -0.001541
    12  C   -0.000128   0.005326  -0.014267   0.442552  -0.072414   0.014674
    13  C    0.000007  -0.000684   0.000621  -0.063595   0.454058  -0.070453
    14  C   -0.000001   0.000093  -0.000000   0.014538  -0.075351   0.451539
    15  C   -0.000012   0.000304  -0.000461  -0.001869   0.014862  -0.069847
    16  C    0.000181  -0.009245   0.012190   0.015718  -0.002010   0.014697
    17  N    0.003331  -0.000164   0.000208   0.000023  -0.000008  -0.000004
    18  H   -0.000804   0.000014  -0.000009   0.000000   0.000000  -0.000000
    19  H   -0.000103   0.000009  -0.000072  -0.001218   0.000127   0.000006
    20  H    0.000000   0.000000  -0.000000   0.000048   0.000040  -0.000000
    21  H   -0.000000   0.000000  -0.000006   0.000030  -0.000000   0.000000
    22  H   -0.000023   0.000001   0.000091  -0.000008   0.000000   0.000000
    23  H    0.001694   0.000014   0.000832   0.000002   0.000000  -0.000000
    24  H   -0.006313  -0.009857   0.006022  -0.000021   0.000000  -0.000000
    25  H    0.582888  -0.004317  -0.007285  -0.000035  -0.000000   0.000000
    26  H   -0.004317   0.633205  -0.021265   0.000207   0.000011  -0.000001
    27  H   -0.007285  -0.021265   0.640525   0.008481  -0.000010  -0.000001
    28  H   -0.000035   0.000207   0.008481   0.662145  -0.013014  -0.000277
    29  H   -0.000000   0.000011  -0.000010  -0.013014   0.675469  -0.012477
    30  H    0.000000  -0.000001  -0.000001  -0.000277  -0.012477   0.668344
    31  H   -0.000001  -0.000001   0.000010   0.000034  -0.000291  -0.012347
    32  H   -0.000209   0.003234   0.000126  -0.000250   0.000035  -0.000287
    33  H   -0.000235   0.000014  -0.000015  -0.000177   0.000001   0.000027
              31         32         33
     1  N   -0.000000  -0.000029   0.003647
     2  S   -0.000009   0.000019  -0.007046
     3  C    0.000001  -0.000054  -0.004468
     4  C   -0.000000  -0.000009   0.003158
     5  C    0.000000  -0.000000   0.000691
     6  C   -0.000000  -0.000000   0.000000
     7  C   -0.000000   0.000000  -0.000034
     8  C    0.000000   0.000001  -0.000833
     9  C    0.000012   0.002809  -0.002740
    10  C   -0.000312  -0.016480  -0.003362
    11  C    0.016565  -0.078386   0.005714
    12  C   -0.001987   0.015419   0.000222
    13  C    0.014916  -0.001974   0.000629
    14  C   -0.073374   0.015036   0.001104
    15  C    0.453615  -0.059681   0.000527
    16  C   -0.070699   0.450638  -0.002460
    17  N   -0.000014   0.000012   0.329163
    18  H    0.000000  -0.000000  -0.000096
    19  H   -0.000001   0.000005   0.002142
    20  H   -0.000000   0.000000  -0.000002
    21  H   -0.000000  -0.000000  -0.000000
    22  H    0.000000   0.000000   0.000000
    23  H   -0.000000   0.000001  -0.000078
    24  H    0.000013   0.002084  -0.000242
    25  H   -0.000001  -0.000209  -0.000235
    26  H   -0.000001   0.003234   0.000014
    27  H    0.000010   0.000126  -0.000015
    28  H    0.000034  -0.000250  -0.000177
    29  H   -0.000291   0.000035   0.000001
    30  H   -0.012347  -0.000287   0.000027
    31  H    0.668658  -0.013111   0.000021
    32  H   -0.013111   0.676500  -0.000022
    33  H    0.000021  -0.000022   0.534403
 Mulliken charges:
               1
     1  N   -0.432532
     2  S    0.441220
     3  C   -0.113589
     4  C    0.009001
     5  C   -0.015928
     6  C    0.004704
     7  C   -0.014785
     8  C    0.018676
     9  C   -0.075328
    10  C    0.071385
    11  C   -0.148650
    12  C   -0.018146
    13  C   -0.011262
    14  C   -0.011121
    15  C   -0.006798
    16  C   -0.006843
    17  N   -0.407542
    18  H    0.127119
    19  H    0.012439
    20  H    0.020205
    21  H    0.022234
    22  H    0.021996
    23  H    0.024664
    24  H    0.088454
    25  H    0.083606
    26  H    0.064265
    27  H    0.041588
    28  H    0.016162
    29  H    0.013664
    30  H    0.017915
    31  H    0.018303
    32  H    0.004573
    33  H    0.140348
 Sum of Mulliken charges =  -0.00000
 Mulliken charges with hydrogens summed into heavy atoms:
               1
     1  N   -0.305413
     2  S    0.441220
     3  C   -0.113589
     4  C    0.021440
     5  C    0.004277
     6  C    0.026938
     7  C    0.007212
     8  C    0.043341
     9  C    0.096732
    10  C    0.177239
    11  C   -0.148650
    12  C   -0.001984
    13  C    0.002401
    14  C    0.006795
    15  C    0.011505
    16  C   -0.002269
    17  N   -0.267195
 Electronic spatial extent (au):  <R**2>=           4025.7041
 Charge=             -0.0000 electrons
 Dipole moment (field-independent basis, Debye):
    X=              0.3753    Y=              3.3855    Z=              2.4010  Tot=              4.1674
 Quadrupole moment (field-independent basis, Debye-Ang):
   XX=           -100.8986   YY=           -108.9502   ZZ=           -108.2489
   XY=             -7.0739   XZ=             -3.8514   YZ=             -8.3761
 Traceless Quadrupole moment (field-independent basis, Debye-Ang):
   XX=              5.1340   YY=             -2.9177   ZZ=             -2.2163
   XY=             -7.0739   XZ=             -3.8514   YZ=             -8.3761
 Octapole moment (field-independent basis, Debye-Ang**2):
  XXX=              7.0084  YYY=             32.5056  ZZZ=              6.2503  XYY=              4.3999
  XXY=             10.3611  XXZ=             -0.3500  XZZ=            -11.0678  YZZ=             -6.4287
  YYZ=             -3.8706  XYZ=            -14.2106
 Hexadecapole moment (field-independent basis, Debye-Ang**3):
 XXXX=          -3074.2430 YYYY=          -1624.0676 ZZZZ=           -698.3387 XXXY=            -76.3016
 XXXZ=           -138.8555 YYYX=            -66.0209 YYYZ=            -21.2663 ZZZX=              6.6464
 ZZZY=            -11.7428 XXYY=           -773.6385 XXZZ=           -646.1621 YYZZ=           -362.0279
 XXYZ=            -18.3211 YYXZ=              9.1175 ZZXY=             21.7144
 N-N= 1.348780336009D+03 E-N=-5.151419775465D+03  KE= 1.042050094419D+03
   1 Symmetry operations used in ECPInt.
 ECPInt:  NShTT=   11628 NPrTT=   42474 LenC2=   11139 LenP2D=   29581.
 LDataN:  DoStor=T MaxTD1= 5 Len=  102
 Calling FoFJK, ICntrl=      2127 FMM=F ISym2X=0 I1Cent= 0 IOpClX= 0 NMat=1 NMatS=1 NMatT=0.
 ***** Axes restored to original set *****
 -------------------------------------------------------------------
 Center     Atomic                   Forces (Hartrees/Bohr)
 Number     Number              X              Y              Z
 -------------------------------------------------------------------
      1        7           0.009252480   -0.001757592   -0.022579768
      2       16           0.010781891   -0.002614022   -0.000677398
      3        6           0.002531127   -0.010620955    0.003920568
      4        6           0.000086940   -0.001372953    0.002800882
      5        6           0.000493949    0.000103334   -0.000236279
      6        6          -0.000917524    0.000829094    0.000217634
      7        6           0.000289969   -0.001173421   -0.000539655
      8        6           0.001404355    0.000970279   -0.001733297
      9        6          -0.012848562    0.012361448    0.002679344
     10        6           0.001440361   -0.001911908    0.009225211
     11        6           0.002452223    0.001936779   -0.008690643
     12        6          -0.001117832    0.000013281   -0.001008277
     13        6          -0.001066109    0.000415482    0.000816616
     14        6          -0.001164170    0.000297958    0.001196724
     15        6           0.000781091   -0.001279719   -0.000038487
     16        6          -0.001104135    0.000228285    0.000181592
     17        7           0.001324885    0.000004871    0.006857166
     18        1          -0.003308886    0.003498289    0.012318615
     19        1          -0.002614469   -0.004772331    0.007306663
     20        1          -0.007232293    0.002740464    0.004840599
     21        1          -0.004527508    0.007450004   -0.002645790
     22        1           0.003065191    0.004687186   -0.007150547
     23        1           0.008651431   -0.001617250   -0.005134764
     24        1           0.004823248   -0.004718066    0.006195027
     25        1           0.006868087    0.002850338   -0.004634392
     26        1           0.001179243   -0.002175859   -0.004893903
     27        1          -0.001495768    0.003152346   -0.003391856
     28        1          -0.000471322    0.006920814   -0.003682932
     29        1          -0.007108169    0.005225526    0.002069145
     30        1          -0.006098378   -0.002820635    0.006281006
     31        1           0.001029291   -0.008194359    0.004040238
     32        1           0.007452583   -0.005513538   -0.001629131
     33        1          -0.012833220   -0.003143169   -0.002279909
 -------------------------------------------------------------------
 Cartesian Forces:  Max     0.022579768 RMS     0.005358680

 GradGradGradGradGradGradGradGradGradGradGradGradGradGradGradGradGradGrad
 Berny optimization.
 FormGI is forming the generalized inverse of G from B-inverse, IUseBI=4.
 Internal  Forces:  Max     0.013398936 RMS     0.004575980
 Search for a local minimum.
 Step number   1 out of a maximum of  184
 All quantities printed in internal units (Hartrees-Bohrs-Radians)
 Mixed Optimization -- RFO/linear search
 Second derivative matrix not updated -- first step.
 ITU=  0
     Eigenvalues ---    0.00230   0.00230   0.00500   0.00700   0.01512
     Eigenvalues ---    0.01608   0.02234   0.02262   0.02268   0.02274
     Eigenvalues ---    0.02278   0.02281   0.02283   0.02285   0.02293
     Eigenvalues ---    0.02294   0.02298   0.02298   0.02304   0.02307
     Eigenvalues ---    0.02310   0.02328   0.03548   0.03556   0.03594
     Eigenvalues ---    0.04287   0.04728   0.05561   0.06521   0.08005
     Eigenvalues ---    0.08510   0.09256   0.09351   0.12220   0.12769
     Eigenvalues ---    0.15998   0.15999   0.16000   0.16000   0.16000
     Eigenvalues ---    0.16000   0.16000   0.16000   0.16000   0.16000
     Eigenvalues ---    0.16000   0.16000   0.16581   0.19409   0.21974
     Eigenvalues ---    0.21998   0.21999   0.21999   0.21999   0.22013
     Eigenvalues ---    0.22625   0.23469   0.23474   0.23776   0.24937
     Eigenvalues ---    0.24999   0.30359   0.31860   0.34231   0.34516
     Eigenvalues ---    0.35070   0.35288   0.35845   0.35964   0.35973
     Eigenvalues ---    0.35993   0.36003   0.36004   0.36018   0.36019
     Eigenvalues ---    0.36024   0.36127   0.43389   0.43450   0.43574
     Eigenvalues ---    0.43784   0.46596   0.46759   0.47564   0.47884
     Eigenvalues ---    0.48037   0.48208   0.48297   0.48436   0.48487
     Eigenvalues ---    0.48738   0.67604   0.68583
 RFO step:  Lambda=-1.25868486D-02 EMin= 2.30000000D-03
 Linear search not attempted -- first point.
 Iteration  1 RMS(Cart)=  0.13730094 RMS(Int)=  0.00239776
 Iteration  2 RMS(Cart)=  0.00616973 RMS(Int)=  0.00022446
 Iteration  3 RMS(Cart)=  0.00001318 RMS(Int)=  0.00022440
 Iteration  4 RMS(Cart)=  0.00000000 RMS(Int)=  0.00022440
 Variable       Old X    -DE/DX   Delta X   Delta X   Delta X     New X
                                 (Linear)    (Quad)   (Total)
    R1        2.88431   0.00589   0.00000   0.00843   0.00843   2.89274
    R2        1.89985   0.01087   0.00000   0.02263   0.02263   1.92248
    R3        3.46126  -0.00335   0.00000  -0.01336  -0.01336   3.44789
    R4        3.49360  -0.00753   0.00000  -0.03154  -0.03154   3.46206
    R5        2.89086   0.00916   0.00000   0.01330   0.01330   2.90416
    R6        2.60952   0.00926   0.00000   0.01858   0.01859   2.62811
    R7        2.61226   0.01210   0.00000   0.02444   0.02445   2.63671
    R8        2.61871   0.00932   0.00000   0.01883   0.01883   2.63754
    R9        2.04054   0.00911   0.00000   0.02444   0.02444   2.06498
   R10        2.61771   0.00971   0.00000   0.01944   0.01943   2.63714
   R11        2.04076   0.00912   0.00000   0.02448   0.02448   2.06524
   R12        2.62025   0.01037   0.00000   0.02096   0.02095   2.64120
   R13        2.04092   0.00911   0.00000   0.02446   0.02446   2.06538
   R14        2.61605   0.00864   0.00000   0.01750   0.01750   2.63355
   R15        2.04077   0.00908   0.00000   0.02437   0.02437   2.06514
   R16        2.03883   0.01009   0.00000   0.02698   0.02698   2.06581
   R17        2.87254   0.00488   0.00000   0.01542   0.01542   2.88796
   R18        2.05561   0.00777   0.00000   0.02139   0.02139   2.07700
   R19        2.05209   0.00864   0.00000   0.02363   0.02363   2.07572
   R20        2.84402   0.00494   0.00000   0.01490   0.01490   2.85892
   R21        2.06942   0.00519   0.00000   0.01462   0.01462   2.08404
   R22        2.06468   0.00445   0.00000   0.01244   0.01244   2.07713
   R23        2.62415   0.01006   0.00000   0.02055   0.02056   2.64470
   R24        2.62791   0.01026   0.00000   0.02108   0.02108   2.64899
   R25        2.61671   0.01090   0.00000   0.02206   0.02206   2.63877
   R26        2.04325   0.00784   0.00000   0.02113   0.02113   2.06438
   R27        2.61489   0.00968   0.00000   0.01957   0.01957   2.63446
   R28        2.04138   0.00906   0.00000   0.02434   0.02434   2.06572
   R29        2.61749   0.01040   0.00000   0.02109   0.02109   2.63858
   R30        2.04043   0.00920   0.00000   0.02467   0.02467   2.06510
   R31        2.61298   0.00989   0.00000   0.01980   0.01980   2.63278
   R32        2.04052   0.00919   0.00000   0.02466   0.02466   2.06518
   R33        2.04124   0.00939   0.00000   0.02522   0.02522   2.06645
   R34        1.90164   0.01325   0.00000   0.02770   0.02770   1.92934
    A1        1.98552  -0.01325   0.00000  -0.07675  -0.07675   1.90877
    A2        1.91184  -0.00135   0.00000  -0.00578  -0.00561   1.90623
    A3        1.77090  -0.00310   0.00000  -0.00862  -0.00862   1.76228
    A4        1.99613   0.00753   0.00000   0.06148   0.06171   2.05784
    A5        1.76294   0.00354   0.00000  -0.00086  -0.00133   1.76161
    A6        1.97012  -0.00483   0.00000  -0.03523  -0.03553   1.93459
    A7        2.02884  -0.00214   0.00000  -0.01574  -0.01632   2.01253
    A8        2.10220  -0.00314   0.00000  -0.01276  -0.01283   2.08938
    A9        2.06713   0.00184   0.00000   0.00626   0.00617   2.07330
   A10        2.11160   0.00126   0.00000   0.00506   0.00499   2.11660
   A11        2.08521  -0.00095   0.00000  -0.00383  -0.00382   2.08139
   A12        2.08449   0.00047   0.00000   0.00185   0.00184   2.08633
   A13        2.11347   0.00049   0.00000   0.00196   0.00196   2.11543
   A14        2.09259   0.00049   0.00000   0.00167   0.00166   2.09425
   A15        2.09329  -0.00037   0.00000  -0.00159  -0.00158   2.09171
   A16        2.09730  -0.00011   0.00000  -0.00008  -0.00008   2.09722
   A17        2.09876   0.00013   0.00000   0.00003   0.00001   2.09877
   A18        2.09247  -0.00005   0.00000   0.00006   0.00007   2.09253
   A19        2.09191  -0.00008   0.00000  -0.00013  -0.00013   2.09178
   A20        2.09276   0.00038   0.00000   0.00167   0.00165   2.09441
   A21        2.09585   0.00002   0.00000   0.00034   0.00033   2.09618
   A22        2.09456  -0.00040   0.00000  -0.00205  -0.00207   2.09249
   A23        2.08504  -0.00131   0.00000  -0.00490  -0.00489   2.08015
   A24        2.08137   0.00193   0.00000   0.00983   0.00982   2.09118
   A25        2.11665  -0.00063   0.00000  -0.00500  -0.00501   2.11164
   A26        1.98606   0.01340   0.00000   0.06090   0.06064   2.04671
   A27        1.81438  -0.00757   0.00000  -0.04993  -0.05003   1.76435
   A28        1.82727  -0.00475   0.00000  -0.01362  -0.01479   1.81249
   A29        1.95853  -0.00115   0.00000  -0.00096   0.00001   1.95854
   A30        1.96297  -0.00197   0.00000   0.00833   0.00798   1.97095
   A31        1.90415   0.00135   0.00000  -0.01085  -0.01154   1.89261
   A32        1.95393   0.00959   0.00000   0.04712   0.04674   2.00067
   A33        1.89292  -0.00438   0.00000  -0.03092  -0.03067   1.86225
   A34        1.91337  -0.00113   0.00000   0.00867   0.00781   1.92117
   A35        1.91008  -0.00237   0.00000  -0.01408  -0.01360   1.89648
   A36        1.91119  -0.00240   0.00000   0.00483   0.00389   1.91508
   A37        1.88085   0.00034   0.00000  -0.01843  -0.01850   1.86234
   A38        2.10634   0.00136   0.00000   0.00540   0.00539   2.11173
   A39        2.10414   0.00021   0.00000   0.00100   0.00099   2.10514
   A40        2.07267  -0.00157   0.00000  -0.00636  -0.00636   2.06631
   A41        2.10596   0.00096   0.00000   0.00393   0.00393   2.10989
   A42        2.08757  -0.00093   0.00000  -0.00461  -0.00461   2.08296
   A43        2.08965  -0.00002   0.00000   0.00067   0.00067   2.09032
   A44        2.09656  -0.00002   0.00000   0.00004   0.00004   2.09659
   A45        2.08956   0.00012   0.00000   0.00060   0.00060   2.09016
   A46        2.09707  -0.00010   0.00000  -0.00064  -0.00064   2.09643
   A47        2.08815  -0.00055   0.00000  -0.00222  -0.00222   2.08592
   A48        2.09773   0.00034   0.00000   0.00145   0.00146   2.09918
   A49        2.09730   0.00021   0.00000   0.00076   0.00076   2.09806
   A50        2.09706   0.00010   0.00000   0.00029   0.00029   2.09735
   A51        2.09510  -0.00001   0.00000   0.00005   0.00005   2.09515
   A52        2.09103  -0.00008   0.00000  -0.00035  -0.00035   2.09067
   A53        2.10568   0.00108   0.00000   0.00421   0.00421   2.10989
   A54        2.08957  -0.00027   0.00000  -0.00057  -0.00059   2.08898
   A55        2.08794  -0.00081   0.00000  -0.00366  -0.00368   2.08426
   A56        2.00882  -0.00375   0.00000  -0.02173  -0.02173   1.98709
    D1        1.77852  -0.00294   0.00000  -0.03323  -0.03305   1.74547
    D2       -2.65138  -0.00078   0.00000  -0.03969  -0.03989  -2.69127
    D3       -0.45298  -0.00126   0.00000  -0.02971  -0.02970  -0.48267
    D4       -2.26879  -0.00212   0.00000  -0.00354  -0.00356  -2.27235
    D5        0.80150  -0.00271   0.00000  -0.02602  -0.02597   0.77553
    D6        2.15572   0.00020   0.00000   0.00813   0.00822   2.16393
    D7       -1.05717  -0.00038   0.00000  -0.01435  -0.01420  -1.07137
    D8       -0.02287   0.00305   0.00000   0.04640   0.04623   0.02336
    D9        3.04742   0.00247   0.00000   0.02392   0.02382   3.07124
   D10       -2.75879   0.00126   0.00000  -0.04045  -0.04080  -2.79959
   D11        1.38868   0.00013   0.00000  -0.04028  -0.03978   1.34890
   D12       -0.60868   0.00354   0.00000  -0.00292  -0.00330  -0.61198
   D13       -0.79047  -0.00003   0.00000  -0.04941  -0.04966  -0.84013
   D14       -2.92619  -0.00116   0.00000  -0.04923  -0.04864  -2.97483
   D15        1.35964   0.00225   0.00000  -0.01187  -0.01217   1.34747
   D16        1.34782  -0.00469   0.00000  -0.10231  -0.10251   1.24531
   D17       -0.78790  -0.00581   0.00000  -0.10214  -0.10149  -0.88939
   D18       -2.78525  -0.00240   0.00000  -0.06478  -0.06502  -2.85027
   D19       -3.12812   0.00030   0.00000   0.00118   0.00095  -3.12717
   D20        0.95359  -0.00004   0.00000  -0.01263  -0.01213   0.94146
   D21       -1.07186   0.00045   0.00000   0.02630   0.02604  -1.04581
   D22        3.09562  -0.00039   0.00000  -0.01540  -0.01531   3.08031
   D23       -0.04096  -0.00028   0.00000  -0.01238  -0.01232  -0.05327
   D24        0.02716   0.00019   0.00000   0.00763   0.00765   0.03481
   D25       -3.10941   0.00030   0.00000   0.01064   0.01064  -3.09877
   D26       -3.09969   0.00033   0.00000   0.00894   0.00909  -3.09060
   D27        0.02458   0.00012   0.00000   0.00446   0.00455   0.02914
   D28       -0.02980  -0.00045   0.00000  -0.01441  -0.01444  -0.04424
   D29        3.09448  -0.00065   0.00000  -0.01890  -0.01898   3.07550
   D30       -0.00550   0.00012   0.00000   0.00199   0.00201  -0.00348
   D31        3.13813   0.00012   0.00000   0.00272   0.00272   3.14085
   D32        3.13099   0.00001   0.00000  -0.00108  -0.00103   3.12996
   D33       -0.00857   0.00001   0.00000  -0.00034  -0.00033  -0.00890
   D34       -0.01317  -0.00016   0.00000  -0.00459  -0.00461  -0.01778
   D35        3.13933  -0.00002   0.00000  -0.00010  -0.00013   3.13920
   D36        3.12638  -0.00015   0.00000  -0.00533  -0.00532   3.12107
   D37       -0.00430  -0.00002   0.00000  -0.00084  -0.00084  -0.00514
   D38        0.01052  -0.00011   0.00000  -0.00226  -0.00229   0.00823
   D39       -3.12600   0.00026   0.00000   0.00821   0.00820  -3.11779
   D40        3.14121  -0.00024   0.00000  -0.00674  -0.00677   3.13444
   D41        0.00469   0.00013   0.00000   0.00373   0.00373   0.00842
   D42        0.01075   0.00039   0.00000   0.01156   0.01156   0.02231
   D43       -3.11316   0.00057   0.00000   0.01599   0.01600  -3.09716
   D44       -3.13591   0.00001   0.00000   0.00110   0.00109  -3.13482
   D45        0.02336   0.00019   0.00000   0.00553   0.00553   0.02889
   D46       -0.96014  -0.00018   0.00000  -0.02481  -0.02499  -0.98513
   D47       -3.06938  -0.00033   0.00000  -0.01621  -0.01594  -3.08532
   D48        1.16443   0.00241   0.00000   0.01883   0.01910   1.18353
   D49        1.09405  -0.00150   0.00000  -0.04792  -0.04804   1.04601
   D50       -1.01519  -0.00166   0.00000  -0.03931  -0.03900  -1.05419
   D51       -3.06457   0.00108   0.00000  -0.00427  -0.00395  -3.06853
   D52       -3.03430  -0.00211   0.00000  -0.05666  -0.05725  -3.09154
   D53        1.13965  -0.00226   0.00000  -0.04806  -0.04820   1.09145
   D54       -0.90973   0.00048   0.00000  -0.01302  -0.01316  -0.92289
   D55        2.08018   0.00209   0.00000   0.05564   0.05581   2.13598
   D56       -1.05348   0.00196   0.00000   0.05082   0.05098  -1.00250
   D57       -2.10374   0.00118   0.00000   0.03767   0.03767  -2.06607
   D58        1.04578   0.00105   0.00000   0.03286   0.03285   1.07863
   D59       -0.04564  -0.00120   0.00000   0.00989   0.00974  -0.03590
   D60        3.10389  -0.00133   0.00000   0.00507   0.00491   3.10880
   D61       -3.11122   0.00001   0.00000  -0.00008  -0.00008  -3.11130
   D62        0.02751  -0.00010   0.00000  -0.00318  -0.00317   0.02433
   D63        0.02257   0.00015   0.00000   0.00468   0.00468   0.02725
   D64       -3.12188   0.00004   0.00000   0.00158   0.00158  -3.12030
   D65        3.11073   0.00001   0.00000   0.00066   0.00065   3.11138
   D66       -0.02828   0.00034   0.00000   0.01009   0.01008  -0.01819
   D67       -0.02308  -0.00013   0.00000  -0.00411  -0.00411  -0.02718
   D68        3.12110   0.00020   0.00000   0.00531   0.00533   3.12643
   D69       -0.00507  -0.00007   0.00000  -0.00206  -0.00206  -0.00713
   D70        3.13447  -0.00003   0.00000  -0.00075  -0.00076   3.13371
   D71        3.13939   0.00004   0.00000   0.00106   0.00105   3.14044
   D72       -0.00426   0.00008   0.00000   0.00236   0.00236  -0.00190
   D73       -0.01230  -0.00005   0.00000  -0.00132  -0.00133  -0.01363
   D74        3.13430   0.00002   0.00000   0.00055   0.00055   3.13485
   D75        3.13136  -0.00010   0.00000  -0.00263  -0.00264   3.12872
   D76       -0.00523  -0.00003   0.00000  -0.00076  -0.00076  -0.00599
   D77        0.01180   0.00007   0.00000   0.00190   0.00190   0.01371
   D78       -3.13179  -0.00001   0.00000  -0.00051  -0.00051  -3.13230
   D79       -3.13480   0.00000   0.00000   0.00003   0.00003  -3.13477
   D80        0.00479  -0.00008   0.00000  -0.00238  -0.00238   0.00241
   D81        0.00607   0.00003   0.00000   0.00091   0.00091   0.00697
   D82       -3.13811  -0.00030   0.00000  -0.00850  -0.00850   3.13658
   D83       -3.13353   0.00012   0.00000   0.00331   0.00331  -3.13022
   D84        0.00548  -0.00021   0.00000  -0.00610  -0.00609  -0.00061
         Item               Value     Threshold  Converged?
 Maximum Force            0.013399     0.000450     NO 
[...]
     7  C    0.000036  -0.000000  -0.000001   0.000044  -0.002127   0.000207
     8  C   -0.000037  -0.000022   0.000028  -0.000649   0.023875  -0.007460
     9  C   -0.000319   0.000792   0.000274   0.020815  -0.044137   0.012778
    10  C    0.012966  -0.003933   0.017565  -0.103575  -0.015806  -0.001150
    11  C    0.026116  -0.107327   0.027797   0.375487   0.003013   0.000065
    12  C    0.433455   0.033941  -0.082630  -0.006197  -0.002689  -0.000019
    13  C    4.909240   0.466120   0.015863  -0.081486   0.000292   0.000001
    14  C    0.466120   4.895369   0.459583   0.043209   0.000616  -0.000001
    15  C    0.015863   0.459583   4.880473   0.433185  -0.003792   0.000000
    16  C   -0.081486   0.043209   0.433185   5.113959   0.008172   0.000056
    17  N    0.000292   0.000616  -0.003792   0.008172   6.968777  -0.004237
    18  H    0.000001  -0.000001   0.000000   0.000056  -0.004237   0.480828
    19  H   -0.001591   0.000381   0.000310  -0.001265   0.020493   0.000109
    20  H    0.000066  -0.000006   0.000001  -0.000002  -0.000007  -0.000001
    21  H    0.000000  -0.000000  -0.000000   0.000000   0.000000  -0.000000
    22  H   -0.000000   0.000000   0.000000  -0.000000   0.000002   0.000011
    23  H    0.000002  -0.000001   0.000002  -0.000035   0.001654  -0.001303
    24  H   -0.000046   0.000007   0.000100   0.001640   0.003713  -0.000659
    25  H   -0.000001   0.000008  -0.000139   0.000227   0.004447  -0.000717
    26  H   -0.001074   0.000376  -0.000008   0.000259  -0.000614   0.000034
    27  H    0.001248   0.000019  -0.000378   0.005507   0.000855   0.000001
    28  H   -0.048370   0.009532  -0.002390   0.012821   0.000175  -0.000000
    29  H    0.428149  -0.050740   0.010725  -0.002265  -0.000002   0.000000
    30  H   -0.050782   0.423461  -0.048716   0.010187  -0.000002   0.000000
    31  H    0.010502  -0.052519   0.425778  -0.052612  -0.000140  -0.000000
    32  H   -0.002697   0.011165  -0.044608   0.428348   0.001195   0.000002
    33  H    0.000543   0.000062   0.002001  -0.010940   0.299287   0.000067
              19         20         21         22         23         24
     1  N    0.000103   0.000016  -0.000000  -0.000057   0.018777   0.009252
     2  S   -0.003520  -0.000135   0.000024  -0.000256   0.004778  -0.021902
     3  C   -0.072003   0.013883  -0.004075   0.014209  -0.081824   0.007478
     4  C    0.418291  -0.055239   0.012425  -0.002126   0.013062  -0.000885
     5  C   -0.045094   0.427630  -0.052067   0.010564  -0.003819   0.000010
     6  C    0.011148  -0.052455   0.427376  -0.054209   0.012207   0.000011
     7  C   -0.004000   0.010312  -0.053350   0.428353  -0.062364   0.000050
     8  C    0.015757  -0.002151   0.012000  -0.053854   0.448796   0.000405
     9  C    0.002790   0.000041  -0.000014   0.000244  -0.001363   0.372418
    10  C    0.001539  -0.000113   0.000026  -0.000119   0.001036  -0.009037
    11  C   -0.006497   0.000106  -0.000001   0.000000  -0.000269  -0.011565
    12  C    0.006684  -0.000195  -0.000011   0.000010  -0.000066   0.001018
    13  C   -0.001591   0.000066   0.000000  -0.000000   0.000002  -0.000046
    14  C    0.000381  -0.000006  -0.000000   0.000000  -0.000001   0.000007
    15  C    0.000310   0.000001  -0.000000   0.000000   0.000002   0.000100
    16  C   -0.001265  -0.000002   0.000000  -0.000000  -0.000035   0.001640
    17  N    0.020493  -0.000007   0.000000   0.000002   0.001654   0.003713
    18  H    0.000109  -0.000001  -0.000000   0.000011  -0.001303  -0.000659
    19  H    0.535244  -0.007225  -0.000189   0.000082   0.000014  -0.000160
    20  H   -0.007225   0.547178  -0.007585  -0.000235   0.000055  -0.000001
    21  H   -0.000189  -0.007585   0.548443  -0.007750  -0.000120   0.000000
    22  H    0.000082  -0.000235  -0.007750   0.546564  -0.007296  -0.000003
    23  H    0.000014   0.000055  -0.000120  -0.007296   0.510041  -0.000140
    24  H   -0.000160  -0.000001   0.000000  -0.000003  -0.000140   0.510755
    25  H   -0.000180   0.000001   0.000000  -0.000045   0.000182  -0.009475
    26  H    0.000013  -0.000000   0.000000   0.000001   0.000056  -0.005590
    27  H   -0.000260   0.000010  -0.000005  -0.000020  -0.000031   0.003383
    28  H   -0.001076   0.000064  -0.000002   0.000000  -0.000008  -0.000019
    29  H    0.000099   0.000026   0.000000  -0.000000   0.000000  -0.000001
    30  H    0.000008  -0.000000  -0.000000   0.000000  -0.000000   0.000000
    31  H    0.000002  -0.000000  -0.000000   0.000000   0.000000  -0.000004
    32  H   -0.000009   0.000000   0.000000   0.000000  -0.000002   0.000535
    33  H    0.001890  -0.000023  -0.000001   0.000002  -0.000162   0.000931
              25         26         27         28         29         30
     1  N    0.005459  -0.000372   0.000166  -0.000008  -0.000000   0.000000
     2  S   -0.014702   0.003480  -0.002207  -0.000437   0.000002   0.000002
     3  C    0.004228  -0.001010   0.000911  -0.002195  -0.000058  -0.000000
     4  C   -0.002771   0.001122  -0.006629   0.000016  -0.000319   0.000007
     5  C   -0.000029  -0.000093   0.000008   0.000786   0.000127  -0.000001
     6  C   -0.000007   0.000005   0.000151  -0.000142   0.000010   0.000000
     7  C    0.001123  -0.000053   0.000577   0.000484  -0.000001  -0.000000
     8  C   -0.000038   0.000061   0.002033  -0.000663   0.000003  -0.000000
     9  C    0.383955  -0.030786  -0.021911  -0.000017   0.000024  -0.000003
    10  C   -0.049793   0.380210   0.408821  -0.007094  -0.000333   0.000109
    11  C    0.016840  -0.028914  -0.052936  -0.050329   0.012309  -0.001481
    12  C   -0.000193  -0.003373   0.009345   0.418707  -0.056002   0.010134
    13  C   -0.000001  -0.001074   0.001248  -0.048370   0.428149  -0.050782
    14  C    0.000008   0.000376   0.000019   0.009532  -0.050740   0.423461
    15  C   -0.000139  -0.000008  -0.000378  -0.002390   0.010725  -0.048716
    16  C    0.000227   0.000259   0.005507   0.012821  -0.002265   0.010187
    17  N    0.004447  -0.000614   0.000855   0.000175  -0.000002  -0.000002
    18  H   -0.000717   0.000034   0.000001  -0.000000   0.000000   0.000000
    19  H   -0.000180   0.000013  -0.000260  -0.001076   0.000099   0.000008
    20  H    0.000001  -0.000000   0.000010   0.000064   0.000026  -0.000000
    21  H    0.000000   0.000000  -0.000005  -0.000002   0.000000  -0.000000
    22  H   -0.000045   0.000001  -0.000020   0.000000  -0.000000   0.000000
    23  H    0.000182   0.000056  -0.000031  -0.000008   0.000000  -0.000000
    24  H   -0.009475  -0.005590   0.003383  -0.000019  -0.000001   0.000000
    25  H    0.506126  -0.004148  -0.001805  -0.000015  -0.000001   0.000000
    26  H   -0.004148   0.569967  -0.017637   0.000391   0.000017  -0.000003
    27  H   -0.001805  -0.017637   0.515418   0.004282  -0.000070  -0.000003
    28  H   -0.000015   0.000391   0.004282   0.542751  -0.007743  -0.000274
    29  H   -0.000001   0.000017  -0.000070  -0.007743   0.555160  -0.007924
    30  H    0.000000  -0.000003  -0.000003  -0.000274  -0.007924   0.553094
    31  H   -0.000002  -0.000019   0.000013   0.000078  -0.000284  -0.007639
    32  H    0.000150   0.001610   0.000157  -0.000217   0.000070  -0.000291
    33  H   -0.000565  -0.000039   0.000131  -0.000205  -0.000052  -0.000002
              31         32         33
     1  N    0.000000  -0.000106   0.007159
     2  S    0.000009  -0.000879   0.013751
     3  C   -0.000009  -0.000061  -0.011302
     4  C    0.000002  -0.000027   0.006023
     5  C    0.000000  -0.000003   0.002358
     6  C    0.000000  -0.000000  -0.000228
     7  C   -0.000000  -0.000001   0.000317
     8  C    0.000000   0.000012  -0.004439
     9  C   -0.000004   0.006268  -0.004235
    10  C   -0.000218  -0.010268  -0.005580
    11  C    0.012791  -0.065644   0.010572
    12  C   -0.001975   0.013103   0.003709
    13  C    0.010502  -0.002697   0.000543
    14  C   -0.052519   0.011165   0.000062
    15  C    0.425778  -0.044608   0.002001
    16  C   -0.052612   0.428348  -0.010940
    17  N   -0.000140   0.001195   0.299287
    18  H   -0.000000   0.000002   0.000067
    19  H    0.000002  -0.000009   0.001890
    20  H   -0.000000   0.000000  -0.000023
    21  H   -0.000000   0.000000  -0.000001
    22  H    0.000000   0.000000   0.000002
    23  H    0.000000  -0.000002  -0.000162
    24  H   -0.000004   0.000535   0.000931
    25  H   -0.000002   0.000150  -0.000565
    26  H   -0.000019   0.001610  -0.000039
    27  H    0.000013   0.000157   0.000131
    28  H    0.000078  -0.000217  -0.000205
    29  H   -0.000284   0.000070  -0.000052
    30  H   -0.007639  -0.000291  -0.000002
    31  H    0.553282  -0.008456   0.000015
    32  H   -0.008456   0.559591  -0.000261
    33  H    0.000015  -0.000261   0.457749
 Mulliken charges:
               1
     1  N   -0.575465
     2  S    0.534297
     3  C    0.082965
     4  C   -0.192620
     5  C   -0.118326
     6  C   -0.101217
     7  C   -0.114853
     8  C   -0.184278
     9  C   -0.240931
    10  C   -0.215447
    11  C    0.081680
    12  C   -0.200963
    13  C   -0.113393
    14  C   -0.130517
    15  C   -0.090632
    16  C   -0.188732
    17  N   -0.536570
    18  H    0.220813
    19  H    0.128109
    20  H    0.125983
    21  H    0.124876
    22  H    0.125928
    23  H    0.148141
    24  H    0.147783
    25  H    0.161878
    26  H    0.136131
    27  H    0.150856
    28  H    0.131120
    29  H    0.119073
    30  H    0.120121
    31  H    0.121407
    32  H    0.111321
    33  H    0.231465
 Sum of Mulliken charges =  -0.00000
 Mulliken charges with hydrogens summed into heavy atoms:
               1
     1  N   -0.354652
     2  S    0.534297
     3  C    0.082965
     4  C   -0.064512
     5  C    0.007656
     6  C    0.023659
     7  C    0.011075
     8  C   -0.036137
     9  C    0.068730
    10  C    0.071540
    11  C    0.081680
    12  C   -0.069843
    13  C    0.005680
    14  C   -0.010396
    15  C    0.030775
    16  C   -0.077411
    17  N   -0.305105
 Electronic spatial extent (au):  <R**2>=           4209.9466
 Charge=              0.0000 electrons
 Dipole moment (field-independent basis, Debye):
    X=              0.0330    Y=              3.6296    Z=              2.5513  Tot=              4.4367
 Quadrupole moment (field-independent basis, Debye-Ang):
   XX=            -99.6934   YY=           -109.8942   ZZ=           -109.9247
   XY=             -6.5546   XZ=             -3.9873   YZ=             -8.5437
 Traceless Quadrupole moment (field-independent basis, Debye-Ang):
   XX=              6.8107   YY=             -3.3901   ZZ=             -3.4206
   XY=             -6.5546   XZ=             -3.9873   YZ=             -8.5437
 Octapole moment (field-independent basis, Debye-Ang**2):
  XXX=              0.3094  YYY=             44.2786  ZZZ=              9.5676  XYY=              5.6914
  XXY=              8.5630  XXZ=             -5.1261  XZZ=            -11.9935  YZZ=             -5.6184
  YYZ=             -0.5239  XYZ=            -15.2020
 Hexadecapole moment (field-independent basis, Debye-Ang**3):
 XXXX=          -3352.1990 YYYY=          -1675.0761 ZZZZ=           -675.3272 XXXY=            -73.0427
 XXXZ=           -166.2480 YYYX=            -76.0581 YYYZ=            -37.0280 ZZZX=              8.6339
 ZZZY=            -16.9995 XXYY=           -812.9273 XXZZ=           -698.1075 YYZZ=           -371.1025
 XXYZ=             -9.8336 YYXZ=              8.8226 ZZXY=             24.6270
 N-N= 1.332479107351D+03 E-N=-5.124511044503D+03  KE= 1.045814819647D+03
 Breneman (CHELPG) radii used.
 Read replacement radii for each type of atom:
 Atom Element Radius
    1     7    1.70
    2    16    2.00
    3     6    1.50
    4     6    1.50
    5     6    1.50
    6     6    1.50
    7     6    1.50
    8     6    1.50
    9     6    1.50
   10     6    1.50
   11     6    1.50
   12     6    1.50
   13     6    1.50
   14     6    1.50
   15     6    1.50
   16     6    1.50
   17     7    1.70
   18     1    1.45
   19     1    1.45
   20     1    1.45
   21     1    1.45
   22     1    1.45
   23     1    1.45
   24     1    1.45
   25     1    1.45
   26     1    1.45
   27     1    1.45
   28     1    1.45
   29     1    1.45
   30     1    1.45
   31     1    1.45
   32     1    1.45
   33     1    1.45
 Generate Potential Derived Charges using the Breneman model, NDens= 1.
 Grid spacing= 0.300 Box extension= 2.800
 NStep X,Y,Z=   51     40     35   Total possible points=       71400
 Number of Points to Fit=   18959

 **********************************************************************

            Electrostatic Properties Using The SCF Density.

 **********************************************************************

       Atomic Center    1 is at  -1.560047 -2.778152 -0.665533
       Atomic Center    2 is at  -0.656122 -1.535465 -0.544767
       Atomic Center    3 is at  -1.654563 -0.035488 -0.257765
       Atomic Center    4 is at  -1.356983  1.143595 -0.932289
       Atomic Center    5 is at  -2.154272  2.269139 -0.723220
       Atomic Center    6 is at  -3.239405  2.203259  0.149417
       Atomic Center    7 is at  -3.544689  1.007048  0.802309
       Atomic Center    8 is at  -2.758154 -0.122342  0.590622
       Atomic Center    9 is at   0.051946 -1.791921  1.105944
       Atomic Center   10 is at   0.686951 -0.569298  1.748402
       Atomic Center   11 is at   1.778552  0.088333  0.942439
       Atomic Center   12 is at   1.681588  1.435383  0.578994
       Atomic Center   13 is at   2.679773  2.046004 -0.180611
       Atomic Center   14 is at   3.793900  1.315274 -0.586322
       Atomic Center   15 is at   3.906981 -0.026641 -0.220779
       Atomic Center   16 is at   2.909314 -0.632142  0.537162
       Atomic Center   17 is at   0.374991 -1.293784 -1.664801
       Atomic Center   18 is at  -1.888768 -2.826119 -1.633397
       Atomic Center   19 is at  -0.513710  1.169726 -1.625464
       Atomic Center   20 is at  -1.929947  3.199664 -1.250177
       Atomic Center   21 is at  -3.861983  3.086220  0.312227
       Atomic Center   22 is at  -4.409152  0.951949  1.468247
       Atomic Center   23 is at  -3.004430 -1.080175  1.056042
       Atomic Center   24 is at   0.768464 -2.603935  0.909140
       Atomic Center   25 is at  -0.765473 -2.203376  1.713734
       Atomic Center   26 is at   1.094299 -0.894041  2.721417
       Atomic Center   27 is at  -0.094361  0.171257  1.977194
       Atomic Center   28 is at   0.805083  2.010262  0.888958
       Atomic Center   29 is at   2.583180  3.098672 -0.457370
       Atomic Center   30 is at   4.574681  1.788931 -1.185819
       Atomic Center   31 is at   4.777538 -0.607647 -0.533842
       Atomic Center   32 is at   3.005726 -1.687114  0.806859
       Atomic Center   33 is at   0.966586 -0.484491 -1.464954
   18959 points will be used for fitting atomic charges
 Fitting point charges to electrostatic potential
 Charges from ESP fit, RMS=   0.00359 RRMS=   0.21468:
 ESP charges:
               1
     1  N   -0.800261
     2  S    0.699208
     3  C   -0.017493
     4  C    0.006184
     5  C   -0.099661
     6  C   -0.094102
     7  C   -0.092405
     8  C   -0.087292
     9  C    0.021449
    10  C   -0.191654
    11  C    0.161928
    12  C   -0.140396
    13  C   -0.080963
    14  C   -0.125788
    15  C   -0.061358
    16  C   -0.186334
    17  N   -0.789006
    18  H    0.360189
    19  H    0.034766
    20  H    0.099205
    21  H    0.098263
    22  H    0.098796
    23  H    0.101635
    24  H    0.075258
    25  H    0.068581
    26  H    0.061357
    27  H    0.048359
    28  H    0.067759
    29  H    0.098494
    30  H    0.100062
    31  H    0.094161
    32  H    0.115038
    33  H    0.356022
 Sum of ESP charges =  -0.00000
 ESP charges with hydrogens summed into heavy atoms:
               1
     1  N   -0.440072
     2  S    0.699208
     3  C   -0.017493
     4  C    0.040950
     5  C   -0.000455
     6  C    0.004160
     7  C    0.006391
     8  C    0.014343
     9  C    0.165289
    10  C   -0.081939
    11  C    0.161928
    12  C   -0.072636
    13  C    0.017531
    14  C   -0.025726
    15  C    0.032803
    16  C   -0.071296
    17  N   -0.432985
 Charge=  -0.00000 Dipole=     0.0570     3.6731     2.5858 Tot=     4.4924
 -----------------------------------------------------------------

              Electrostatic Properties (Atomic Units)

 -----------------------------------------------------------------
    Center     Electric         -------- Electric Field --------
               Potential          X             Y             Z
 -----------------------------------------------------------------
    1 Atom    -18.435111
    2 Atom    -59.081594
    3 Atom    -14.734514
    4 Atom    -14.744512
    5 Atom    -14.745832
    6 Atom    -14.744798
    7 Atom    -14.745705
    8 Atom    -14.743841
    9 Atom    -14.729409
   10 Atom    -14.737215
   11 Atom    -14.742959
   12 Atom    -14.756052
   13 Atom    -14.754732
   14 Atom    -14.756333
   15 Atom    -14.755703
   16 Atom    -14.756245
   17 Atom    -18.433535
   18 Atom     -1.059234
   19 Atom     -1.088047
   20 Atom     -1.088236
   21 Atom     -1.087558
   22 Atom     -1.088327
   23 Atom     -1.087006
   24 Atom     -1.083001
   25 Atom     -1.083596
   26 Atom     -1.092815
   27 Atom     -1.099683
   28 Atom     -1.095908
   29 Atom     -1.095448
   30 Atom     -1.097003
   31 Atom     -1.097756
   32 Atom     -1.095506
   33 Atom     -1.053262
 -----------------------------------------------------------------
 Unable to Open any file for archive entry.
 1\1\GINC-NOTCH398\SP\RPBE1PBE\def2TZVP\C14H16N2S1\U1414944\06-Jun-2025
 \0\\#N Guess=Read Geom=Check Integral(Ultrafine) Density Pop=(ChelpG,R
 eadRadii) NMR pbe1pbe EmpiricalDispersion=GD3BJ def2TZVP\\SDI0241_6\\0
 ,1\N,0,3.2070721411,0.288787503,0.4192210541\S,0,1.6916925036,0.007381
 0378,0.4384657963\C,0,0.7540164544,1.4807719048,-0.0898044541\C,0,-0.3
 982041205,1.8588317024,0.5908072759\C,0,-1.0807589078,3.0079838078,0.1
 910611701\C,0,-0.603549424,3.7672672491,-0.8762282624\C,0,0.5686377342
 ,3.3927399552,-1.536602858\C,0,1.2594342007,2.2518973323,-1.1362916409
 \C,0,1.5248177086,-1.0447735603,-1.0302410063\C,0,0.1138382399,-1.1983
 873997,-1.5746030822\C,0,-0.9029981625,-1.7200484288,-0.5909563432\C,0
 ,-2.0542510759,-0.9816530524,-0.2986802821\C,0,-2.9911425539,-1.450309
 6633,0.6226373783\C,0,-2.789545049,-2.6697731827,1.2645996123\C,0,-1.6
 499736075,-3.4205439882,0.973285635\C,0,-0.7178229594,-2.9498062546,0.
 0535301913\N,0,1.0933202992,-0.580637852,1.7316265648\H,0,3.4463782373
 ,0.7437189211,1.304030534\H,0,-0.7456223023,1.2608230965,1.4357752513\
 H,0,-1.9858579622,3.3145798457,0.7208517484\H,0,-1.1401661893,4.666447
 0384,-1.1880749319\H,0,0.9528094859,4.0021108365,-2.3581169452\H,0,2.2
 020531114,1.964651297,-1.609228774\H,0,1.9590038786,-1.9894358354,-0.6
 688670859\H,0,2.2130449854,-0.6198998573,-1.7736821815\H,0,0.176152854
 8,-1.8848866482,-2.4365677417\H,0,-0.2298888028,-0.2337460545,-1.97775
 98844\H,0,-2.2123322945,-0.0205048395,-0.7946946037\H,0,-3.8822516263,
 -0.8563431291,0.8398115564\H,0,-3.518504443,-3.0370500537,1.9906116341
 \H,0,-1.483638297,-4.3785085071,1.4713624941\H,0,0.1758369305,-3.54325
 26276,-0.1566839772\H,0,0.0983438421,-0.7897882407,1.6259984602\\Versi
 on=ES64L-G16RevC.01\State=1-A\HF=-1050.0899824\RMSD=3.519e-09\Dipole=-
 1.348641,0.4135875,-1.0281335\Quadrupole=-5.684227,7.1299433,-1.445716
 3,-1.4219431,-6.683204,-1.6759298\PG=C01 [X(C14H16N2S1)]\\@
 The archive entry for this job was punched.


 BRING ME INTO THE COMPANY OF THOSE WHO SEEK TRUTH,
 AND DELIVER ME FROM THOSE WHO HAVE FOUND IT.
 Job cpu time:       0 days  0 hours 56 minutes 21.4 seconds.
 Elapsed time:       0 days  0 hours  3 minutes 49.3 seconds.
 File lengths (MBytes):  RWF=    238 Int=      0 D2E=      0 Chk=     37 Scr=      2
 Normal termination of Gaussian 16 at Fri Jun  6 22:45:19 2025.
