 Entering Gaussian System, Link 0=g16
 Input=SDI1023_3.com
 Output=SDI1023_3.log
 Initial command:
 /uufs/chpc.utah.edu/sys/installdir/gaussian16/C01/AVX/g16/l1.exe "/scratch/general/vast/u1414944/3351098-notchpeak.peaks/Gau-1319241.inp" -scrdir="/scratch/general/vast/u1414944/3351098-notchpeak.peaks/"
 Entering Link 1 = /uufs/chpc.utah.edu/sys/installdir/gaussian16/C01/AVX/g16/l1.exe PID=   1319242.
  
 Copyright (c) 1988-2019, Gaussian, Inc.  All Rights Reserved.
  
 This is part of the Gaussian(R) 16 program.  It is based on
 the Gaussian(R) 09 system (copyright 2009, Gaussian, Inc.),
 the Gaussian(R) 03 system (copyright 2003, Gaussian, Inc.),
 the Gaussian(R) 98 system (copyright 1998, Gaussian, Inc.),
 the Gaussian(R) 94 system (copyright 1995, Gaussian, Inc.),
 the Gaussian 92(TM) system (copyright 1992, Gaussian, Inc.),
 the Gaussian 90(TM) system (copyright 1990, Gaussian, Inc.),
 the Gaussian 88(TM) system (copyright 1988, Gaussian, Inc.),
 the Gaussian 86(TM) system (copyright 1986, Carnegie Mellon
 University), and the Gaussian 82(TM) system (copyright 1983,
 Carnegie Mellon University). Gaussian is a federally registered
 trademark of Gaussian, Inc.
  
 This software contains proprietary and confidential information,
 including trade secrets, belonging to Gaussian, Inc.
  
 This software is provided under written license and may be
 used, copied, transmitted, or stored only in accord with that
 written license.
  
 The following legend is applicable only to US Government
 contracts under FAR:
  
                    RESTRICTED RIGHTS LEGEND
  
 Use, reproduction and disclosure by the US Government is
 subject to restrictions as set forth in subparagraphs (a)
 and (c) of the Commercial Computer Software - Restricted
 Rights clause in FAR 52.227-19.
  
 Gaussian, Inc.
 340 Quinnipiac St., Bldg. 40, Wallingford CT 06492
  
  
 ---------------------------------------------------------------
 Warning -- This program may not be used in any manner that
 competes with the business of Gaussian, Inc. or will provide
 assistance to any competitor of Gaussian, Inc.  The licensee
 of this program is prohibited from giving any competitor of
 Gaussian, Inc. access to this program.  By using this program,
 the user acknowledges that Gaussian, Inc. is engaged in the
 business of creating and licensing software in the field of
 computational chemistry and represents and warrants to the
 licensee that it is not a competitor of Gaussian, Inc. and that
 it will not use this program in any manner prohibited above.
 ---------------------------------------------------------------
  

 Cite this work as:
 Gaussian 16, Revision C.01,
 M. J. Frisch, G. W. Trucks, H. B. Schlegel, G. E. Scuseria, 
 M. A. Robb, J. R. Cheeseman, G. Scalmani, V. Barone, 
 G. A. Petersson, H. Nakatsuji, X. Li, M. Caricato, A. V. Marenich, 
 J. Bloino, B. G. Janesko, R. Gomperts, B. Mennucci, H. P. Hratchian, 
 J. V. Ortiz, A. F. Izmaylov, J. L. Sonnenberg, D. Williams-Young, 
 F. Ding, F. Lipparini, F. Egidi, J. Goings, B. Peng, A. Petrone, 
 T. Henderson, D. Ranasinghe, V. G. Zakrzewski, J. Gao, N. Rega, 
 G. Zheng, W. Liang, M. Hada, M. Ehara, K. Toyota, R. Fukuda, 
 J. Hasegawa, M. Ishida, T. Nakajima, Y. Honda, O. Kitao, H. Nakai, 
 T. Vreven, K. Throssell, J. A. Montgomery, Jr., J. E. Peralta, 
 F. Ogliaro, M. J. Bearpark, J. J. Heyd, E. N. Brothers, K. N. Kudin, 
 V. N. Staroverov, T. A. Keith, R. Kobayashi, J. Normand, 
 K. Raghavachari, A. P. Rendell, J. C. Burant, S. S. Iyengar, 
 J. Tomasi, M. Cossi, J. M. Millam, M. Klene, C. Adamo, R. Cammi, 
 J. W. Ochterski, R. L. Martin, K. Morokuma, O. Farkas, 
 J. B. Foresman, and D. J. Fox, Gaussian, Inc., Wallingford CT, 2019.
 
 ******************************************
 Gaussian 16:  ES64L-G16RevC.01  3-Jul-2019
                24-Feb-2025 
 ******************************************
 %NProcShared=16
 Will use up to   16 processors via shared memory.
 %Mem=40GB
 %chk=SDI1023_3.chk
 ----------------------------------------------------------------------
 #N OPT FREQ=NORAMAN Integral(Ultrafine) pbe1pbe EmpiricalDispersion=GD
 3BJ def2SVP
 ----------------------------------------------------------------------
 1/18=20,19=15,26=4,38=1/1,3;
 2/9=110,12=2,17=6,18=5,40=1/2;
 3/5=43,7=101,11=2,25=1,30=1,71=1,74=-13,75=-5,124=41/1,2,3;
 4//1;
 5/5=2,38=5/2;
 6/7=2,8=2,9=2,10=2,28=1/1;
 7//1,2,3,16;
 1/18=20,19=15,26=4/3(2);
 2/9=110/2;
 99//99;
 2/9=110/2;
 3/5=43,7=101,11=2,25=1,30=1,71=1,74=-13,75=-5,124=41/1,2,3;
 4/5=5,16=3,69=1/1;
 5/5=2,38=5/2;
 7//1,2,3,16;
 1/18=20,19=15,26=4/3(-5);
 2/9=110/2;
 6/7=2,8=2,9=2,10=2,19=2,28=1/1;
 99/9=1/99;
 ---------
 SDI1023_3
 ---------
 Symbolic Z-matrix:
 Charge =  0 Multiplicity = 1
 N                    -3.17378   0.74992   1.74745 
 S                    -2.74666   0.93292   0.27522 
 C                    -0.9809    0.64156   0.02268 
 C                    -0.18241   1.77107   0.0115 
 C                     1.19337   1.65981  -0.0537 
 C                     1.73944   0.3895   -0.09618 
 Br                    3.63184   0.18813  -0.16918 
 C                     0.94797  -0.74582  -0.09845 
 C                    -0.43727  -0.63912  -0.04085 
 C                    -1.3485   -1.84755  -0.07662 
 C                    -1.84858  -2.13641   1.34466 
 C                    -0.63482  -3.09455  -0.61174 
 C                    -2.51185  -1.52491  -1.03739 
 C                    -3.52681  -0.55051  -0.47642 
 N                    -2.95373   2.2437   -0.4986 
 H                    -3.00586   1.5578    2.32569 
 H                    -0.66468   2.7351    0.03475 
 H                     1.82427   2.53449  -0.06664 
 H                     1.425    -1.71049  -0.14768 
 H                    -1.01042  -2.42587   1.97522 
 H                    -2.31997  -1.26072   1.78413 
 H                    -2.56398  -2.95562   1.32872 
 H                    -1.35096  -3.90734  -0.71047 
 H                     0.1439   -3.42756   0.06903 
 H                    -0.19645  -2.90529  -1.58933 
 H                    -3.03401  -2.45111  -1.29163 
 H                    -2.09077  -1.11928  -1.96158 
 H                    -4.19153  -0.18664  -1.25799 
 H                    -4.10845  -0.9794    0.33416 
 H                    -3.80542   2.72802  -0.26586 
 

 GradGradGradGradGradGradGradGradGradGradGradGradGradGradGradGradGradGrad
 Berny optimization.
 Initialization pass.
                           ----------------------------
                           !    Initial Parameters    !
                           ! (Angstroms and Degrees)  !
 --------------------------                            --------------------------
 ! Name  Definition              Value          Derivative Info.                !
 --------------------------------------------------------------------------------
 ! R1    R(1,2)                  1.5438         estimate D2E/DX2                !
 ! R2    R(1,16)                 1.0076         estimate D2E/DX2                !
 ! R3    R(2,3)                  1.8074         estimate D2E/DX2                !
 ! R4    R(2,14)                 1.8369         estimate D2E/DX2                !
 ! R5    R(2,15)                 1.5362         estimate D2E/DX2                !
 ! R6    R(3,4)                  1.3833         estimate D2E/DX2                !
 ! R7    R(3,9)                  1.3927         estimate D2E/DX2                !
 ! R8    R(4,5)                  1.3818         estimate D2E/DX2                !
 ! R9    R(4,17)                 1.0782         estimate D2E/DX2                !
 ! R10   R(5,6)                  1.3834         estimate D2E/DX2                !
 ! R11   R(5,18)                 1.0786         estimate D2E/DX2                !
 ! R12   R(6,7)                  1.9045         estimate D2E/DX2                !
 ! R13   R(6,8)                  1.384          estimate D2E/DX2                !
 ! R14   R(8,9)                  1.3905         estimate D2E/DX2                !
 ! R15   R(8,19)                 1.0773         estimate D2E/DX2                !
 ! R16   R(9,10)                 1.5139         estimate D2E/DX2                !
 ! R17   R(10,11)                1.5341         estimate D2E/DX2                !
 ! R18   R(10,12)                1.5332         estimate D2E/DX2                !
 ! R19   R(10,13)                1.5429         estimate D2E/DX2                !
 ! R20   R(11,20)                1.0881         estimate D2E/DX2                !
 ! R21   R(11,21)                1.0873         estimate D2E/DX2                !
 ! R22   R(11,22)                1.0877         estimate D2E/DX2                !
 ! R23   R(12,23)                1.0878         estimate D2E/DX2                !
 ! R24   R(12,24)                1.0866         estimate D2E/DX2                !
 ! R25   R(12,25)                1.088          estimate D2E/DX2                !
 ! R26   R(13,14)                1.5147         estimate D2E/DX2                !
 ! R27   R(13,26)                1.0932         estimate D2E/DX2                !
 ! R28   R(13,27)                1.0936         estimate D2E/DX2                !
 ! R29   R(14,28)                1.0886         estimate D2E/DX2                !
 ! R30   R(14,29)                1.0859         estimate D2E/DX2                !
 ! R31   R(15,30)                1.007          estimate D2E/DX2                !
 ! A1    A(2,1,16)             113.9617         estimate D2E/DX2                !
 ! A2    A(1,2,3)              112.6085         estimate D2E/DX2                !
 ! A3    A(1,2,14)             100.1942         estimate D2E/DX2                !
 ! A4    A(1,2,15)             122.9718         estimate D2E/DX2                !
 ! A5    A(3,2,14)             103.154          estimate D2E/DX2                !
 ! A6    A(3,2,15)             101.4705         estimate D2E/DX2                !
 ! A7    A(14,2,15)            115.1961         estimate D2E/DX2                !
 ! A8    A(2,3,4)              115.6863         estimate D2E/DX2                !
 ! A9    A(2,3,9)              122.4089         estimate D2E/DX2                !
 ! A10   A(4,3,9)              121.679          estimate D2E/DX2                !
 ! A11   A(3,4,5)              120.6207         estimate D2E/DX2                !
 ! A12   A(3,4,17)             118.1458         estimate D2E/DX2                !
 ! A13   A(5,4,17)             121.222          estimate D2E/DX2                !
 ! A14   A(4,5,6)              117.9309         estimate D2E/DX2                !
 ! A15   A(4,5,18)             121.1757         estimate D2E/DX2                !
 ! A16   A(6,5,18)             120.8928         estimate D2E/DX2                !
 ! A17   A(5,6,7)              119.374          estimate D2E/DX2                !
 ! A18   A(5,6,8)              121.8432         estimate D2E/DX2                !
 ! A19   A(7,6,8)              118.7806         estimate D2E/DX2                !
 ! A20   A(6,8,9)              120.4438         estimate D2E/DX2                !
 ! A21   A(6,8,19)             118.7777         estimate D2E/DX2                !
 ! A22   A(9,8,19)             120.7784         estimate D2E/DX2                !
 ! A23   A(3,9,8)              117.4706         estimate D2E/DX2                !
 ! A24   A(3,9,10)             120.0089         estimate D2E/DX2                !
 ! A25   A(8,9,10)             122.5056         estimate D2E/DX2                !
 ! A26   A(9,10,11)            108.9417         estimate D2E/DX2                !
 ! A27   A(9,10,12)            112.1656         estimate D2E/DX2                !
 ! A28   A(9,10,13)            107.5555         estimate D2E/DX2                !
 ! A29   A(11,10,12)           108.7803         estimate D2E/DX2                !
 ! A30   A(11,10,13)           111.746          estimate D2E/DX2                !
 ! A31   A(12,10,13)           107.6809         estimate D2E/DX2                !
 ! A32   A(10,11,20)           109.6261         estimate D2E/DX2                !
 ! A33   A(10,11,21)           111.3546         estimate D2E/DX2                !
 ! A34   A(10,11,22)           110.0364         estimate D2E/DX2                !
 ! A35   A(20,11,21)           108.3            estimate D2E/DX2                !
 ! A36   A(20,11,22)           108.3475         estimate D2E/DX2                !
 ! A37   A(21,11,22)           109.1076         estimate D2E/DX2                !
 ! A38   A(10,12,23)           109.448          estimate D2E/DX2                !
 ! A39   A(10,12,24)           111.3572         estimate D2E/DX2                !
 ! A40   A(10,12,25)           111.0809         estimate D2E/DX2                !
 ! A41   A(23,12,24)           107.4382         estimate D2E/DX2                !
 ! A42   A(23,12,25)           108.2822         estimate D2E/DX2                !
 ! A43   A(24,12,25)           109.117          estimate D2E/DX2                !
 ! A44   A(10,13,14)           114.1505         estimate D2E/DX2                !
 ! A45   A(10,13,26)           109.1342         estimate D2E/DX2                !
 ! A46   A(10,13,27)           108.2687         estimate D2E/DX2                !
 ! A47   A(14,13,26)           108.1254         estimate D2E/DX2                !
 ! A48   A(14,13,27)           109.4133         estimate D2E/DX2                !
 ! A49   A(26,13,27)           107.5557         estimate D2E/DX2                !
 ! A50   A(2,14,13)            112.7353         estimate D2E/DX2                !
 ! A51   A(2,14,28)            106.4498         estimate D2E/DX2                !
 ! A52   A(2,14,29)            103.9454         estimate D2E/DX2                !
 ! A53   A(13,14,28)           110.9945         estimate D2E/DX2                !
 ! A54   A(13,14,29)           112.4123         estimate D2E/DX2                !
 ! A55   A(28,14,29)           109.9289         estimate D2E/DX2                !
 ! A56   A(2,15,30)            114.0762         estimate D2E/DX2                !
 ! D1    D(16,1,2,3)            82.5419         estimate D2E/DX2                !
 ! D2    D(16,1,2,14)         -168.4712         estimate D2E/DX2                !
 ! D3    D(16,1,2,15)          -39.2555         estimate D2E/DX2                !
 ! D4    D(1,2,3,4)            -96.7349         estimate D2E/DX2                !
 ! D5    D(1,2,3,9)             77.8865         estimate D2E/DX2                !
 ! D6    D(14,2,3,4)           156.1551         estimate D2E/DX2                !
 ! D7    D(14,2,3,9)           -29.2234         estimate D2E/DX2                !
 ! D8    D(15,2,3,4)            36.583          estimate D2E/DX2                !
 ! D9    D(15,2,3,9)          -148.7956         estimate D2E/DX2                !
 ! D10   D(1,2,14,13)         -115.7184         estimate D2E/DX2                !
 ! D11   D(1,2,14,28)          122.3596         estimate D2E/DX2                !
 ! D12   D(1,2,14,29)            6.2868         estimate D2E/DX2                !
 ! D13   D(3,2,14,13)            0.5866         estimate D2E/DX2                !
 ! D14   D(3,2,14,28)         -121.3355         estimate D2E/DX2                !
 ! D15   D(3,2,14,29)          122.5918         estimate D2E/DX2                !
 ! D16   D(15,2,14,13)         110.1984         estimate D2E/DX2                !
 ! D17   D(15,2,14,28)         -11.7236         estimate D2E/DX2                !
 ! D18   D(15,2,14,29)        -127.7964         estimate D2E/DX2                !
 ! D19   D(1,2,15,30)          -36.0346         estimate D2E/DX2                !
 ! D20   D(3,2,15,30)         -162.8479         estimate D2E/DX2                !
 ! D21   D(14,2,15,30)          86.5369         estimate D2E/DX2                !
 ! D22   D(2,3,4,5)            174.174          estimate D2E/DX2                !
 ! D23   D(2,3,4,17)            -7.0456         estimate D2E/DX2                !
 ! D24   D(9,3,4,5)             -0.4902         estimate D2E/DX2                !
 ! D25   D(9,3,4,17)           178.2901         estimate D2E/DX2                !
 ! D26   D(2,3,9,8)           -173.4612         estimate D2E/DX2                !
 ! D27   D(2,3,9,10)             7.9103         estimate D2E/DX2                !
 ! D28   D(4,3,9,8)              0.8421         estimate D2E/DX2                !
 ! D29   D(4,3,9,10)          -177.7864         estimate D2E/DX2                !
 ! D30   D(3,4,5,6)             -0.5045         estimate D2E/DX2                !
 ! D31   D(3,4,5,18)           179.7702         estimate D2E/DX2                !
 ! D32   D(17,4,5,6)          -179.247          estimate D2E/DX2                !
 ! D33   D(17,4,5,18)            1.0277         estimate D2E/DX2                !
 ! D34   D(4,5,6,7)           -179.4022         estimate D2E/DX2                !
 ! D35   D(4,5,6,8)              1.1461         estimate D2E/DX2                !
 ! D36   D(18,5,6,7)             0.3239         estimate D2E/DX2                !
 ! D37   D(18,5,6,8)          -179.1278         estimate D2E/DX2                !
 ! D38   D(5,6,8,9)             -0.7962         estimate D2E/DX2                !
 ! D39   D(5,6,8,19)           179.0763         estimate D2E/DX2                !
 ! D40   D(7,6,8,9)            179.7489         estimate D2E/DX2                !
 ! D41   D(7,6,8,19)            -0.3786         estimate D2E/DX2                !
 ! D42   D(6,8,9,3)             -0.208          estimate D2E/DX2                !
 ! D43   D(6,8,9,10)           178.3837         estimate D2E/DX2                !
 ! D44   D(19,8,9,3)           179.922          estimate D2E/DX2                !
 ! D45   D(19,8,9,10)           -1.4863         estimate D2E/DX2                !
 ! D46   D(3,9,10,11)          -78.8276         estimate D2E/DX2                !
 ! D47   D(3,9,10,12)          160.6851         estimate D2E/DX2                !
 ! D48   D(3,9,10,13)           42.4652         estimate D2E/DX2                !
 ! D49   D(8,9,10,11)          102.6154         estimate D2E/DX2                !
 ! D50   D(8,9,10,12)          -17.8719         estimate D2E/DX2                !
 ! D51   D(8,9,10,13)         -136.0919         estimate D2E/DX2                !
 ! D52   D(9,10,11,20)         -65.176          estimate D2E/DX2                !
 ! D53   D(9,10,11,21)          54.6493         estimate D2E/DX2                !
 ! D54   D(9,10,11,22)         175.7608         estimate D2E/DX2                !
 ! D55   D(12,10,11,20)         57.3727         estimate D2E/DX2                !
 ! D56   D(12,10,11,21)        177.198          estimate D2E/DX2                !
 ! D57   D(12,10,11,22)        -61.6905         estimate D2E/DX2                !
 ! D58   D(13,10,11,20)        176.1241         estimate D2E/DX2                !
 ! D59   D(13,10,11,21)        -64.0506         estimate D2E/DX2                !
 ! D60   D(13,10,11,22)         57.0609         estimate D2E/DX2                !
 ! D61   D(9,10,12,23)        -174.4976         estimate D2E/DX2                !
 ! D62   D(9,10,12,24)          66.8615         estimate D2E/DX2                !
 ! D63   D(9,10,12,25)         -54.9824         estimate D2E/DX2                !
 ! D64   D(11,10,12,23)         64.9216         estimate D2E/DX2                !
 ! D65   D(11,10,12,24)        -53.7192         estimate D2E/DX2                !
 ! D66   D(11,10,12,25)       -175.5632         estimate D2E/DX2                !
 ! D67   D(13,10,12,23)        -56.352          estimate D2E/DX2                !
 ! D68   D(13,10,12,24)       -174.9928         estimate D2E/DX2                !
 ! D69   D(13,10,12,25)         63.1632         estimate D2E/DX2                !
 ! D70   D(9,10,13,14)         -73.8262         estimate D2E/DX2                !
 ! D71   D(9,10,13,26)         165.08           estimate D2E/DX2                !
 ! D72   D(9,10,13,27)          48.2883         estimate D2E/DX2                !
 ! D73   D(11,10,13,14)         45.6946         estimate D2E/DX2                !
 ! D74   D(11,10,13,26)        -75.3992         estimate D2E/DX2                !
 ! D75   D(11,10,13,27)        167.8091         estimate D2E/DX2                !
 ! D76   D(12,10,13,14)        165.0972         estimate D2E/DX2                !
 ! D77   D(12,10,13,26)         44.0034         estimate D2E/DX2                !
 ! D78   D(12,10,13,27)        -72.7884         estimate D2E/DX2                !
 ! D79   D(10,13,14,2)          47.8939         estimate D2E/DX2                !
 ! D80   D(10,13,14,28)        167.2127         estimate D2E/DX2                !
 ! D81   D(10,13,14,29)        -69.2012         estimate D2E/DX2                !
 ! D82   D(26,13,14,2)         169.5454         estimate D2E/DX2                !
 ! D83   D(26,13,14,28)        -71.1357         estimate D2E/DX2                !
 ! D84   D(26,13,14,29)         52.4503         estimate D2E/DX2                !
 ! D85   D(27,13,14,2)         -73.5906         estimate D2E/DX2                !
 ! D86   D(27,13,14,28)         45.7282         estimate D2E/DX2                !
 ! D87   D(27,13,14,29)        169.3143         estimate D2E/DX2                !
 --------------------------------------------------------------------------------
 Trust Radius=3.00D-01 FncErr=1.00D-07 GrdErr=1.00D-06 EigMax=2.50D+02 EigMin=1.00D-04
 Number of steps in this run=    180 maximum allowed number of steps=    180.
 GradGradGradGradGradGradGradGradGradGradGradGradGradGradGradGradGradGrad

                          Input orientation:                          
 ---------------------------------------------------------------------
 Center     Atomic      Atomic             Coordinates (Angstroms)
 Number     Number       Type             X           Y           Z
 ---------------------------------------------------------------------
      1          7           0       -3.173776    0.749925    1.747454
      2         16           0       -2.746657    0.932923    0.275218
      3          6           0       -0.980899    0.641557    0.022677
      4          6           0       -0.182410    1.771069    0.011498
      5          6           0        1.193374    1.659808   -0.053701
      6          6           0        1.739442    0.389502   -0.096180
      7         35           0        3.631837    0.188132   -0.169180
      8          6           0        0.947966   -0.745816   -0.098452
      9          6           0       -0.437275   -0.639116   -0.040852
     10          6           0       -1.348504   -1.847553   -0.076622
     11          6           0       -1.848581   -2.136413    1.344662
     12          6           0       -0.634822   -3.094549   -0.611742
     13          6           0       -2.511855   -1.524913   -1.037395
     14          6           0       -3.526808   -0.550514   -0.476419
     15          7           0       -2.953726    2.243702   -0.498603
     16          1           0       -3.005859    1.557802    2.325691
     17          1           0       -0.664680    2.735104    0.034746
     18          1           0        1.824272    2.534492   -0.066637
     19          1           0        1.424999   -1.710494   -0.147682
     20          1           0       -1.010423   -2.425870    1.975218
     21          1           0       -2.319973   -1.260724    1.784135
     22          1           0       -2.563983   -2.955615    1.328720
     23          1           0       -1.350963   -3.907339   -0.710474
     24          1           0        0.143900   -3.427564    0.069033
     25          1           0       -0.196450   -2.905290   -1.589328
     26          1           0       -3.034011   -2.451111   -1.291626
     27          1           0       -2.090768   -1.119279   -1.961577
     28          1           0       -4.191534   -0.186643   -1.257993
     29          1           0       -4.108445   -0.979404    0.334158
     30          1           0       -3.805421    2.728021   -0.265857
 ---------------------------------------------------------------------
                    Distance matrix (angstroms):
                    1          2          3          4          5
     1  N    0.000000
     2  S    1.543826   0.000000
     3  C    2.792008   1.807367   0.000000
     4  C    3.606182   2.710609   1.383295   0.000000
     5  C    4.810826   4.019999   2.402109   1.381815   0.000000
     6  C    5.260095   4.534129   2.734577   2.369354   1.383355
     7  Br   7.092635   6.437189   4.638937   4.133620   2.850486
     8  C    4.757453   4.075296   2.379074   2.761258   2.418523
     9  C    3.551889   2.811487   1.392727   2.424188   2.818551
    10  C    3.661388   3.132039   2.518067   3.802889   4.331656
    11  C    3.201457   3.372103   3.196503   4.452175   5.061640
    12  C    5.176106   4.633258   3.805358   4.926190   5.124219
    13  C    3.656284   2.796255   2.856777   4.170130   4.983856
    14  C    2.600267   1.836894   2.855133   4.100342   5.229180
    15  N    2.706393   1.536169   2.594349   2.857232   4.211568
    16  H    1.007581   2.159189   3.200600   3.656889   4.827574
    17  H    3.629032   2.764112   2.117328   1.078187   2.148592
    18  H    5.608573   4.855439   3.385286   2.148417   1.078551
    19  H    5.549228   4.956734   3.368904   3.838018   3.379559
    20  H    3.849369   4.145600   3.636261   4.707026   5.066161
    21  H    2.184727   2.696475   2.917966   4.111348   4.924505
    22  H    3.778652   4.032861   4.141443   5.454219   6.109906
    23  H    5.572627   5.133001   4.622437   5.842181   6.156145
    24  H    5.592449   5.235617   4.221975   5.209182   5.195942
    25  H    5.775741   4.971114   3.974173   4.942790   5.012971
    26  H    4.416127   3.740222   3.937926   5.258951   6.025188
    27  H    4.292289   3.105636   2.875695   3.986096   4.706262
    28  H    3.308429   2.385756   3.554463   4.638676   5.818671
    29  H    2.421072   2.348389   3.536394   4.804473   5.935078
    30  H    2.892276   2.153164   3.523422   3.757510   5.116057
                    6          7          8          9         10
     6  C    0.000000
     7  Br   1.904479   0.000000
     8  C    1.383975   2.842609   0.000000
     9  C    2.408155   4.154332   1.390537   0.000000
    10  C    3.813162   5.381113   2.547170   1.513915   0.000000
    11  C    4.618460   6.142492   3.440496   2.480591   1.534134
    12  C    4.247534   5.401503   2.878408   2.528654   1.533198
    13  C    4.756510   6.436868   3.668646   2.466093   1.542908
    14  C    5.362984   7.203207   4.494952   3.121343   2.566545
    15  N    5.062195   6.906774   4.931585   3.853920   4.415107
    16  H    5.454197   7.222146   5.178403   4.126088   4.484905
    17  H    3.361367   4.998871   3.838642   3.382719   4.634734
    18  H    2.146870   2.963648   3.395489   3.897056   5.410076
    19  H    2.124032   2.911251   1.077306   2.151122   2.777796
    20  H    4.447332   5.742998   3.310283   2.754183   2.158424
    21  H    4.768404   6.429515   3.806401   2.694722   2.179572
    22  H    5.633792   7.107393   4.387917   3.429983   2.163372
    23  H    5.328302   6.472571   3.956624   3.458974   2.155109
    24  H    4.140416   5.029484   2.804701   2.850488   2.178284
    25  H    4.102782   5.122681   2.862818   2.755235   2.175849
    26  H    5.681903   7.256653   4.493087   3.404527   2.163666
    27  H    4.519583   6.137607   3.583938   2.579492   2.152765
    28  H    6.071098   7.907661   5.298270   3.972484   3.498154
    29  H    6.021368   7.844008   5.080256   3.705931   2.922276
    30  H    6.020212   7.859592   5.889842   4.767876   5.196934
                   11         12         13         14         15
    11  C    0.000000
    12  C    2.493743   0.000000
    13  C    2.547167   2.483584   0.000000
    14  C    2.940724   3.854090   1.514687   0.000000
    15  N    4.878973   5.821258   3.832493   2.852465   0.000000
    16  H    3.993611   5.991218   4.588847   3.545167   2.906856
    17  H    5.181619   5.865466   4.765426   4.387294   2.401181
    18  H    6.107288   6.166878   6.018566   6.190254   4.806290
    19  H    3.622819   2.524642   4.040401   5.096470   5.910333
    20  H    1.088069   2.698253   3.484516   3.982421   5.630374
    21  H    1.087280   3.455846   2.840360   2.659127   4.230075
    22  H    1.087726   2.739773   2.765524   3.157542   5.524844
    23  H    2.758150   1.087765   2.670300   4.007164   6.359957
    24  H    2.695233   1.086628   3.449246   4.695640   6.486968
    25  H    3.453840   1.087963   2.751576   4.227862   5.941748
    26  H    2.907628   2.575338   1.093217   2.125954   4.761996
    27  H    3.467627   2.800630   1.093603   2.142755   3.767576
    28  H    4.008098   4.639371   2.158924   1.088633   2.831151
    29  H    2.732540   4.175479   2.174359   1.085949   3.523532
    30  H    5.485044   6.638874   4.511766   3.297082   1.007035
                   16         17         18         19         20
    16  H    0.000000
    17  H    3.480746   0.000000
    18  H    5.477894   2.499081   0.000000
    19  H    6.035879   4.915626   4.264493   0.000000
    20  H    4.469254   5.524547   6.067112   3.309039   0.000000
    21  H    2.950900   4.665512   5.916400   4.237809   1.763235
    22  H    4.643289   6.137264   7.165548   4.431937   1.764126
    23  H    6.467206   6.719255   7.210675   3.584526   3.086043
    24  H    6.314060   6.215582   6.195819   2.153255   2.443234
    25  H    6.568055   5.888200   5.999428   2.476888   3.687598
    26  H    5.399737   5.854043   7.068222   4.662605   3.842891
    27  H    5.136616   4.568949   5.680526   4.000046   4.286336
    28  H    4.158330   4.758832   6.709235   5.924555   5.058385
    29  H    3.408711   5.074124   6.906898   5.602291   3.792504
    30  H    2.953783   3.155102   5.636540   6.860879   6.276704
                   21         22         23         24         25
    21  H    0.000000
    22  H    1.771892   0.000000
    23  H    3.763858   2.556465   0.000000
    24  H    3.702356   3.023603   1.752835   0.000000
    25  H    4.312100   3.758025   1.763345   1.771658   0.000000
    26  H    3.374489   2.709551   2.300215   3.592210   2.889058
    27  H    3.755383   3.797647   3.144178   3.800698   2.629990
    28  H    3.729737   4.123981   4.712983   5.573200   4.843710
    29  H    2.319527   2.698134   4.155451   4.913880   4.765768
    30  H    4.724310   6.032210   7.088727   7.321237   6.819856
                   26         27         28         29         30
    26  H    0.000000
    27  H    1.764177   0.000000
    28  H    2.543385   2.403759   0.000000
    29  H    2.442029   3.059573   1.780539   0.000000
    30  H    5.335793   4.540618   3.103012   3.767869   0.000000
 Stoichiometry    C11H15BrN2S
 Framework group  C1[X(C11H15BrN2S)]
 Deg. of freedom    84
 Full point group                 C1      NOp   1
 Largest Abelian subgroup         C1      NOp   1
 Largest concise Abelian subgroup C1      NOp   1
                         Standard orientation:                         
 ---------------------------------------------------------------------
 Center     Atomic      Atomic             Coordinates (Angstroms)
 Number     Number       Type             X           Y           Z
 ---------------------------------------------------------------------
      1          7           0        3.024861   -1.036217    1.500193
      2         16           0        2.507822   -1.096713    0.046780
      3          6           0        0.744154   -0.722382   -0.079424
      4          6           0       -0.099711   -1.817644   -0.121832
      5          6           0       -1.471200   -1.650832   -0.097219
      6          6           0       -1.965796   -0.361317   -0.018505
      7         35           0       -3.849339   -0.084898    0.035330
      8          6           0       -1.129448    0.740961    0.011330
      9          6           0        0.251231    0.578891   -0.021094
     10          6           0        1.208165    1.752001   -0.026638
     11          6           0        1.799474    1.918962    1.379080
     12          6           0        0.517493    3.059993   -0.430154
     13          6           0        2.300877    1.456283   -1.075015
     14          6           0        3.304815    0.406913   -0.644658
     15          7           0        2.616335   -2.355175   -0.827471
     16          1           0        2.856707   -1.876816    2.029661
     17          1           0        0.342820   -2.798136   -0.194554
     18          1           0       -2.137449   -2.498218   -0.133573
     19          1           0       -1.568201    1.723770    0.057913
     20          1           0        1.011073    2.193273    2.076985
     21          1           0        2.258389    0.996963    1.727637
     22          1           0        2.546089    2.709982    1.377786
     23          1           0        1.259889    3.850555   -0.514380
     24          1           0       -0.206972    3.371890    0.317263
     25          1           0        0.016991    2.958062   -1.390764
     26          1           0        2.845647    2.378298   -1.294650
     27          1           0        1.811696    1.134201   -1.998558
     28          1           0        3.908579    0.075762   -1.487825
     29          1           0        3.948678    0.754377    0.157834
     30          1           0        3.459089   -2.886367   -0.680094
 ---------------------------------------------------------------------
 Rotational constants (GHZ):           0.7926111           0.2376120           0.1985812
 Standard basis: def2SVP (5D, 7F)
 There are   324 symmetry adapted cartesian basis functions of A   symmetry.
 There are   307 symmetry adapted basis functions of A   symmetry.
   307 basis functions,   547 primitive gaussians,   324 cartesian basis functions
    73 alpha electrons       73 beta electrons
       nuclear repulsion energy      1511.7786579382 Hartrees.
 NAtoms=   30 NActive=   30 NUniq=   30 SFac= 1.00D+00 NAtFMM=   60 NAOKFM=F Big=F
 Integral buffers will be    131072 words long.
 Raffenetti 2 integral format.
 Two-electron integral symmetry is turned on.
 Nuclear repulsion after empirical dispersion term =     1511.7380829900 Hartrees.
 One-electron integrals computed using PRISM.
   1 Symmetry operations used in ECPInt.
 ECPInt:  NShTT=   10296 NPrTT=   39337 LenC2=    9816 LenP2D=   27375.
 LDataN:  DoStor=T MaxTD1= 4 Len=   56
 NBasis=   307 RedAO= T EigKep=  2.16D-04  NBF=   307
 NBsUse=   307 1.00D-06 EigRej= -1.00D+00 NBFU=   307
 ExpMin= 1.22D-01 ExpMax= 1.13D+05 ExpMxC= 1.70D+04 IAcc=3 IRadAn=         5 AccDes= 0.00D+00
 Harris functional with IExCor= 1009 and IRadAn=       5 diagonalized for initial guess.
 HarFok:  IExCor= 1009 AccDes= 0.00D+00 IRadAn=         5 IDoV= 1 UseB2=F ITyADJ=14
 ICtDFT=  3500011 ScaDFX=  1.000000  1.000000  1.000000  1.000000
 FoFCou: FMM=F IPFlag=           0 FMFlag=      100000 FMFlg1=           0
         NFxFlg=           0 DoJE=T BraDBF=F KetDBF=T FulRan=T
         wScrn=  0.000000 ICntrl=       500 IOpCl=  0 I1Cent=   200000004 NGrid=           0
         NMat0=    1 NMatS0=      1 NMatT0=    0 NMatD0=    1 NMtDS0=    0 NMtDT0=    0
 Petite list used in FoFCou.
 Requested convergence on RMS density matrix=1.00D-08 within 128 cycles.
 Requested convergence on MAX density matrix=1.00D-06.
 Requested convergence on             energy=1.00D-06.
 No special actions if energy rises.
 Integral accuracy reduced to 1.0D-05 until final iterations.
 Initial convergence to 1.0D-05 achieved.  Increase integral accuracy.
 SCF Done:  E(RPBE1PBE) =  -3508.07237836     A.U. after   14 cycles
            NFock= 14  Conv=0.90D-08     -V/T= 2.0025

 **********************************************************************

            Population analysis using the SCF Density.

 **********************************************************************

 Orbital symmetries:
       Occupied  (A) (A) (A) (A) (A) (A) (A) (A) (A) (A) (A) (A)
                 (A) (A) (A) (A) (A) (A) (A) (A) (A) (A) (A) (A)
                 (A) (A) (A) (A) (A) (A) (A) (A) (A) (A) (A) (A)
                 (A) (A) (A) (A) (A) (A) (A) (A) (A) (A) (A) (A)
                 (A) (A) (A) (A) (A) (A) (A) (A) (A) (A) (A) (A)
                 (A) (A) (A) (A) (A) (A) (A) (A) (A) (A) (A) (A)
                 (A)
       Virtual   (A) (A) (A) (A) (A) (A) (A) (A) (A) (A) (A) (A)
                 (A) (A) (A) (A) (A) (A) (A) (A) (A) (A) (A) (A)
                 (A) (A) (A) (A) (A) (A) (A) (A) (A) (A) (A) (A)
                 (A) (A) (A) (A) (A) (A) (A) (A) (A) (A) (A) (A)
                 (A) (A) (A) (A) (A) (A) (A) (A) (A) (A) (A) (A)
                 (A) (A) (A) (A) (A) (A) (A) (A) (A) (A) (A) (A)
                 (A) (A) (A) (A) (A) (A) (A) (A) (A) (A) (A) (A)
                 (A) (A) (A) (A) (A) (A) (A) (A) (A) (A) (A) (A)
                 (A) (A) (A) (A) (A) (A) (A) (A) (A) (A) (A) (A)
                 (A) (A) (A) (A) (A) (A) (A) (A) (A) (A) (A) (A)
                 (A) (A) (A) (A) (A) (A) (A) (A) (A) (A) (A) (A)
                 (A) (A) (A) (A) (A) (A) (A) (A) (A) (A) (A) (A)
                 (A) (A) (A) (A) (A) (A) (A) (A) (A) (A) (A) (A)
                 (A) (A) (A) (A) (A) (A) (A) (A) (A) (A) (A) (A)
                 (A) (A) (A) (A) (A) (A) (A) (A) (A) (A) (A) (A)
                 (A) (A) (A) (A) (A) (A) (A) (A) (A) (A) (A) (A)
                 (A) (A) (A) (A) (A) (A) (A) (A) (A) (A) (A) (A)
                 (A) (A) (A) (A) (A) (A) (A) (A) (A) (A) (A) (A)
                 (A) (A) (A) (A) (A) (A) (A) (A) (A) (A) (A) (A)
                 (A) (A) (A) (A) (A) (A)
 The electronic state is 1-A.
 Alpha  occ. eigenvalues -- -483.19790 -89.18389 -62.63161 -56.42154 -56.41804
 Alpha  occ. eigenvalues --  -56.41792 -14.34561 -14.34491 -10.30179 -10.26913
 Alpha  occ. eigenvalues --  -10.26747 -10.26600 -10.26582 -10.25592 -10.25552
 Alpha  occ. eigenvalues --  -10.25500 -10.25436 -10.23364 -10.21817  -8.77770
 Alpha  occ. eigenvalues --   -8.15834  -6.59247  -6.57972  -6.57938  -6.09960
 Alpha  occ. eigenvalues --   -6.09872  -6.09831  -2.67803  -2.67437  -2.67411
 Alpha  occ. eigenvalues --   -2.66386  -2.66386  -1.00904  -0.91699  -0.87348
 Alpha  occ. eigenvalues --   -0.85233  -0.83106  -0.79940  -0.77293  -0.76080
 Alpha  occ. eigenvalues --   -0.71030  -0.69370  -0.65984  -0.64999  -0.61326
 Alpha  occ. eigenvalues --   -0.55856  -0.55158  -0.53215  -0.51436  -0.50054
 Alpha  occ. eigenvalues --   -0.47745  -0.47540  -0.47133  -0.46094  -0.44798
 Alpha  occ. eigenvalues --   -0.42697  -0.42293  -0.41094  -0.40680  -0.39933
 Alpha  occ. eigenvalues --   -0.39554  -0.38644  -0.35744  -0.35384  -0.35250
 Alpha  occ. eigenvalues --   -0.33880  -0.32868  -0.30513  -0.28279  -0.27455
 Alpha  occ. eigenvalues --   -0.26942  -0.25227  -0.23677
 Alpha virt. eigenvalues --   -0.03584  -0.02097   0.00851   0.05436   0.06382
 Alpha virt. eigenvalues --    0.07734   0.08008   0.08725   0.08990   0.10209
 Alpha virt. eigenvalues --    0.11583   0.12020   0.12395   0.13173   0.13958
 Alpha virt. eigenvalues --    0.14526   0.15495   0.16082   0.16717   0.17712
 Alpha virt. eigenvalues --    0.18518   0.20692   0.21481   0.22520   0.23376
 Alpha virt. eigenvalues --    0.24155   0.25600   0.25998   0.26527   0.28430
 Alpha virt. eigenvalues --    0.31043   0.32996   0.33215   0.34468   0.37704
 Alpha virt. eigenvalues --    0.39437   0.41616   0.42527   0.43277   0.44587
 Alpha virt. eigenvalues --    0.45655   0.45768   0.46327   0.47805   0.48620
 Alpha virt. eigenvalues --    0.49843   0.50790   0.51519   0.52572   0.53101
 Alpha virt. eigenvalues --    0.53530   0.54237   0.55584   0.57373   0.57814
 Alpha virt. eigenvalues --    0.58878   0.59635   0.60461   0.60999   0.62454
 Alpha virt. eigenvalues --    0.63300   0.64146   0.64380   0.64860   0.65223
 Alpha virt. eigenvalues --    0.65923   0.66660   0.67344   0.67833   0.68568
 Alpha virt. eigenvalues --    0.69077   0.69552   0.70744   0.70937   0.71564
 Alpha virt. eigenvalues --    0.72135   0.72349   0.73241   0.73434   0.74089
 Alpha virt. eigenvalues --    0.75201   0.75674   0.76649   0.77398   0.77989
 Alpha virt. eigenvalues --    0.78295   0.80295   0.81724   0.81885   0.82781
 Alpha virt. eigenvalues --    0.84979   0.85855   0.87396   0.88397   0.90745
 Alpha virt. eigenvalues --    0.91514   0.95275   0.95892   0.97051   0.98284
 Alpha virt. eigenvalues --    0.99280   1.01328   1.02489   1.02944   1.06108
 Alpha virt. eigenvalues --    1.08868   1.11252   1.12931   1.15205   1.17024
 Alpha virt. eigenvalues --    1.18195   1.19036   1.20607   1.22028   1.24857
 Alpha virt. eigenvalues --    1.25380   1.28029   1.29359   1.29581   1.32826
 Alpha virt. eigenvalues --    1.34143   1.36453   1.38175   1.40511   1.41367
 Alpha virt. eigenvalues --    1.43629   1.47368   1.49498   1.50560   1.52312
 Alpha virt. eigenvalues --    1.54603   1.56397   1.57345   1.59715   1.62600
 Alpha virt. eigenvalues --    1.64405   1.67489   1.68525   1.69965   1.71280
 Alpha virt. eigenvalues --    1.71627   1.73140   1.74568   1.75324   1.76785
 Alpha virt. eigenvalues --    1.77308   1.79550   1.79749   1.81307   1.82885
 Alpha virt. eigenvalues --    1.83513   1.84405   1.84995   1.85825   1.87724
 Alpha virt. eigenvalues --    1.89376   1.91041   1.91723   1.92157   1.93437
 Alpha virt. eigenvalues --    1.95272   1.95752   1.96610   1.97798   1.99294
 Alpha virt. eigenvalues --    2.01229   2.02413   2.04612   2.07363   2.09231
 Alpha virt. eigenvalues --    2.12824   2.14270   2.14796   2.16058   2.16735
 Alpha virt. eigenvalues --    2.17729   2.20268   2.21946   2.23387   2.25496
 Alpha virt. eigenvalues --    2.27023   2.28909   2.30589   2.30809   2.35006
 Alpha virt. eigenvalues --    2.35819   2.36042   2.38503   2.40989   2.42821
 Alpha virt. eigenvalues --    2.44808   2.46668   2.48159   2.48856   2.51275
 Alpha virt. eigenvalues --    2.53374   2.55637   2.57686   2.58551   2.59954
 Alpha virt. eigenvalues --    2.62930   2.63423   2.63569   2.64852   2.66251
 Alpha virt. eigenvalues --    2.68785   2.70158   2.77348   2.79826   2.82862
 Alpha virt. eigenvalues --    2.86040   2.87197   2.87551   2.89939   2.90457
 Alpha virt. eigenvalues --    2.92483   2.94684   2.96189   2.98295   2.99961
 Alpha virt. eigenvalues --    3.02609   3.03869   3.07528   3.09642   3.12742
 Alpha virt. eigenvalues --    3.21567   3.29242   3.32116   3.45061   3.48987
 Alpha virt. eigenvalues --    3.53138   3.53223   3.65720   3.85713
          Condensed to atoms (all electrons):
               1          2          3          4          5          6
     1  N    6.893865   0.312554  -0.021436  -0.010388  -0.000010  -0.000082
     2  S    0.312554  14.795953   0.088057  -0.008541   0.004172   0.000521
     3  C   -0.021436   0.088057   5.985286   0.207970   0.127175  -0.236204
     4  C   -0.010388  -0.008541   0.207970   5.027795   0.263894   0.141982
     5  C   -0.000010   0.004172   0.127175   0.263894   5.113433   0.215585
     6  C   -0.000082   0.000521  -0.236204   0.141982   0.215585   5.461704
     7  Br  -0.000000   0.000005   0.001232   0.002734  -0.063951   0.238728
     8  C    0.000274   0.002103   0.092044  -0.123362   0.071267   0.207777
     9  C   -0.002735  -0.029208   0.161733   0.079766  -0.154469   0.123955
    10  C   -0.000234  -0.042190  -0.124133   0.014275  -0.002929   0.028746
    11  C   -0.031528  -0.006267   0.001341  -0.000790   0.000081  -0.000695
    12  C   -0.000057   0.000115   0.016403  -0.000341   0.000136  -0.001045
    13  C    0.002580  -0.028632   0.021341   0.000467  -0.000172  -0.000398
    14  C   -0.097768   0.244069  -0.135625   0.009270   0.000141  -0.000208
    15  N   -0.039269   0.329813  -0.084766  -0.009821   0.002232  -0.000103
    16  H    0.321597  -0.002959  -0.010048   0.003373   0.000049  -0.000002
    17  H   -0.000063  -0.010287  -0.075604   0.444772  -0.062436   0.014507
    18  H    0.000005  -0.000188   0.016077  -0.063268   0.450653  -0.070732
    19  H    0.000007  -0.000090   0.020320  -0.002474   0.015258  -0.076636
    20  H    0.000615   0.000308  -0.003602  -0.000123  -0.000025  -0.000147
    21  H    0.063081  -0.006244  -0.000150  -0.000853  -0.000005   0.000114
    22  H    0.000397   0.000203   0.000363   0.000013   0.000002   0.000014
    23  H    0.000003   0.000007  -0.000302   0.000006   0.000004  -0.000068
    24  H    0.000000   0.000017  -0.001108   0.000018  -0.000033   0.001448
    25  H    0.000002  -0.000022  -0.000021  -0.000003  -0.000051   0.000380
    26  H   -0.000300   0.005882  -0.000574   0.000060   0.000007  -0.000005
    27  H    0.000196  -0.009937  -0.000269  -0.001094  -0.000147   0.000073
    28  H    0.004553  -0.005051   0.004345  -0.000445  -0.000003   0.000001
    29  H    0.018280  -0.014012   0.007181  -0.000405  -0.000008   0.000011
    30  H   -0.000031  -0.009093   0.008761   0.000796  -0.000060   0.000012
               7          8          9         10         11         12
     1  N   -0.000000   0.000274  -0.002735  -0.000234  -0.031528  -0.000057
     2  S    0.000005   0.002103  -0.029208  -0.042190  -0.006267   0.000115
     3  C    0.001232   0.092044   0.161733  -0.124133   0.001341   0.016403
     4  C    0.002734  -0.123362   0.079766   0.014275  -0.000790  -0.000341
     5  C   -0.063951   0.071267  -0.154469  -0.002929   0.000081   0.000136
     6  C    0.238728   0.207777   0.123955   0.028746  -0.000695  -0.001045
     7  Br  34.913894  -0.070341   0.003127  -0.000098   0.000006  -0.000086
     8  C   -0.070341   5.046964   0.415776  -0.095487  -0.003129   0.002681
     9  C    0.003127   0.415776   5.381453   0.199211  -0.071482  -0.060065
    10  C   -0.000098  -0.095487   0.199211   5.630887   0.353931   0.390679
    11  C    0.000006  -0.003129  -0.071482   0.353931   4.698342  -0.056506
    12  C   -0.000086   0.002681  -0.060065   0.390679  -0.056506   4.549930
    13  C    0.000003   0.008481  -0.073558   0.347260  -0.092291  -0.069464
    14  C   -0.000000  -0.001645  -0.017434  -0.049716   0.012847   0.012744
    15  N    0.000000  -0.000040   0.002985   0.000335  -0.000152   0.000000
    16  H    0.000000  -0.000012  -0.000999  -0.000169   0.000855   0.000005
    17  H   -0.000156  -0.001854   0.016654  -0.000276  -0.000010   0.000007
    18  H   -0.000147   0.014348  -0.001368   0.000024  -0.000000   0.000001
    19  H    0.003504   0.442278  -0.045667  -0.037707   0.000364   0.019303
    20  H    0.000001   0.003214  -0.001579  -0.021878   0.376790  -0.008385
    21  H   -0.000000  -0.000965  -0.005377   0.006448   0.357546   0.006108
    22  H   -0.000000  -0.000163   0.010561  -0.030897   0.386901  -0.005176
    23  H   -0.000001   0.000729   0.011794  -0.023044  -0.006461   0.390369
    24  H   -0.000038   0.005269  -0.021463   0.002552  -0.007192   0.378179
    25  H    0.000028   0.000929  -0.012585  -0.008919   0.009293   0.385431
    26  H   -0.000000  -0.000280   0.012342  -0.021447  -0.006482  -0.006977
    27  H    0.000001   0.000927  -0.008507  -0.022880   0.011274  -0.006320
    28  H    0.000000   0.000064   0.000105   0.006531   0.000185  -0.000298
    29  H   -0.000000   0.000016  -0.000175  -0.012887   0.011112  -0.000013
    30  H    0.000000  -0.000004  -0.000141  -0.000008   0.000011  -0.000000
              13         14         15         16         17         18
     1  N    0.002580  -0.097768  -0.039269   0.321597  -0.000063   0.000005
     2  S   -0.028632   0.244069   0.329813  -0.002959  -0.010287  -0.000188
     3  C    0.021341  -0.135625  -0.084766  -0.010048  -0.075604   0.016077
     4  C    0.000467   0.009270  -0.009821   0.003373   0.444772  -0.063268
     5  C   -0.000172   0.000141   0.002232   0.000049  -0.062436   0.450653
     6  C   -0.000398  -0.000208  -0.000103  -0.000002   0.014507  -0.070732
     7  Br   0.000003  -0.000000   0.000000   0.000000  -0.000156  -0.000147
     8  C    0.008481  -0.001645  -0.000040  -0.000012  -0.001854   0.014348
     9  C   -0.073558  -0.017434   0.002985  -0.000999   0.016654  -0.001368
    10  C    0.347260  -0.049716   0.000335  -0.000169  -0.000276   0.000024
    11  C   -0.092291   0.012847  -0.000152   0.000855  -0.000010  -0.000000
    12  C   -0.069464   0.012744   0.000000   0.000005   0.000007   0.000001
    13  C    4.854683   0.275351  -0.001560  -0.000482  -0.000247  -0.000002
    14  C    0.275351   5.120856  -0.040135   0.009882   0.001628   0.000003
    15  N   -0.001560  -0.040135   6.898985  -0.002001   0.035813  -0.000016
    16  H   -0.000482   0.009882  -0.002001   0.562450   0.000787  -0.000002
    17  H   -0.000247   0.001628   0.035813   0.000787   0.618365  -0.010941
    18  H   -0.000002   0.000003  -0.000016  -0.000002  -0.010941   0.643062
    19  H    0.000656   0.000036   0.000002   0.000000   0.000023  -0.000300
    20  H    0.012294  -0.000960   0.000003  -0.000057   0.000000  -0.000000
    21  H   -0.016187   0.003200   0.000981  -0.002173  -0.000027   0.000001
    22  H   -0.005018  -0.002302   0.000003   0.000009  -0.000001   0.000000
    23  H   -0.011637   0.000751  -0.000000  -0.000000  -0.000000   0.000000
    24  H    0.008860  -0.000635  -0.000000  -0.000000   0.000000   0.000000
    25  H   -0.006616   0.000229  -0.000000  -0.000000   0.000000  -0.000000
    26  H    0.367938  -0.009391  -0.000191   0.000027   0.000004   0.000000
    27  H    0.367965  -0.014479   0.002130  -0.000004   0.000002  -0.000001
    28  H    0.004682   0.332136   0.007068  -0.000562  -0.000078  -0.000000
    29  H    0.013835   0.328225   0.002398  -0.001148  -0.000051  -0.000000
    30  H    0.000473  -0.006370   0.324453   0.001112  -0.001476  -0.000003
              19         20         21         22         23         24
     1  N    0.000007   0.000615   0.063081   0.000397   0.000003   0.000000
     2  S   -0.000090   0.000308  -0.006244   0.000203   0.000007   0.000017
     3  C    0.020320  -0.003602  -0.000150   0.000363  -0.000302  -0.001108
     4  C   -0.002474  -0.000123  -0.000853   0.000013   0.000006   0.000018
     5  C    0.015258  -0.000025  -0.000005   0.000002   0.000004  -0.000033
     6  C   -0.076636  -0.000147   0.000114   0.000014  -0.000068   0.001448
     7  Br   0.003504   0.000001  -0.000000  -0.000000  -0.000001  -0.000038
     8  C    0.442278   0.003214  -0.000965  -0.000163   0.000729   0.005269
     9  C   -0.045667  -0.001579  -0.005377   0.010561   0.011794  -0.021463
    10  C   -0.037707  -0.021878   0.006448  -0.030897  -0.023044   0.002552
    11  C    0.000364   0.376790   0.357546   0.386901  -0.006461  -0.007192
    12  C    0.019303  -0.008385   0.006108  -0.005176   0.390369   0.378179
    13  C    0.000656   0.012294  -0.016187  -0.005018  -0.011637   0.008860
    14  C    0.000036  -0.000960   0.003200  -0.002302   0.000751  -0.000635
    15  N    0.000002   0.000003   0.000981   0.000003  -0.000000  -0.000000
    16  H    0.000000  -0.000057  -0.002173   0.000009  -0.000000  -0.000000
    17  H    0.000023   0.000000  -0.000027  -0.000001  -0.000000   0.000000
    18  H   -0.000300  -0.000000   0.000001   0.000000   0.000000   0.000000
    19  H    0.655621   0.000174  -0.000026  -0.000053  -0.000432   0.000121
    20  H    0.000174   0.639910  -0.009153  -0.022355  -0.001002   0.006210
    21  H   -0.000026  -0.009153   0.563244  -0.015952   0.000124   0.000292
    22  H   -0.000053  -0.022355  -0.015952   0.647828   0.004363  -0.000864
    23  H   -0.000432  -0.001002   0.000124   0.004363   0.634802  -0.019478
    24  H    0.000121   0.006210   0.000292  -0.000864  -0.019478   0.628926
    25  H    0.000185   0.000060  -0.000402  -0.000004  -0.021512  -0.026084
    26  H   -0.000018  -0.000243  -0.000616   0.004032   0.006905   0.000275
    27  H   -0.000006  -0.000441  -0.000474  -0.000241  -0.000862  -0.000309
    28  H    0.000000   0.000008   0.000263  -0.000069  -0.000027   0.000014
    29  H   -0.000006  -0.000114  -0.001634  -0.000125  -0.000054  -0.000009
    30  H   -0.000000  -0.000000  -0.000049  -0.000002  -0.000000   0.000000
              25         26         27         28         29         30
     1  N    0.000002  -0.000300   0.000196   0.004553   0.018280  -0.000031
     2  S   -0.000022   0.005882  -0.009937  -0.005051  -0.014012  -0.009093
     3  C   -0.000021  -0.000574  -0.000269   0.004345   0.007181   0.008761
     4  C   -0.000003   0.000060  -0.001094  -0.000445  -0.000405   0.000796
     5  C   -0.000051   0.000007  -0.000147  -0.000003  -0.000008  -0.000060
     6  C    0.000380  -0.000005   0.000073   0.000001   0.000011   0.000012
     7  Br   0.000028  -0.000000   0.000001   0.000000  -0.000000   0.000000
     8  C    0.000929  -0.000280   0.000927   0.000064   0.000016  -0.000004
     9  C   -0.012585   0.012342  -0.008507   0.000105  -0.000175  -0.000141
    10  C   -0.008919  -0.021447  -0.022880   0.006531  -0.012887  -0.000008
    11  C    0.009293  -0.006482   0.011274   0.000185   0.011112   0.000011
    12  C    0.385431  -0.006977  -0.006320  -0.000298  -0.000013  -0.000000
    13  C   -0.006616   0.367938   0.367965   0.004682   0.013835   0.000473
    14  C    0.000229  -0.009391  -0.014479   0.332136   0.328225  -0.006370
    15  N   -0.000000  -0.000191   0.002130   0.007068   0.002398   0.324453
    16  H   -0.000000   0.000027  -0.000004  -0.000562  -0.001148   0.001112
    17  H    0.000000   0.000004   0.000002  -0.000078  -0.000051  -0.001476
    18  H   -0.000000   0.000000  -0.000001  -0.000000  -0.000000  -0.000003
    19  H    0.000185  -0.000018  -0.000006   0.000000  -0.000006  -0.000000
    20  H    0.000060  -0.000243  -0.000441   0.000008  -0.000114  -0.000000
    21  H   -0.000402  -0.000616  -0.000474   0.000263  -0.001634  -0.000049
    22  H   -0.000004   0.004032  -0.000241  -0.000069  -0.000125  -0.000002
    23  H   -0.021512   0.006905  -0.000862  -0.000027  -0.000054  -0.000000
    24  H   -0.026084   0.000275  -0.000309   0.000014  -0.000009   0.000000
    25  H    0.636499  -0.001088   0.005436  -0.000021   0.000015  -0.000000
    26  H   -0.001088   0.643029  -0.023645  -0.005060  -0.012268  -0.000003
    27  H    0.005436  -0.023645   0.647886  -0.008709   0.006682  -0.000053
    28  H   -0.000021  -0.005060  -0.008709   0.594685  -0.008035   0.001313
    29  H    0.000015  -0.012268   0.006682  -0.008035   0.577836   0.000472
    30  H   -0.000000  -0.000003  -0.000053   0.001313   0.000472   0.557752
 Mulliken charges:
               1
     1  N   -0.414107
     2  S    0.388943
     3  C   -0.065787
     4  C    0.024717
     5  C    0.020213
     6  C   -0.049231
     7  Br  -0.028445
     8  C   -0.017858
     9  C    0.087350
    10  C   -0.485979
    11  C    0.062107
    12  C    0.062645
    13  C    0.019396
    14  C    0.025299
    15  N   -0.429146
    16  H    0.120469
    17  H    0.030944
    18  H    0.022794
    19  H    0.005562
    20  H    0.030479
    21  H    0.058883
    22  H    0.028535
    23  H    0.035022
    24  H    0.045034
    25  H    0.038843
    26  H    0.048090
    27  H    0.055807
    28  H    0.072404
    29  H    0.084880
    30  H    0.122137
 Sum of Mulliken charges =  -0.00000
 Mulliken charges with hydrogens summed into heavy atoms:
               1
     1  N   -0.293638
     2  S    0.388943
     3  C   -0.065787
     4  C    0.055661
     5  C    0.043007
     6  C   -0.049231
     7  Br  -0.028445
     8  C   -0.012297
     9  C    0.087350
    10  C   -0.485979
    11  C    0.180004
    12  C    0.181545
    13  C    0.123293
    14  C    0.182584
    15  N   -0.307009
 Electronic spatial extent (au):  <R**2>=           5108.5795
 Charge=              0.0000 electrons
 Dipole moment (field-independent basis, Debye):
    X=              1.0773    Y=              1.4510    Z=             -0.6105  Tot=              1.9075
 Quadrupole moment (field-independent basis, Debye-Ang):
   XX=           -108.9112   YY=           -102.8869   ZZ=           -114.5651
   XY=              2.6707   XZ=             -4.5762   YZ=             -4.7459
 Traceless Quadrupole moment (field-independent basis, Debye-Ang):
   XX=             -0.1235   YY=              5.9008   ZZ=             -5.7773
   XY=              2.6707   XZ=             -4.5762   YZ=             -4.7459
 Octapole moment (field-independent basis, Debye-Ang**2):
  XXX=            -87.2043  YYY=            -13.3476  ZZZ=              2.1042  XYY=            -28.1354
  XXY=             -4.5658  XXZ=            -21.8241  XZZ=            -41.3879  YZZ=              1.0011
  YYZ=             13.2296  XYZ=            -10.7853
 Hexadecapole moment (field-independent basis, Debye-Ang**3):
 XXXX=          -3846.8024 YYYY=          -1532.4727 ZZZZ=           -439.7642 XXXY=            -44.6569
 XXXZ=           -104.0297 YYYX=            -17.7589 YYYZ=            -30.6719 ZZZX=             -8.5095
 ZZZY=            -23.5650 XXYY=           -850.2208 XXZZ=           -772.4364 YYZZ=           -341.3108
 XXYZ=            -11.5218 YYXZ=             23.2568 ZZXY=             -3.9251
 N-N= 1.511738082990D+03 E-N=-1.136385644722D+04  KE= 3.499409624784D+03
   1 Symmetry operations used in ECPInt.
 ECPInt:  NShTT=   10296 NPrTT=   39337 LenC2=    9816 LenP2D=   27375.
 LDataN:  DoStor=T MaxTD1= 5 Len=  102
 Calling FoFJK, ICntrl=      2127 FMM=F ISym2X=0 I1Cent= 0 IOpClX= 0 NMat=1 NMatS=1 NMatT=0.
 ***** Axes restored to original set *****
 -------------------------------------------------------------------
 Center     Atomic                   Forces (Hartrees/Bohr)
 Number     Number              X              Y              Z
 -------------------------------------------------------------------
      1        7          -0.012680698   -0.015041762    0.001410201
      2       16          -0.007753812    0.005740307    0.003247547
      3        6          -0.008354472    0.004000199   -0.003179319
      4        6           0.001311034    0.001535462    0.000158429
      5        6          -0.000784973   -0.001585003    0.001478150
      6        6           0.014924689   -0.001673858   -0.000589048
      7       35          -0.005648581    0.000772809    0.000087166
      8        6          -0.000248810    0.000861220    0.000570329
      9        6          -0.004378267   -0.005903644   -0.000004649
     10        6           0.000390583   -0.009410174   -0.001141447
     11        6           0.003064161    0.000379404   -0.007854700
     12        6          -0.004747054    0.010915002    0.002872643
     13        6           0.002062326    0.004195326    0.006965324
     14        6           0.013456775   -0.001055838    0.001680984
     15        7           0.015569395    0.001702360   -0.012668194
     16        1           0.008064298    0.010953029    0.001344472
     17        1          -0.004398586    0.009190132   -0.000819315
     18        1           0.004970860    0.007176393   -0.000143637
     19        1           0.003052578   -0.008095022   -0.000827965
     20        1           0.006144684   -0.002467997    0.004895063
     21        1          -0.003772519    0.004606046    0.005489403
     22        1          -0.006218608   -0.007622746    0.000509368
     23        1          -0.005287932   -0.006337138   -0.000441032
     24        1           0.006978146   -0.002867267    0.004534449
     25        1           0.004159785    0.000232909   -0.007961440
     26        1          -0.003338215   -0.004550878   -0.001928844
     27        1           0.001839074    0.000159716   -0.005903833
     28        1          -0.003207162    0.006478626   -0.003451657
     29        1          -0.004096505   -0.001352561    0.005797578
     30        1          -0.011072198   -0.000935052    0.005873975
 -------------------------------------------------------------------
 Cartesian Forces:  Max     0.015569395 RMS     0.005899249

 GradGradGradGradGradGradGradGradGradGradGradGradGradGradGradGradGradGrad
 Berny optimization.
 FormGI is forming the generalized inverse of G from B-inverse, IUseBI=4.
 Internal  Forces:  Max     0.013939334 RMS     0.003839414
 Search for a local minimum.
 Step number   1 out of a maximum of  180
 All quantities printed in internal units (Hartrees-Bohrs-Radians)
 Mixed Optimization -- RFO/linear search
 Second derivative matrix not updated -- first step.
 ITU=  0
     Eigenvalues ---    0.00314   0.00327   0.00414   0.00764   0.01186
     Eigenvalues ---    0.01293   0.01663   0.02253   0.02279   0.02305
     Eigenvalues ---    0.02316   0.02317   0.02322   0.03052   0.03362
     Eigenvalues ---    0.03363   0.03463   0.04551   0.04868   0.04891
     Eigenvalues ---    0.05228   0.05429   0.05506   0.05696   0.05710
     Eigenvalues ---    0.06495   0.07030   0.07523   0.08297   0.08558
     Eigenvalues ---    0.08982   0.09696   0.10504   0.12881   0.13661
     Eigenvalues ---    0.15942   0.15997   0.16000   0.16000   0.16000
     Eigenvalues ---    0.16000   0.16000   0.16000   0.16000   0.16000
     Eigenvalues ---    0.16000   0.16000   0.18034   0.18680   0.22324
     Eigenvalues ---    0.22506   0.23419   0.23626   0.24622   0.24999
     Eigenvalues ---    0.25202   0.26959   0.29045   0.29130   0.30058
     Eigenvalues ---    0.30181   0.34400   0.34443   0.34971   0.35037
     Eigenvalues ---    0.35049   0.35072   0.35077   0.35129   0.35205
     Eigenvalues ---    0.35285   0.36170   0.36214   0.36322   0.41800
     Eigenvalues ---    0.43509   0.46380   0.46473   0.46781   0.47908
     Eigenvalues ---    0.48441   0.48614   0.63818   0.65845
 RFO step:  Lambda=-1.25846237D-02 EMin= 3.14426571D-03
 Linear search not attempted -- first point.
 Iteration  1 RMS(Cart)=  0.09921643 RMS(Int)=  0.00278226
 Iteration  2 RMS(Cart)=  0.00436677 RMS(Int)=  0.00024867
 Iteration  3 RMS(Cart)=  0.00000936 RMS(Int)=  0.00024853
 Iteration  4 RMS(Cart)=  0.00000000 RMS(Int)=  0.00024853
 Variable       Old X    -DE/DX   Delta X   Delta X   Delta X     New X
                                 (Linear)    (Quad)   (Total)
    R1        2.91741   0.00439   0.00000   0.00674   0.00674   2.92415
    R2        1.90405   0.01090   0.00000   0.02288   0.02288   1.92693
    R3        3.41543   0.00213   0.00000   0.00492   0.00482   3.42025
    R4        3.47123  -0.00258   0.00000  -0.01896  -0.01896   3.45227
    R5        2.90294   0.00347   0.00000   0.00517   0.00517   2.90811
    R6        2.61405   0.00998   0.00000   0.02110   0.02104   2.63509
    R7        2.63187   0.01394   0.00000   0.03440   0.03432   2.66619
    R8        2.61125   0.00853   0.00000   0.01584   0.01586   2.62711
    R9        2.03748   0.01017   0.00000   0.02713   0.02713   2.06461
   R10        2.61416   0.00891   0.00000   0.01562   0.01571   2.62987
   R11        2.03817   0.00873   0.00000   0.02332   0.02332   2.06149
   R12        3.59894  -0.00570   0.00000  -0.02953  -0.02953   3.56941
   R13        2.61533   0.00860   0.00000   0.01625   0.01631   2.63165
   R14        2.62773   0.00785   0.00000   0.01742   0.01740   2.64514
   R15        2.03581   0.00864   0.00000   0.02299   0.02299   2.05880
   R16        2.86088   0.00482   0.00000   0.02228   0.02235   2.88323
   R17        2.89909   0.00403   0.00000   0.01331   0.01331   2.91240
   R18        2.89732  -0.00072   0.00000  -0.00237  -0.00237   2.89495
   R19        2.91567   0.00079   0.00000   0.00369   0.00364   2.91931
   R20        2.05615   0.00823   0.00000   0.02267   0.02267   2.07882
   R21        2.05466   0.00756   0.00000   0.02079   0.02079   2.07545
   R22        2.05550   0.00982   0.00000   0.02704   0.02704   2.08254
   R23        2.05558   0.00826   0.00000   0.02273   0.02273   2.07831
   R24        2.05343   0.00872   0.00000   0.02392   0.02392   2.07735
   R25        2.05595   0.00887   0.00000   0.02443   0.02443   2.08038
   R26        2.86234   0.00401   0.00000   0.01089   0.01098   2.87333
   R27        2.06588   0.00590   0.00000   0.01652   0.01652   2.08240
   R28        2.06661   0.00576   0.00000   0.01614   0.01614   2.08275
   R29        2.05722   0.00660   0.00000   0.01822   0.01822   2.07544
   R30        2.05215   0.00706   0.00000   0.01931   0.01931   2.07145
   R31        1.90302   0.01027   0.00000   0.02152   0.02152   1.92454
    A1        1.98901  -0.01390   0.00000  -0.08057  -0.08057   1.90844
    A2        1.96539   0.00222   0.00000   0.01360   0.01344   1.97883
    A3        1.74872   0.00064   0.00000   0.00533   0.00536   1.75408
    A4        2.14626   0.00069   0.00000   0.01300   0.01295   2.15922
    A5        1.80038  -0.00314   0.00000  -0.01835  -0.01880   1.78157
    A6        1.77099  -0.00075   0.00000  -0.00918  -0.00910   1.76190
    A7        2.01055  -0.00030   0.00000  -0.00947  -0.00940   2.00115
    A8        2.01911   0.00002   0.00000  -0.01505  -0.01450   2.00460
    A9        2.13644   0.00041   0.00000   0.01631   0.01557   2.15201
   A10        2.12370  -0.00036   0.00000  -0.00050  -0.00034   2.12336
   A11        2.10523  -0.00116   0.00000  -0.00070  -0.00089   2.10434
   A12        2.06203   0.00080   0.00000   0.00160   0.00169   2.06372
   A13        2.11572   0.00036   0.00000  -0.00091  -0.00082   2.11491
   A14        2.05828   0.00160   0.00000   0.00396   0.00386   2.06214
   A15        2.11492  -0.00097   0.00000  -0.00291  -0.00295   2.11197
   A16        2.10998  -0.00063   0.00000  -0.00096  -0.00100   2.10898
   A17        2.08347  -0.00025   0.00000   0.00007   0.00006   2.08353
   A18        2.12656  -0.00011   0.00000  -0.00254  -0.00256   2.12401
   A19        2.07311   0.00036   0.00000   0.00239   0.00238   2.07549
   A20        2.10214   0.00053   0.00000   0.00746   0.00736   2.10950
   A21        2.07306   0.00059   0.00000   0.00124   0.00129   2.07435
   A22        2.10798  -0.00112   0.00000  -0.00870  -0.00865   2.09933
   A23        2.05025  -0.00048   0.00000  -0.00756  -0.00764   2.04261
   A24        2.09455   0.00159   0.00000   0.03347   0.03257   2.12712
   A25        2.13813  -0.00113   0.00000  -0.02675  -0.02645   2.11167
   A26        1.90139   0.00283   0.00000   0.02780   0.02809   1.92948
   A27        1.95766   0.00117   0.00000  -0.01187  -0.01179   1.94587
   A28        1.87720  -0.00462   0.00000  -0.01512  -0.01604   1.86116
   A29        1.89857  -0.00353   0.00000  -0.01646  -0.01654   1.88203
   A30        1.95034   0.00190   0.00000   0.01750   0.01769   1.96802
   A31        1.87939   0.00230   0.00000  -0.00190  -0.00177   1.87762
   A32        1.91334  -0.00058   0.00000  -0.00519  -0.00522   1.90812
   A33        1.94350   0.00424   0.00000   0.02739   0.02733   1.97083
   A34        1.92050   0.00004   0.00000  -0.00074  -0.00081   1.91969
   A35        1.89019  -0.00155   0.00000  -0.00704  -0.00706   1.88314
   A36        1.89102  -0.00055   0.00000  -0.00887  -0.00891   1.88212
   A37        1.90429  -0.00174   0.00000  -0.00659  -0.00669   1.89760
   A38        1.91023  -0.00029   0.00000  -0.00147  -0.00147   1.90876
   A39        1.94355   0.00083   0.00000   0.00434   0.00433   1.94788
   A40        1.93873   0.00181   0.00000   0.01074   0.01073   1.94945
   A41        1.87515  -0.00034   0.00000  -0.00250  -0.00250   1.87265
   A42        1.88988  -0.00063   0.00000  -0.00272  -0.00272   1.88716
   A43        1.90445  -0.00149   0.00000  -0.00903  -0.00905   1.89540
   A44        1.99230   0.00218   0.00000   0.02870   0.02859   2.02089
   A45        1.90475  -0.00117   0.00000  -0.00195  -0.00184   1.90291
   A46        1.88964   0.00035   0.00000  -0.00551  -0.00578   1.88386
   A47        1.88714   0.00120   0.00000   0.00230   0.00199   1.88914
   A48        1.90962  -0.00229   0.00000  -0.01183  -0.01168   1.89794
   A49        1.87720  -0.00041   0.00000  -0.01412  -0.01417   1.86303
   A50        1.96760   0.00471   0.00000   0.02857   0.02806   1.99566
   A51        1.85790  -0.00580   0.00000  -0.05278  -0.05229   1.80561
   A52        1.81419  -0.00085   0.00000  -0.00025  -0.00138   1.81281
   A53        1.93722   0.00076   0.00000  -0.00381  -0.00364   1.93358
   A54        1.96196   0.00005   0.00000   0.02311   0.02300   1.98497
   A55        1.91862   0.00073   0.00000   0.00143   0.00108   1.91970
   A56        1.99100  -0.01345   0.00000  -0.07795  -0.07795   1.91305
    D1        1.44063  -0.00081   0.00000  -0.03970  -0.03940   1.40123
    D2       -2.94038  -0.00330   0.00000  -0.05328  -0.05354  -2.99392
    D3       -0.68514  -0.00257   0.00000  -0.05153  -0.05157  -0.73671
    D4       -1.68834   0.00004   0.00000   0.03845   0.03845  -1.64989
    D5        1.35938   0.00074   0.00000   0.04735   0.04737   1.40674
    D6        2.72542   0.00007   0.00000   0.03658   0.03706   2.76248
    D7       -0.51005   0.00077   0.00000   0.04549   0.04597  -0.46408
    D8        0.63849   0.00183   0.00000   0.05715   0.05716   0.69565
    D9       -2.59697   0.00254   0.00000   0.06605   0.06607  -2.53090
   D10       -2.01967  -0.00116   0.00000  -0.06596  -0.06613  -2.08580
   D11        2.13558  -0.00104   0.00000  -0.04285  -0.04269   2.09289
   D12        0.10973   0.00096   0.00000  -0.02213  -0.02231   0.08741
   D13        0.01024   0.00046   0.00000  -0.05528  -0.05584  -0.04560
   D14       -2.11770   0.00058   0.00000  -0.03217  -0.03240  -2.15010
   D15        2.13963   0.00258   0.00000  -0.01146  -0.01202   2.12761
   D16        1.92333  -0.00238   0.00000  -0.08075  -0.08089   1.84243
   D17       -0.20462  -0.00226   0.00000  -0.05764  -0.05745  -0.26207
   D18       -2.23047  -0.00026   0.00000  -0.03692  -0.03707  -2.26754
   D19       -0.62892  -0.00039   0.00000  -0.01624  -0.01626  -0.64518
   D20       -2.84223  -0.00329   0.00000  -0.03609  -0.03609  -2.87832
   D21        1.51035   0.00094   0.00000  -0.00552  -0.00549   1.50486
   D22        3.03991   0.00019   0.00000  -0.00569  -0.00568   3.03423
   D23       -0.12297   0.00007   0.00000  -0.00647  -0.00653  -0.12950
   D24       -0.00856  -0.00055   0.00000  -0.01551  -0.01538  -0.02394
   D25        3.11175  -0.00067   0.00000  -0.01630  -0.01624   3.09551
   D26       -3.02747  -0.00105   0.00000  -0.01544  -0.01546  -3.04293
   D27        0.13806   0.00006   0.00000   0.02338   0.02413   0.16219
   D28        0.01470  -0.00028   0.00000  -0.00670  -0.00662   0.00808
   D29       -3.10296   0.00083   0.00000   0.03212   0.03297  -3.06999
   D30       -0.00881   0.00087   0.00000   0.02306   0.02298   0.01417
   D31        3.13758   0.00012   0.00000   0.00363   0.00358   3.14116
   D32       -3.12845   0.00099   0.00000   0.02384   0.02382  -3.10463
   D33        0.01794   0.00024   0.00000   0.00441   0.00442   0.02236
   D34       -3.13116  -0.00069   0.00000  -0.01917  -0.01915   3.13288
   D35        0.02000  -0.00037   0.00000  -0.00909  -0.00915   0.01085
   D36        0.00565   0.00006   0.00000   0.00019   0.00021   0.00587
   D37       -3.12637   0.00038   0.00000   0.01027   0.01021  -3.11616
   D38       -0.01390  -0.00045   0.00000  -0.01304  -0.01298  -0.02687
   D39        3.12547  -0.00040   0.00000  -0.01413  -0.01400   3.11148
   D40        3.13721  -0.00013   0.00000  -0.00301  -0.00302   3.13419
   D41       -0.00661  -0.00007   0.00000  -0.00409  -0.00403  -0.01064
   D42       -0.00363   0.00077   0.00000   0.02062   0.02048   0.01685
   D43        3.11338  -0.00033   0.00000  -0.01835  -0.01787   3.09551
   D44        3.14023   0.00072   0.00000   0.02172   0.02150  -3.12146
   D45       -0.02594  -0.00038   0.00000  -0.01726  -0.01685  -0.04279
   D46       -1.37580  -0.00346   0.00000  -0.11395  -0.11410  -1.48990
   D47        2.80448  -0.00170   0.00000  -0.10449  -0.10455   2.69994
   D48        0.74116  -0.00227   0.00000  -0.08575  -0.08598   0.65517
   D49        1.79098  -0.00230   0.00000  -0.07343  -0.07327   1.71770
   D50       -0.31192  -0.00054   0.00000  -0.06397  -0.06372  -0.37564
   D51       -2.37525  -0.00111   0.00000  -0.04523  -0.04516  -2.42041
   D52       -1.13754  -0.00168   0.00000   0.00076   0.00080  -1.13673
   D53        0.95381  -0.00131   0.00000   0.00598   0.00599   0.95981
   D54        3.06761  -0.00067   0.00000   0.01530   0.01535   3.08296
   D55        1.00134  -0.00068   0.00000  -0.00678  -0.00681   0.99454
   D56        3.09269  -0.00031   0.00000  -0.00156  -0.00161   3.09107
   D57       -1.07670   0.00033   0.00000   0.00776   0.00774  -1.06896
   D58        3.07395   0.00106   0.00000  -0.00907  -0.00907   3.06488
   D59       -1.11789   0.00143   0.00000  -0.00385  -0.00388  -1.12177
   D60        0.99590   0.00207   0.00000   0.00547   0.00548   1.00138
   D61       -3.04556   0.00150   0.00000  -0.00131  -0.00096  -3.04652
   D62        1.16695   0.00160   0.00000   0.00005   0.00041   1.16737
   D63       -0.95962   0.00167   0.00000   0.00107   0.00142  -0.95820
   D64        1.13310  -0.00042   0.00000  -0.01750  -0.01755   1.11554
   D65       -0.93758  -0.00032   0.00000  -0.01614  -0.01618  -0.95376
   D66       -3.06416  -0.00025   0.00000  -0.01511  -0.01517  -3.07932
   D67       -0.98353  -0.00203   0.00000  -0.02792  -0.02822  -1.01175
   D68       -3.05420  -0.00193   0.00000  -0.02655  -0.02685  -3.08105
   D69        1.10241  -0.00186   0.00000  -0.02553  -0.02584   1.07657
   D70       -1.28851   0.00278   0.00000   0.07015   0.07015  -1.21836
   D71        2.88119   0.00063   0.00000   0.04923   0.04911   2.93030
   D72        0.84279   0.00156   0.00000   0.07016   0.07005   0.91284
   D73        0.79752   0.00443   0.00000   0.10495   0.10490   0.90242
   D74       -1.31596   0.00228   0.00000   0.08403   0.08386  -1.23211
   D75        2.92882   0.00321   0.00000   0.10496   0.10480   3.03362
   D76        2.88149   0.00269   0.00000   0.09386   0.09385   2.97534
   D77        0.76800   0.00054   0.00000   0.07293   0.07280   0.84081
   D78       -1.27040   0.00147   0.00000   0.09386   0.09374  -1.17665
   D79        0.83591   0.00247   0.00000   0.03711   0.03651   0.87242
   D80        2.91841  -0.00122   0.00000  -0.01367  -0.01416   2.90425
   D81       -1.20779   0.00034   0.00000   0.00231   0.00166  -1.20613
   D82        2.95913   0.00329   0.00000   0.05525   0.05511   3.01424
   D83       -1.24155  -0.00041   0.00000   0.00448   0.00443  -1.23712
   D84        0.91543   0.00115   0.00000   0.02046   0.02026   0.93569
   D85       -1.28440   0.00222   0.00000   0.03326   0.03312  -1.25127
   D86        0.79811  -0.00148   0.00000  -0.01751  -0.01756   0.78055
   D87        2.95509   0.00009   0.00000  -0.00153  -0.00173   2.95336
         Item               Value     Threshold  Converged?
 Maximum Force            0.013939     0.000450     NO 
 RMS     Force            0.003839     0.000300     NO 
 Maximum Displacement     0.465277     0.001800     NO 
 RMS     Displacement     0.098884     0.001200     NO 
 Predicted change in Energy=-7.597477D-03
 GradGradGradGradGradGradGradGradGradGradGradGradGradGradGradGradGradGrad

                          Input orientation:                          
 ---------------------------------------------------------------------
 Center     Atomic      Atomic             Coordinates (Angstroms)
 Number     Number       Type             X           Y           Z
 ---------------------------------------------------------------------
      1          7           0       -3.231973    0.932761    1.727939
      2         16           0       -2.768549    1.003118    0.253247
      3          6           0       -1.004038    0.662634    0.037917
      4          6           0       -0.188347    1.793201    0.007863
      5          6           0        1.195646    1.665874   -0.024246
      6          6           0        1.736831    0.383881   -0.042820
      7         35           0        3.612720    0.170757   -0.100887
      8          6           0        0.929853   -0.751083   -0.042860
      9          6           0       -0.464599   -0.640718    0.008220
     10          6           0       -1.353405   -1.879388   -0.051850
     11          6           0       -1.795977   -2.296900    1.364143
     12          6           0       -0.619475   -3.066678   -0.683150
     13          6           0       -2.544181   -1.525210   -0.970069
     14          6           0       -3.534816   -0.517108   -0.409452
     15          7           0       -2.936866    2.247362   -0.636562
     16          1           0       -2.990899    1.804016    2.199701
     17          1           0       -0.666529    2.775360   -0.011018
     18          1           0        1.840494    2.545443   -0.048282
     19          1           0        1.402099   -1.731910   -0.086550
     20          1           0       -0.914955   -2.611058    1.943146
     21          1           0       -2.289714   -1.484957    1.914772
     22          1           0       -2.485092   -3.154917    1.305812
     23          1           0       -1.318442   -3.907914   -0.798510
     24          1           0        0.208471   -3.414304   -0.049046
     25          1           0       -0.218797   -2.815501   -1.677297
     26          1           0       -3.093713   -2.447706   -1.217723
     27          1           0       -2.137993   -1.133703   -1.916884
     28          1           0       -4.200612   -0.144258   -1.199330
     29          1           0       -4.126838   -0.900227    0.429779
     30          1           0       -3.822336    2.702962   -0.423115
 ---------------------------------------------------------------------
                    Distance matrix (angstroms):
                    1          2          3          4          5
     1  N    0.000000
     2  S    1.547394   0.000000
     3  C    2.809420   1.809916   0.000000
     4  C    3.600373   2.709592   1.394431   0.000000
     5  C    4.817824   4.028783   2.418463   1.390208   0.000000
     6  C    5.303383   4.557363   2.756190   2.386432   1.391666
     7  Br   7.125664   6.445063   4.644961   4.134279   2.843149
     8  C    4.826164   4.104032   2.396884   2.779627   2.431600
     9  C    3.618236   2.840849   1.410887   2.449546   2.842154
    10  C    3.821629   3.225610   2.567487   3.853419   4.366614
    11  C    3.553188   3.615260   3.338395   4.599227   5.155678
    12  C    5.351076   4.696659   3.817799   4.927656   5.111347
    13  C    3.714018   2.817674   2.859149   4.185469   5.006386
    14  C    2.600438   1.826862   2.827856   4.087852   5.224085
    15  N    2.721421   1.538907   2.588844   2.859354   4.217905
    16  H    1.019687   2.116497   3.150188   3.557889   4.742593
    17  H    3.605641   2.762094   2.140075   1.092544   2.167679
    18  H    5.611205   4.869595   3.412296   2.164536   1.090893
    19  H    5.645128   4.999014   3.396884   3.868441   3.404620
    20  H    4.239522   4.399300   3.788785   4.865262   5.159207
    21  H    2.601561   3.029928   3.128529   4.335708   5.082840
    22  H    4.176737   4.298546   4.286580   5.607457   6.209421
    23  H    5.785904   5.227547   4.657077   5.867714   6.163379
    24  H    5.821624   5.335508   4.254310   5.222911   5.175262
    25  H    5.892736   4.980973   3.956764   4.907221   4.981561
    26  H    4.485933   3.765325   3.951909   5.284742   6.061726
    27  H    4.330335   3.110157   2.886855   4.009057   4.746880
    28  H    3.266058   2.340354   3.521355   4.616204   5.811799
    29  H    2.417819   2.344960   3.513968   4.790019   5.926201
    30  H    2.847661   2.111256   3.509742   3.770846   5.139532
                    6          7          8          9         10
     6  C    0.000000
     7  Br   1.888850   0.000000
     8  C    1.392608   2.837417   0.000000
     9  C    2.428724   4.158718   1.399746   0.000000
    10  C    3.830408   5.372886   2.546846   1.525742   0.000000
    11  C    4.652618   6.122879   3.435019   2.520721   1.541175
    12  C    4.227121   5.360176   2.858735   2.527303   1.531944
    13  C    4.778229   6.445092   3.678029   2.462526   1.544835
[...]
     2  S    0.000030   0.009109  -0.068440   0.006967  -0.006833  -0.000291
     3  C    0.000482   0.156870   0.158183  -0.142878   0.016899   0.009440
     4  C    0.019726  -0.301171   0.055103   0.043248   0.001643  -0.002482
     5  C   -0.074792   0.167146  -0.172522  -0.012494   0.000459   0.001185
     6  C    0.309824   0.241872   0.117323   0.024687  -0.001734   0.003115
     7  Br  34.880042  -0.066129   0.017235  -0.001960   0.000032  -0.000063
     8  C   -0.066129   5.667319   0.108616  -0.141766   0.004563   0.011200
     9  C    0.017235   0.108616   5.615548   0.262202  -0.068500  -0.106628
    10  C   -0.001960  -0.141766   0.262202   5.220927   0.308720   0.324096
    11  C    0.000032   0.004563  -0.068500   0.308720   5.105677  -0.055008
    12  C   -0.000063   0.011200  -0.106628   0.324096  -0.055008   5.059532
    13  C    0.000046   0.030465  -0.011809   0.235116  -0.069510  -0.070265
    14  C    0.000000  -0.009344  -0.007941   0.007143   0.035070   0.010279
    15  N    0.000001  -0.001163   0.018815  -0.005448  -0.000680   0.000017
    16  H   -0.000000  -0.000349  -0.003096   0.000838   0.001321  -0.000002
    17  H   -0.000329  -0.004958   0.015335   0.000948  -0.000002  -0.000007
    18  H   -0.004943   0.017542  -0.002546   0.000076  -0.000003   0.000001
    19  H   -0.000362   0.470658  -0.109812  -0.012380   0.000049   0.004434
    20  H    0.000016   0.004479  -0.008034  -0.024842   0.389129  -0.010696
    21  H    0.000002  -0.002834  -0.010766  -0.009445   0.398622   0.006266
    22  H   -0.000002  -0.000910   0.016892  -0.041670   0.390743  -0.006023
    23  H   -0.000004  -0.001954   0.020314  -0.032358  -0.010906   0.401726
    24  H    0.000115   0.010455  -0.029133  -0.024774  -0.007991   0.404668
    25  H    0.000101  -0.006054  -0.001744  -0.041298   0.012097   0.415254
    26  H   -0.000001  -0.001916   0.008252  -0.010541  -0.008453  -0.008368
    27  H   -0.000003   0.003876  -0.017813  -0.031644   0.010964  -0.002990
    28  H    0.000000   0.000496   0.001120   0.002189   0.000181  -0.000101
    29  H    0.000000   0.000359  -0.001447  -0.015160   0.001455   0.000665
    30  H    0.000000  -0.000020  -0.001692   0.000205  -0.000013   0.000001
              13         14         15         16         17         18
     1  N    0.005270  -0.078718  -0.083066   0.314959  -0.000463   0.000040
     2  S    0.001484   0.200855   0.489507  -0.021163   0.002898  -0.000548
     3  C    0.052834  -0.130905  -0.140167  -0.014105  -0.081760   0.016532
     4  C   -0.028613   0.043839   0.009204   0.008153   0.451773  -0.077556
     5  C    0.005447  -0.005894  -0.006847  -0.001073  -0.075351   0.458043
     6  C   -0.004256   0.002734   0.001340   0.000281   0.014110  -0.069966
     7  Br   0.000046   0.000000   0.000001  -0.000000  -0.000329  -0.004943
     8  C    0.030465  -0.009344  -0.001163  -0.000349  -0.004958   0.017542
     9  C   -0.011809  -0.007941   0.018815  -0.003096   0.015335  -0.002546
    10  C    0.235116   0.007143  -0.005448   0.000838   0.000948   0.000076
    11  C   -0.069510   0.035070  -0.000680   0.001321  -0.000002  -0.000003
    12  C   -0.070265   0.010279   0.000017  -0.000002  -0.000007   0.000001
    13  C    5.247512   0.120961   0.007713  -0.001985  -0.001524   0.000027
    14  C    0.120961   5.391392  -0.071097   0.015107   0.004008  -0.000026
    15  N    0.007713  -0.071097   7.003653  -0.003138   0.032793  -0.000245
    16  H   -0.001985   0.015107  -0.003138   0.493315   0.001413  -0.000019
    17  H   -0.001524   0.004008   0.032793   0.001413   0.497278  -0.007644
    18  H    0.000027  -0.000026  -0.000245  -0.000019  -0.007644   0.533588
    19  H    0.001541  -0.000047   0.000002   0.000000   0.000031  -0.000050
    20  H    0.015470  -0.001970   0.000011  -0.000044   0.000000   0.000000
    21  H   -0.014727  -0.001154   0.001024  -0.001816   0.000011  -0.000000
    22  H   -0.003716  -0.002807   0.000007  -0.000004  -0.000002   0.000000
    23  H   -0.016514   0.001228  -0.000000   0.000000  -0.000000   0.000000
    24  H    0.014313  -0.000901  -0.000000   0.000000   0.000000  -0.000001
    25  H   -0.004417  -0.000162  -0.000006   0.000000   0.000002  -0.000000
    26  H    0.361000  -0.011620  -0.000439   0.000045   0.000009   0.000000
    27  H    0.393376  -0.023909   0.002530   0.000013  -0.000024  -0.000002
    28  H   -0.001030   0.348038   0.013357  -0.000779  -0.000198   0.000001
    29  H    0.006959   0.357940   0.004135  -0.001021  -0.000126   0.000000
    30  H    0.001697  -0.008511   0.305729  -0.000154  -0.001462  -0.000007
              19         20         21         22         23         24
     1  N    0.000051   0.000515   0.016667   0.000698   0.000008   0.000004
     2  S   -0.000108   0.000322   0.004397   0.000456   0.000006   0.000053
     3  C    0.014037  -0.003204   0.003158  -0.001001  -0.000134  -0.002516
     4  C   -0.007827  -0.000412   0.000815  -0.000078   0.000049  -0.000011
     5  C    0.021323   0.000071  -0.000304   0.000009  -0.000004  -0.000022
     6  C   -0.057964  -0.000520   0.000591   0.000061  -0.000108   0.002892
     7  Br  -0.000362   0.000016   0.000002  -0.000002  -0.000004   0.000115
     8  C    0.470658   0.004479  -0.002834  -0.000910  -0.001954   0.010455
     9  C   -0.109812  -0.008034  -0.010766   0.016892   0.020314  -0.029133
    10  C   -0.012380  -0.024842  -0.009445  -0.041670  -0.032358  -0.024774
    11  C    0.000049   0.389129   0.398622   0.390743  -0.010906  -0.007991
    12  C    0.004434  -0.010696   0.006266  -0.006023   0.401726   0.404668
    13  C    0.001541   0.015470  -0.014727  -0.003716  -0.016514   0.014313
    14  C   -0.000047  -0.001970  -0.001154  -0.002807   0.001228  -0.000901
    15  N    0.000002   0.000011   0.001024   0.000007  -0.000000  -0.000000
    16  H    0.000000  -0.000044  -0.001816  -0.000004   0.000000   0.000000
    17  H    0.000031   0.000000   0.000011  -0.000002  -0.000000   0.000000
    18  H   -0.000050   0.000000  -0.000000   0.000000   0.000000  -0.000001
    19  H    0.549005   0.000211  -0.000112  -0.000110  -0.000062   0.002412
    20  H    0.000211   0.545549  -0.011814  -0.022889  -0.000165   0.004450
    21  H   -0.000112  -0.011814   0.461721  -0.017234   0.000114   0.000072
    22  H   -0.000110  -0.022889  -0.017234   0.564016   0.003323  -0.000035
    23  H   -0.000062  -0.000165   0.000114   0.003323   0.538654  -0.020301
    24  H    0.002412   0.004450   0.000072  -0.000035  -0.020301   0.537233
    25  H   -0.001663  -0.000086  -0.000255  -0.000099  -0.019539  -0.024476
    26  H   -0.000108  -0.000299   0.000436   0.002715   0.007275   0.000122
    27  H    0.000176  -0.000430  -0.000985  -0.000096  -0.000808  -0.000294
    28  H    0.000005   0.000017   0.000392  -0.000063  -0.000039   0.000013
    29  H   -0.000000   0.000239  -0.004651  -0.000182  -0.000065  -0.000002
    30  H   -0.000001  -0.000000   0.000046  -0.000001  -0.000000   0.000000
              25         26         27         28         29         30
     1  N    0.000000  -0.000130   0.000393   0.003736   0.008964  -0.000767
     2  S    0.000048   0.004059  -0.000275  -0.016569  -0.015847  -0.013504
     3  C    0.001662   0.001217   0.003129   0.004967   0.008544   0.014246
     4  C    0.000090   0.000526  -0.000219  -0.001658  -0.001672  -0.000287
     5  C   -0.000134  -0.000065   0.000337   0.000209   0.000164  -0.000149
     6  C   -0.000499   0.000069  -0.000435  -0.000088  -0.000081   0.000040
     7  Br   0.000101  -0.000001  -0.000003   0.000000   0.000000   0.000000
     8  C   -0.006054  -0.001916   0.003876   0.000496   0.000359  -0.000020
     9  C   -0.001744   0.008252  -0.017813   0.001120  -0.001447  -0.001692
    10  C   -0.041298  -0.010541  -0.031644   0.002189  -0.015160   0.000205
    11  C    0.012097  -0.008453   0.010964   0.000181   0.001455  -0.000013
    12  C    0.415254  -0.008368  -0.002990  -0.000101   0.000665   0.000001
    13  C   -0.004417   0.361000   0.393376  -0.001030   0.006959   0.001697
    14  C   -0.000162  -0.011620  -0.023909   0.348038   0.357940  -0.008511
    15  N   -0.000006  -0.000439   0.002530   0.013357   0.004135   0.305729
    16  H    0.000000   0.000045   0.000013  -0.000779  -0.001021  -0.000154
    17  H    0.000002   0.000009  -0.000024  -0.000198  -0.000126  -0.001462
    18  H   -0.000000   0.000000  -0.000002   0.000001   0.000000  -0.000007
    19  H   -0.001663  -0.000108   0.000176   0.000005  -0.000000  -0.000001
    20  H   -0.000086  -0.000299  -0.000430   0.000017   0.000239  -0.000000
    21  H   -0.000255   0.000436  -0.000985   0.000392  -0.004651   0.000046
    22  H   -0.000099   0.002715  -0.000096  -0.000063  -0.000182  -0.000001
    23  H   -0.019539   0.007275  -0.000808  -0.000039  -0.000065  -0.000000
    24  H   -0.024476   0.000122  -0.000294   0.000013  -0.000002   0.000000
    25  H    0.525249  -0.000782   0.003833  -0.000040   0.000002   0.000000
    26  H   -0.000782   0.573891  -0.023851  -0.004709  -0.008613   0.000007
    27  H    0.003833  -0.023851   0.551720  -0.006141   0.004801  -0.000171
    28  H   -0.000040  -0.004709  -0.006141   0.523742  -0.010887   0.001765
    29  H    0.000002  -0.008613   0.004801  -0.010887   0.493559   0.000247
    30  H    0.000000   0.000007  -0.000171   0.001765   0.000247   0.485471
 Mulliken charges:
               1
     1  N   -0.547871
     2  S    0.436746
     3  C    0.038946
     4  C   -0.166426
     5  C   -0.200558
     6  C    0.187020
     7  Br  -0.079060
     8  C   -0.370850
     9  C    0.181757
    10  C    0.120035
    11  C   -0.425665
    12  C   -0.388808
    13  C   -0.272866
    14  C   -0.183589
    15  N   -0.577540
    16  H    0.213301
    17  H    0.153242
    18  H    0.137705
    19  H    0.126672
    20  H    0.124925
    21  H    0.181761
    22  H    0.117999
    23  H    0.130263
    24  H    0.133654
    25  H    0.142915
    26  H    0.120273
    27  H    0.134940
    28  H    0.142072
    29  H    0.171719
    30  H    0.217286
 Sum of Mulliken charges =  -0.00000
 Mulliken charges with hydrogens summed into heavy atoms:
               1
     1  N   -0.334569
     2  S    0.436746
     3  C    0.038946
     4  C   -0.013184
     5  C   -0.062853
     6  C    0.187020
     7  Br  -0.079060
     8  C   -0.244178
     9  C    0.181757
    10  C    0.120035
    11  C   -0.000980
    12  C    0.018024
    13  C   -0.017653
    14  C    0.130202
    15  N   -0.360254
 Electronic spatial extent (au):  <R**2>=           5129.3335
 Charge=              0.0000 electrons
 Dipole moment (field-independent basis, Debye):
    X=              0.6259    Y=              2.1198    Z=             -0.6140  Tot=              2.2940
 Quadrupole moment (field-independent basis, Debye-Ang):
   XX=           -111.3622   YY=           -104.2224   ZZ=           -115.9425
   XY=              5.6752   XZ=             -4.7659   YZ=             -3.9257
 Traceless Quadrupole moment (field-independent basis, Debye-Ang):
   XX=             -0.8532   YY=              6.2866   ZZ=             -5.4335
   XY=              5.6752   XZ=             -4.7659   YZ=             -3.9257
 Octapole moment (field-independent basis, Debye-Ang**2):
  XXX=            -89.8300  YYY=             -8.7366  ZZZ=              1.7706  XYY=            -34.5060
  XXY=              5.8826  XXZ=            -23.7850  XZZ=            -45.7661  YZZ=              3.5010
  YYZ=             12.3070  XYZ=             -7.6281
 Hexadecapole moment (field-independent basis, Debye-Ang**3):
 XXXX=          -3902.3771 YYYY=          -1605.4433 ZZZZ=           -464.5387 XXXY=             -4.3862
 XXXZ=           -119.0300 YYYX=              9.7591 YYYZ=            -29.2188 ZZZX=            -15.3101
 ZZZY=            -23.7016 XXYY=           -887.9815 XXZZ=           -796.4355 YYZZ=           -359.1236
 XXYZ=              3.8775 YYXZ=             18.2786 ZZXY=              7.5319
 N-N= 1.506356379129D+03 E-N=-1.135763651503D+04  KE= 3.502250749089D+03
 Breneman (CHELPG) radii used.
 Read replacement radii for each type of atom:
 Rad(35) =   1.850000000000D+00
 Atom Element Radius
    1     7    1.70
    2    16    2.00
    3     6    1.50
    4     6    1.50
    5     6    1.50
    6     6    1.50
    7    35    1.85
    8     6    1.50
    9     6    1.50
   10     6    1.50
   11     6    1.50
   12     6    1.50
   13     6    1.50
   14     6    1.50
   15     7    1.70
   16     1    1.45
   17     1    1.45
   18     1    1.45
   19     1    1.45
   20     1    1.45
   21     1    1.45
   22     1    1.45
   23     1    1.45
   24     1    1.45
   25     1    1.45
   26     1    1.45
   27     1    1.45
   28     1    1.45
   29     1    1.45
   30     1    1.45
 Generate Potential Derived Charges using the Breneman model, NDens= 1.
 Grid spacing= 0.300 Box extension= 2.800
 NStep X,Y,Z=   46     42     34   Total possible points=       65688
 Number of Points to Fit=   16672

 **********************************************************************

            Electrostatic Properties Using The SCF Density.

 **********************************************************************

       Atomic Center    1 is at   2.987834 -1.134519  1.543490
       Atomic Center    2 is at   2.509046 -1.118660  0.060629
       Atomic Center    3 is at   0.759085 -0.733451 -0.116712
       Atomic Center    4 is at  -0.094553 -1.834418 -0.176563
       Atomic Center    5 is at  -1.471508 -1.661223 -0.127850
       Atomic Center    6 is at  -1.972658 -0.366199 -0.023901
       Atomic Center    7 is at  -3.837445 -0.093269  0.049416
       Atomic Center    8 is at  -1.123471  0.737064  0.008519
       Atomic Center    9 is at   0.266124  0.580471 -0.034827
       Atomic Center   10 is at   1.200286  1.787910 -0.037601
       Atomic Center   11 is at   1.702982  2.052179  1.390309
       Atomic Center   12 is at   0.500149  3.042683 -0.562345
       Atomic Center   13 is at   2.363275  1.472870 -0.997908
       Atomic Center   14 is at   3.319699  0.403476 -0.513390
       Atomic Center   15 is at   2.645517 -2.331661 -0.896745
       Atomic Center   16 is at   2.577187 -1.964054  1.983871
       Atomic Center   17 is at   0.348998 -2.826309 -0.286677
       Atomic Center   18 is at  -2.146078 -2.517122 -0.176115
       Atomic Center   19 is at  -1.560947  1.733123  0.060042
       Atomic Center   20 is at   0.860511  2.343155  2.035561
       Atomic Center   21 is at   2.173664  1.161224  1.832128
       Atomic Center   22 is at   2.432643  2.878247  1.392554
       Atomic Center   23 is at   1.225957  3.867273 -0.627264
       Atomic Center   24 is at  -0.305256  3.377449  0.106838
       Atomic Center   25 is at   0.073793  2.883312 -1.564742
       Atomic Center   26 is at   2.951350  2.390189 -1.166834
       Atomic Center   27 is at   1.941813  1.186050 -1.975299
       Atomic Center   28 is at   3.977936  0.058277 -1.322732
       Atomic Center   29 is at   3.925111  0.721365  0.343829
       Atomic Center   30 is at   3.559242 -2.754109 -0.708395
   16672 points will be used for fitting atomic charges
 Fitting point charges to electrostatic potential
 Charges from ESP fit, RMS=   0.00380 RRMS=   0.28993:
 ESP charges:
               1
     1  N   -0.739654
     2  S    0.589395
     3  C    0.070391
     4  C   -0.119453
     5  C   -0.071519
     6  C    0.038610
     7  Br  -0.079099
     8  C   -0.046712
     9  C   -0.140463
    10  C    0.497589
    11  C   -0.278593
    12  C   -0.405428
    13  C   -0.123811
    14  C   -0.047160
    15  N   -0.776247
    16  H    0.314051
    17  H    0.143910
    18  H    0.089329
    19  H    0.062503
    20  H    0.039325
    21  H    0.073466
    22  H    0.063589
    23  H    0.082722
    24  H    0.117775
    25  H    0.075391
    26  H    0.042857
    27  H    0.028372
    28  H    0.079111
    29  H    0.075507
    30  H    0.344248
 Sum of ESP charges =  -0.00000
 ESP charges with hydrogens summed into heavy atoms:
               1
     1  N   -0.425603
     2  S    0.589395
     3  C    0.070391
     4  C    0.024457
     5  C    0.017810
     6  C    0.038610
     7  Br  -0.079099
     8  C    0.015791
     9  C   -0.140463
    10  C    0.497589
    11  C   -0.102214
    12  C   -0.129541
    13  C   -0.052582
    14  C    0.107458
    15  N   -0.431999
 Charge=  -0.00000 Dipole=     0.5095     2.1078    -0.6306 Tot=     2.2583
 -----------------------------------------------------------------

              Electrostatic Properties (Atomic Units)

 -----------------------------------------------------------------
    Center     Electric         -------- Electric Field --------
               Potential          X             Y             Z
 -----------------------------------------------------------------
    1 Atom    -18.423342
    2 Atom    -59.073806
    3 Atom    -14.724252
    4 Atom    -14.741689
    5 Atom    -14.741806
    6 Atom    -14.691688
    7 Atom   -175.796347
    8 Atom    -14.741285
    9 Atom    -14.724821
   10 Atom    -14.719764
   11 Atom    -14.768930
   12 Atom    -14.759676
   13 Atom    -14.739035
   14 Atom    -14.728221
   15 Atom    -18.424972
   16 Atom     -1.051494
   17 Atom     -1.088055
   18 Atom     -1.081760
   19 Atom     -1.080612
   20 Atom     -1.112996
   21 Atom     -1.117273
   22 Atom     -1.110909
   23 Atom     -1.103809
   24 Atom     -1.103897
   25 Atom     -1.104647
   26 Atom     -1.094972
   27 Atom     -1.100790
   28 Atom     -1.079718
   29 Atom     -1.084901
   30 Atom     -1.049021
 -----------------------------------------------------------------
 Unable to Open any file for archive entry.
 1\1\GINC-NOTCH073\SP\RPBE1PBE\def2TZVP\C11H15Br1N2S1\U1414944\24-Feb-2
 025\0\\#N Guess=Read Geom=Check Integral(Ultrafine) Density Pop=(Chelp
 G,ReadRadii) NMR pbe1pbe EmpiricalDispersion=GD3BJ def2TZVP\\SDI1023_3
 \\0,1\N,0,-3.1943174508,0.8854968769,1.7339987301\S,0,-2.7565678901,0.
 9798672643,0.2414051884\C,0,-1.0005031342,0.6672395936,-0.0049641369\C
 ,0,-0.1854297159,1.7985856171,-0.0159773857\C,0,1.1972863905,1.6702718
 136,-0.0137048303\C,0,1.7433403088,0.389331913,-0.0057929269\Br,0,3.61
 73923989,0.1768205667,0.0021550724\C,0,0.9320280226,-0.7424173438,-0.0
 22405452\C,0,-0.462623503,-0.6314380215,-0.0200643572\C,0,-1.356389754
 5,-1.8678023806,-0.0762882591\C,0,-1.8103586448,-2.2389279151,1.344150
 7827\C,0,-0.6302863721,-3.0620168932,-0.6980826873\C,0,-2.5552683498,-
 1.533045513,-0.9843699563\C,0,-3.5324556993,-0.5300311536,-0.408024228
 \N,0,-2.9592524454,2.2454885612,-0.6324843548\H,0,-2.7990508474,1.6992
 310436,2.2159695941\H,0,-0.6641642363,2.7795547174,-0.0509342669\H,0,1
 .8418176682,2.5502749615,-0.0242795648\H,0,1.4032052592,-1.724053109,-
 0.0460121846\H,0,-0.9412272047,-2.5408407252,1.9476696626\H,0,-2.29758
 30703,-1.3944330933,1.8540388637\H,0,-2.5121845119,-3.0881711114,1.312
 1348722\H,0,-1.3301740371,-3.9054095752,-0.7971067548\H,0,0.203912654,
 -3.4103959449,-0.0725473454\H,0,-0.2373472122,-2.8250283469,-1.6987898
 627\H,0,-3.1173911735,-2.4576051759,-1.1966165912\H,0,-2.1707053723,-1
 .1706875881,-1.9518395723\H,0,-4.2238519267,-0.1573149022,-1.176481695
 5\H,0,-4.1031112511,-0.9221331073,0.4422753627\H,0,-3.8807703574,2.623
 4164582,-0.3941417878\\Version=ES64L-G16RevC.01\State=1-A\HF=-3509.137
 8629\RMSD=2.086e-09\Dipole=-0.2253458,-0.8250865,-0.2881061\Quadrupole
 =-0.7167936,4.5400604,-3.8232667,3.8986138,3.6070128,3.4754903\PG=C01 
 [X(C11H15Br1N2S1)]\\@
 The archive entry for this job was punched.


 FLOATING POINT NUMBERS ARE LIKE SANDPILES:
 EVERY TIME THAT YOU MOVE ONE, YOU LOSE A LITTLE SAND 
 AND YOU PICK UP A LITTLE DIRT.
 Job cpu time:       0 days  1 hours 18 minutes 34.8 seconds.
 Elapsed time:       0 days  0 hours  5 minutes 17.6 seconds.
 File lengths (MBytes):  RWF=    204 Int=      0 D2E=      0 Chk=     32 Scr=      2
 Normal termination of Gaussian 16 at Mon Feb 24 20:18:11 2025.
