 Entering Gaussian System, Link 0=g16
 Input=SDI1023_4.com
 Output=SDI1023_4.log
 Initial command:
 /uufs/chpc.utah.edu/sys/installdir/gaussian16/C01/AVX/g16/l1.exe "/scratch/general/vast/u1414944/3351099-notchpeak.peaks/Gau-1674552.inp" -scrdir="/scratch/general/vast/u1414944/3351099-notchpeak.peaks/"
 Entering Link 1 = /uufs/chpc.utah.edu/sys/installdir/gaussian16/C01/AVX/g16/l1.exe PID=   1674553.
  
 Copyright (c) 1988-2019, Gaussian, Inc.  All Rights Reserved.
  
 This is part of the Gaussian(R) 16 program.  It is based on
 the Gaussian(R) 09 system (copyright 2009, Gaussian, Inc.),
 the Gaussian(R) 03 system (copyright 2003, Gaussian, Inc.),
 the Gaussian(R) 98 system (copyright 1998, Gaussian, Inc.),
 the Gaussian(R) 94 system (copyright 1995, Gaussian, Inc.),
 the Gaussian 92(TM) system (copyright 1992, Gaussian, Inc.),
 the Gaussian 90(TM) system (copyright 1990, Gaussian, Inc.),
 the Gaussian 88(TM) system (copyright 1988, Gaussian, Inc.),
 the Gaussian 86(TM) system (copyright 1986, Carnegie Mellon
 University), and the Gaussian 82(TM) system (copyright 1983,
 Carnegie Mellon University). Gaussian is a federally registered
 trademark of Gaussian, Inc.
  
 This software contains proprietary and confidential information,
 including trade secrets, belonging to Gaussian, Inc.
  
 This software is provided under written license and may be
 used, copied, transmitted, or stored only in accord with that
 written license.
  
 The following legend is applicable only to US Government
 contracts under FAR:
  
                    RESTRICTED RIGHTS LEGEND
  
 Use, reproduction and disclosure by the US Government is
 subject to restrictions as set forth in subparagraphs (a)
 and (c) of the Commercial Computer Software - Restricted
 Rights clause in FAR 52.227-19.
  
 Gaussian, Inc.
 340 Quinnipiac St., Bldg. 40, Wallingford CT 06492
  
  
 ---------------------------------------------------------------
 Warning -- This program may not be used in any manner that
 competes with the business of Gaussian, Inc. or will provide
 assistance to any competitor of Gaussian, Inc.  The licensee
 of this program is prohibited from giving any competitor of
 Gaussian, Inc. access to this program.  By using this program,
 the user acknowledges that Gaussian, Inc. is engaged in the
 business of creating and licensing software in the field of
 computational chemistry and represents and warrants to the
 licensee that it is not a competitor of Gaussian, Inc. and that
 it will not use this program in any manner prohibited above.
 ---------------------------------------------------------------
  

 Cite this work as:
 Gaussian 16, Revision C.01,
 M. J. Frisch, G. W. Trucks, H. B. Schlegel, G. E. Scuseria, 
 M. A. Robb, J. R. Cheeseman, G. Scalmani, V. Barone, 
 G. A. Petersson, H. Nakatsuji, X. Li, M. Caricato, A. V. Marenich, 
 J. Bloino, B. G. Janesko, R. Gomperts, B. Mennucci, H. P. Hratchian, 
 J. V. Ortiz, A. F. Izmaylov, J. L. Sonnenberg, D. Williams-Young, 
 F. Ding, F. Lipparini, F. Egidi, J. Goings, B. Peng, A. Petrone, 
 T. Henderson, D. Ranasinghe, V. G. Zakrzewski, J. Gao, N. Rega, 
 G. Zheng, W. Liang, M. Hada, M. Ehara, K. Toyota, R. Fukuda, 
 J. Hasegawa, M. Ishida, T. Nakajima, Y. Honda, O. Kitao, H. Nakai, 
 T. Vreven, K. Throssell, J. A. Montgomery, Jr., J. E. Peralta, 
 F. Ogliaro, M. J. Bearpark, J. J. Heyd, E. N. Brothers, K. N. Kudin, 
 V. N. Staroverov, T. A. Keith, R. Kobayashi, J. Normand, 
 K. Raghavachari, A. P. Rendell, J. C. Burant, S. S. Iyengar, 
 J. Tomasi, M. Cossi, J. M. Millam, M. Klene, C. Adamo, R. Cammi, 
 J. W. Ochterski, R. L. Martin, K. Morokuma, O. Farkas, 
 J. B. Foresman, and D. J. Fox, Gaussian, Inc., Wallingford CT, 2019.
 
 ******************************************
 Gaussian 16:  ES64L-G16RevC.01  3-Jul-2019
                24-Feb-2025 
 ******************************************
 %NProcShared=16
 Will use up to   16 processors via shared memory.
 %Mem=40GB
 %chk=SDI1023_4.chk
 ----------------------------------------------------------------------
 #N OPT FREQ=NORAMAN Integral(Ultrafine) pbe1pbe EmpiricalDispersion=GD
 3BJ def2SVP
 ----------------------------------------------------------------------
 1/18=20,19=15,26=4,38=1/1,3;
 2/9=110,12=2,17=6,18=5,40=1/2;
 3/5=43,7=101,11=2,25=1,30=1,71=1,74=-13,75=-5,124=41/1,2,3;
 4//1;
 5/5=2,38=5/2;
 6/7=2,8=2,9=2,10=2,28=1/1;
 7//1,2,3,16;
 1/18=20,19=15,26=4/3(2);
 2/9=110/2;
 99//99;
 2/9=110/2;
 3/5=43,7=101,11=2,25=1,30=1,71=1,74=-13,75=-5,124=41/1,2,3;
 4/5=5,16=3,69=1/1;
 5/5=2,38=5/2;
 7//1,2,3,16;
 1/18=20,19=15,26=4/3(-5);
 2/9=110/2;
 6/7=2,8=2,9=2,10=2,19=2,28=1/1;
 99/9=1/99;
 ---------
 SDI1023_4
 ---------
 Symbolic Z-matrix:
 Charge =  0 Multiplicity = 1
 N                    -3.11213   2.37059   0.50786 
 S                    -2.75142   0.99084  -0.04853 
 C                    -0.96122   0.69504  -0.10647 
 C                    -0.13542   1.79884  -0.01772 
 C                     1.23441   1.64515   0.08691 
 C                     1.73442   0.35595   0.12811 
 Br                    3.61338   0.09094   0.31024 
 C                     0.91207  -0.75398   0.03809 
 C                    -0.46634  -0.60661  -0.09133 
 C                    -1.37133  -1.79316  -0.35289 
 C                    -0.71807  -3.12006   0.05538 
 C                    -1.58466  -1.80486  -1.87831 
 C                    -2.75511  -1.70021   0.34779 
 C                    -3.03651  -0.41903   1.10045 
 N                    -3.38472   0.68615  -1.40266 
 H                    -2.73515   2.5653    1.42128 
 H                    -0.58527   2.78059  -0.03197 
 H                     1.89187   2.49798   0.14566 
 H                     1.36345  -1.73149   0.06876 
 H                     0.14491  -3.34569  -0.56552 
 H                    -0.41107  -3.10254   1.09948 
 H                    -1.43304  -3.92862  -0.07952 
 H                    -2.13204  -2.69891  -2.16791 
 H                    -0.62831  -1.80253  -2.39757 
 H                    -2.154    -0.92788  -2.17755 
 H                    -2.86039  -2.53456   1.04547 
 H                    -3.528    -1.80254  -0.41461 
 H                    -4.0673   -0.38187   1.44615 
 H                    -2.35923  -0.25979   1.93847 
 H                    -3.98261   1.42757  -1.7243 
 

 GradGradGradGradGradGradGradGradGradGradGradGradGradGradGradGradGradGrad
 Berny optimization.
 Initialization pass.
                           ----------------------------
                           !    Initial Parameters    !
                           ! (Angstroms and Degrees)  !
 --------------------------                            --------------------------
 ! Name  Definition              Value          Derivative Info.                !
 --------------------------------------------------------------------------------
 ! R1    R(1,2)                  1.5308         estimate D2E/DX2                !
 ! R2    R(1,16)                 1.0072         estimate D2E/DX2                !
 ! R3    R(2,3)                  1.8154         estimate D2E/DX2                !
 ! R4    R(2,14)                 1.841          estimate D2E/DX2                !
 ! R5    R(2,15)                 1.5256         estimate D2E/DX2                !
 ! R6    R(3,4)                  1.3814         estimate D2E/DX2                !
 ! R7    R(3,9)                  1.3926         estimate D2E/DX2                !
 ! R8    R(4,5)                  1.3824         estimate D2E/DX2                !
 ! R9    R(4,17)                 1.08           estimate D2E/DX2                !
 ! R10   R(5,6)                  1.3834         estimate D2E/DX2                !
 ! R11   R(5,18)                 1.0784         estimate D2E/DX2                !
 ! R12   R(6,7)                  1.9063         estimate D2E/DX2                !
 ! R13   R(6,8)                  1.3843         estimate D2E/DX2                !
 ! R14   R(8,9)                  1.3923         estimate D2E/DX2                !
 ! R15   R(8,19)                 1.0771         estimate D2E/DX2                !
 ! R16   R(9,10)                 1.515          estimate D2E/DX2                !
 ! R17   R(10,11)                1.5343         estimate D2E/DX2                !
 ! R18   R(10,12)                1.5403         estimate D2E/DX2                !
 ! R19   R(10,13)                1.5538         estimate D2E/DX2                !
 ! R20   R(11,20)                1.0868         estimate D2E/DX2                !
 ! R21   R(11,21)                1.0884         estimate D2E/DX2                !
 ! R22   R(11,22)                1.0877         estimate D2E/DX2                !
 ! R23   R(12,23)                1.0876         estimate D2E/DX2                !
 ! R24   R(12,24)                1.0882         estimate D2E/DX2                !
 ! R25   R(12,25)                1.0876         estimate D2E/DX2                !
 ! R26   R(13,14)                1.5123         estimate D2E/DX2                !
 ! R27   R(13,26)                1.0927         estimate D2E/DX2                !
 ! R28   R(13,27)                1.0905         estimate D2E/DX2                !
 ! R29   R(14,28)                1.0879         estimate D2E/DX2                !
 ! R30   R(14,29)                1.0892         estimate D2E/DX2                !
 ! R31   R(15,30)                1.0053         estimate D2E/DX2                !
 ! A1    A(2,1,16)             114.5625         estimate D2E/DX2                !
 ! A2    A(1,2,3)              113.0061         estimate D2E/DX2                !
 ! A3    A(1,2,14)             115.2724         estimate D2E/DX2                !
 ! A4    A(1,2,15)             113.8781         estimate D2E/DX2                !
 ! A5    A(3,2,14)              92.7422         estimate D2E/DX2                !
 ! A6    A(3,2,15)             110.3943         estimate D2E/DX2                !
 ! A7    A(14,2,15)            109.6772         estimate D2E/DX2                !
 ! A8    A(2,3,4)              117.2105         estimate D2E/DX2                !
 ! A9    A(2,3,9)              120.157          estimate D2E/DX2                !
 ! A10   A(4,3,9)              122.2573         estimate D2E/DX2                !
 ! A11   A(3,4,5)              120.5574         estimate D2E/DX2                !
 ! A12   A(3,4,17)             118.458          estimate D2E/DX2                !
 ! A13   A(5,4,17)             120.9846         estimate D2E/DX2                !
 ! A14   A(4,5,6)              117.6467         estimate D2E/DX2                !
 ! A15   A(4,5,18)             121.353          estimate D2E/DX2                !
 ! A16   A(6,5,18)             120.9968         estimate D2E/DX2                !
 ! A17   A(5,6,7)              119.2525         estimate D2E/DX2                !
 ! A18   A(5,6,8)              122.0435         estimate D2E/DX2                !
 ! A19   A(7,6,8)              118.7039         estimate D2E/DX2                !
 ! A20   A(6,8,9)              120.6173         estimate D2E/DX2                !
 ! A21   A(6,8,19)             118.4801         estimate D2E/DX2                !
 ! A22   A(9,8,19)             120.9026         estimate D2E/DX2                !
 ! A23   A(3,9,8)              116.8563         estimate D2E/DX2                !
 ! A24   A(3,9,10)             121.1895         estimate D2E/DX2                !
 ! A25   A(8,9,10)             121.637          estimate D2E/DX2                !
 ! A26   A(9,10,11)            112.1505         estimate D2E/DX2                !
 ! A27   A(9,10,12)            105.0497         estimate D2E/DX2                !
 ! A28   A(9,10,13)            114.0331         estimate D2E/DX2                !
 ! A29   A(11,10,12)           108.4165         estimate D2E/DX2                !
 ! A30   A(11,10,13)           108.114          estimate D2E/DX2                !
 ! A31   A(12,10,13)           108.8864         estimate D2E/DX2                !
 ! A32   A(10,11,20)           111.4444         estimate D2E/DX2                !
 ! A33   A(10,11,21)           111.1874         estimate D2E/DX2                !
 ! A34   A(10,11,22)           109.2682         estimate D2E/DX2                !
 ! A35   A(20,11,21)           109.1123         estimate D2E/DX2                !
 ! A36   A(20,11,22)           107.263          estimate D2E/DX2                !
 ! A37   A(21,11,22)           108.4414         estimate D2E/DX2                !
 ! A38   A(10,12,23)           109.8559         estimate D2E/DX2                !
 ! A39   A(10,12,24)           110.5374         estimate D2E/DX2                !
 ! A40   A(10,12,25)           109.8078         estimate D2E/DX2                !
 ! A41   A(23,12,24)           108.4824         estimate D2E/DX2                !
 ! A42   A(23,12,25)           109.0345         estimate D2E/DX2                !
 ! A43   A(24,12,25)           109.0896         estimate D2E/DX2                !
 ! A44   A(10,13,14)           116.1552         estimate D2E/DX2                !
 ! A45   A(10,13,26)           109.1504         estimate D2E/DX2                !
 ! A46   A(10,13,27)           108.0786         estimate D2E/DX2                !
 ! A47   A(14,13,26)           108.1297         estimate D2E/DX2                !
 ! A48   A(14,13,27)           107.1921         estimate D2E/DX2                !
 ! A49   A(26,13,27)           107.8463         estimate D2E/DX2                !
 ! A50   A(2,14,13)            108.0202         estimate D2E/DX2                !
 ! A51   A(2,14,28)            108.5969         estimate D2E/DX2                !
 ! A52   A(2,14,29)            105.7796         estimate D2E/DX2                !
 ! A53   A(13,14,28)           111.3097         estimate D2E/DX2                !
 ! A54   A(13,14,29)           113.0213         estimate D2E/DX2                !
 ! A55   A(28,14,29)           109.8587         estimate D2E/DX2                !
 ! A56   A(2,15,30)            112.5547         estimate D2E/DX2                !
 ! D1    D(16,1,2,3)           -55.753          estimate D2E/DX2                !
 ! D2    D(16,1,2,14)           49.1946         estimate D2E/DX2                !
 ! D3    D(16,1,2,15)          177.2344         estimate D2E/DX2                !
 ! D4    D(1,2,3,4)            -17.3385         estimate D2E/DX2                !
 ! D5    D(1,2,3,9)            155.7886         estimate D2E/DX2                !
 ! D6    D(14,2,3,4)          -136.3301         estimate D2E/DX2                !
 ! D7    D(14,2,3,9)            36.797          estimate D2E/DX2                !
 ! D8    D(15,2,3,4)           111.4935         estimate D2E/DX2                !
 ! D9    D(15,2,3,9)           -75.3793         estimate D2E/DX2                !
 ! D10   D(1,2,14,13)          174.6806         estimate D2E/DX2                !
 ! D11   D(1,2,14,28)           53.839          estimate D2E/DX2                !
 ! D12   D(1,2,14,29)          -64.0355         estimate D2E/DX2                !
 ! D13   D(3,2,14,13)          -68.235          estimate D2E/DX2                !
 ! D14   D(3,2,14,28)          170.9234         estimate D2E/DX2                !
 ! D15   D(3,2,14,29)           53.0489         estimate D2E/DX2                !
 ! D16   D(15,2,14,13)          44.573          estimate D2E/DX2                !
 ! D17   D(15,2,14,28)         -76.2686         estimate D2E/DX2                !
 ! D18   D(15,2,14,29)         165.8569         estimate D2E/DX2                !
 ! D19   D(1,2,15,30)           -2.1937         estimate D2E/DX2                !
 ! D20   D(3,2,15,30)         -130.552          estimate D2E/DX2                !
 ! D21   D(14,2,15,30)         128.661          estimate D2E/DX2                !
 ! D22   D(2,3,4,5)            173.1702         estimate D2E/DX2                !
 ! D23   D(2,3,4,17)            -6.8226         estimate D2E/DX2                !
 ! D24   D(9,3,4,5)              0.1982         estimate D2E/DX2                !
 ! D25   D(9,3,4,17)          -179.7947         estimate D2E/DX2                !
 ! D26   D(2,3,9,8)           -171.8584         estimate D2E/DX2                !
 ! D27   D(2,3,9,10)            14.507          estimate D2E/DX2                !
 ! D28   D(4,3,9,8)              0.912          estimate D2E/DX2                !
 ! D29   D(4,3,9,10)          -172.7226         estimate D2E/DX2                !
 ! D30   D(3,4,5,6)             -1.3736         estimate D2E/DX2                !
 ! D31   D(3,4,5,18)           179.296          estimate D2E/DX2                !
 ! D32   D(17,4,5,6)           178.6192         estimate D2E/DX2                !
 ! D33   D(17,4,5,18)           -0.7113         estimate D2E/DX2                !
 ! D34   D(4,5,6,7)           -178.678          estimate D2E/DX2                !
 ! D35   D(4,5,6,8)              1.4674         estimate D2E/DX2                !
 ! D36   D(18,5,6,7)             0.655          estimate D2E/DX2                !
 ! D37   D(18,5,6,8)          -179.1996         estimate D2E/DX2                !
 ! D38   D(5,6,8,9)             -0.3629         estimate D2E/DX2                !
 ! D39   D(5,6,8,19)           179.5301         estimate D2E/DX2                !
 ! D40   D(7,6,8,9)            179.7818         estimate D2E/DX2                !
 ! D41   D(7,6,8,19)            -0.3252         estimate D2E/DX2                !
 ! D42   D(6,8,9,3)             -0.8252         estimate D2E/DX2                !
 ! D43   D(6,8,9,10)           172.7788         estimate D2E/DX2                !
 ! D44   D(19,8,9,3)           179.2844         estimate D2E/DX2                !
 ! D45   D(19,8,9,10)           -7.1116         estimate D2E/DX2                !
 ! D46   D(3,9,10,11)         -165.5485         estimate D2E/DX2                !
 ! D47   D(3,9,10,12)           76.8921         estimate D2E/DX2                !
 ! D48   D(3,9,10,13)          -42.2451         estimate D2E/DX2                !
 ! D49   D(8,9,10,11)           21.1229         estimate D2E/DX2                !
 ! D50   D(8,9,10,12)          -96.4364         estimate D2E/DX2                !
 ! D51   D(8,9,10,13)          144.4263         estimate D2E/DX2                !
 ! D52   D(9,10,11,20)         -65.9786         estimate D2E/DX2                !
 ! D53   D(9,10,11,21)          55.995          estimate D2E/DX2                !
 ! D54   D(9,10,11,22)         175.6583         estimate D2E/DX2                !
 ! D55   D(12,10,11,20)         49.5543         estimate D2E/DX2                !
 ! D56   D(12,10,11,21)        171.5279         estimate D2E/DX2                !
 ! D57   D(12,10,11,22)        -68.8088         estimate D2E/DX2                !
 ! D58   D(13,10,11,20)        167.4509         estimate D2E/DX2                !
 ! D59   D(13,10,11,21)        -70.5755         estimate D2E/DX2                !
 ! D60   D(13,10,11,22)         49.0878         estimate D2E/DX2                !
 ! D61   D(9,10,12,23)         173.3863         estimate D2E/DX2                !
 ! D62   D(9,10,12,24)          53.7024         estimate D2E/DX2                !
 ! D63   D(9,10,12,25)         -66.7046         estimate D2E/DX2                !
 ! D64   D(11,10,12,23)         53.3177         estimate D2E/DX2                !
 ! D65   D(11,10,12,24)        -66.3663         estimate D2E/DX2                !
 ! D66   D(11,10,12,25)        173.2268         estimate D2E/DX2                !
 ! D67   D(13,10,12,23)        -64.0857         estimate D2E/DX2                !
 ! D68   D(13,10,12,24)        176.2304         estimate D2E/DX2                !
 ! D69   D(13,10,12,25)         55.8234         estimate D2E/DX2                !
 ! D70   D(9,10,13,14)           4.0104         estimate D2E/DX2                !
 ! D71   D(9,10,13,26)        -118.5041         estimate D2E/DX2                !
 ! D72   D(9,10,13,27)         124.455          estimate D2E/DX2                !
 ! D73   D(11,10,13,14)        129.4768         estimate D2E/DX2                !
 ! D74   D(11,10,13,26)          6.9622         estimate D2E/DX2                !
 ! D75   D(11,10,13,27)       -110.0786         estimate D2E/DX2                !
 ! D76   D(12,10,13,14)       -112.9281         estimate D2E/DX2                !
 ! D77   D(12,10,13,26)        124.5574         estimate D2E/DX2                !
 ! D78   D(12,10,13,27)          7.5165         estimate D2E/DX2                !
 ! D79   D(10,13,14,2)          53.3182         estimate D2E/DX2                !
 ! D80   D(10,13,14,28)        172.4529         estimate D2E/DX2                !
 ! D81   D(10,13,14,29)        -63.3574         estimate D2E/DX2                !
 ! D82   D(26,13,14,2)         176.3674         estimate D2E/DX2                !
 ! D83   D(26,13,14,28)        -64.4979         estimate D2E/DX2                !
 ! D84   D(26,13,14,29)         59.6918         estimate D2E/DX2                !
 ! D85   D(27,13,14,2)         -67.6014         estimate D2E/DX2                !
 ! D86   D(27,13,14,28)         51.5334         estimate D2E/DX2                !
 ! D87   D(27,13,14,29)        175.723          estimate D2E/DX2                !
 --------------------------------------------------------------------------------
 Trust Radius=3.00D-01 FncErr=1.00D-07 GrdErr=1.00D-06 EigMax=2.50D+02 EigMin=1.00D-04
 Number of steps in this run=    180 maximum allowed number of steps=    180.
 GradGradGradGradGradGradGradGradGradGradGradGradGradGradGradGradGradGrad

                          Input orientation:                          
 ---------------------------------------------------------------------
 Center     Atomic      Atomic             Coordinates (Angstroms)
 Number     Number       Type             X           Y           Z
 ---------------------------------------------------------------------
      1          7           0       -3.112134    2.370586    0.507858
      2         16           0       -2.751415    0.990841   -0.048532
      3          6           0       -0.961221    0.695039   -0.106469
      4          6           0       -0.135420    1.798844   -0.017716
      5          6           0        1.234408    1.645151    0.086910
      6          6           0        1.734416    0.355949    0.128108
      7         35           0        3.613376    0.090940    0.310236
      8          6           0        0.912074   -0.753981    0.038094
      9          6           0       -0.466341   -0.606611   -0.091327
     10          6           0       -1.371333   -1.793158   -0.352894
     11          6           0       -0.718065   -3.120065    0.055382
     12          6           0       -1.584658   -1.804857   -1.878314
     13          6           0       -2.755107   -1.700213    0.347786
     14          6           0       -3.036506   -0.419033    1.100452
     15          7           0       -3.384721    0.686146   -1.402656
     16          1           0       -2.735145    2.565305    1.421284
     17          1           0       -0.585268    2.780588   -0.031970
     18          1           0        1.891874    2.497979    0.145660
     19          1           0        1.363448   -1.731489    0.068765
     20          1           0        0.144911   -3.345693   -0.565524
     21          1           0       -0.411072   -3.102538    1.099481
     22          1           0       -1.433041   -3.928618   -0.079521
     23          1           0       -2.132042   -2.698910   -2.167915
     24          1           0       -0.628308   -1.802527   -2.397572
     25          1           0       -2.153999   -0.927879   -2.177553
     26          1           0       -2.860387   -2.534563    1.045466
     27          1           0       -3.528003   -1.802541   -0.414612
     28          1           0       -4.067300   -0.381869    1.446154
     29          1           0       -2.359232   -0.259795    1.938472
     30          1           0       -3.982613    1.427572   -1.724301
 ---------------------------------------------------------------------
                    Distance matrix (angstroms):
                    1          2          3          4          5
     1  N    0.000000
     2  S    1.530812   0.000000
     3  C    2.794867   1.815392   0.000000
     4  C    3.076353   2.738111   1.381380   0.000000
     5  C    4.426723   4.041442   2.400187   1.382388   0.000000
     6  C    5.262321   4.533979   2.726989   2.366325   1.383382
     7  Br   7.104106   6.438098   4.633090   4.132548   2.850427
     8  C    5.116429   4.058701   2.372718   2.759941   2.421181
     9  C    4.027772   2.788413   1.392634   2.429226   2.827498
    10  C    4.594350   3.122165   2.533780   3.813437   4.336505
    11  C    6.006959   4.587468   3.826270   4.953835   5.149799
    12  C    5.045922   3.539118   3.126914   4.306830   4.869476
    13  C    4.089560   2.720084   3.026815   4.386315   5.213037
    14  C    2.852869   1.840974   2.646624   3.819107   4.850652
    15  N    2.561583   1.525637   2.748369   3.703258   4.947207
    16  H    1.007166   2.153964   2.996452   3.068674   4.287725
    17  H    2.616212   2.809922   2.120473   1.079995   2.148155
    18  H    5.018716   4.885622   3.384422   2.150674   1.078438
    19  H    6.086925   4.935275   3.364942   3.836317   3.379153
    20  H    6.666058   5.240373   4.214472   5.181210   5.149873
    21  H    6.131953   4.852926   4.022260   5.034646   5.125764
    22  H    6.545559   5.093148   4.647747   5.872943   6.181415
    23  H    5.815508   4.299962   4.139961   5.370256   5.940378
    24  H    5.659133   4.222378   3.405557   4.344712   4.639919
    25  H    4.359969   2.927649   2.888940   4.021764   4.819708
    26  H    4.940940   3.692855   3.919709   5.228214   5.929265
    27  H    4.294053   2.922343   3.594611   4.963580   5.900734
    28  H    3.060842   2.418672   3.635670   4.728436   5.836477
    29  H    3.087462   2.380353   2.654793   3.606939   4.468931
    30  H    2.574791   2.124803   3.504682   4.225065   5.526766
                    6          7          8          9         10
     6  C    0.000000
     7  Br   1.906277   0.000000
     8  C    1.384303   2.843411   0.000000
     9  C    2.412054   4.158356   1.392299   0.000000
    10  C    3.807322   5.369999   2.539036   1.515031   0.000000
    11  C    4.254718   5.397859   2.873326   2.530285   1.534318
    12  C    4.439715   5.950072   3.318227   2.424819   1.540309
    13  C    4.942861   6.615680   3.799932   2.574342   1.553841
    14  C    4.930288   6.716058   4.102691   2.839237   2.602543
    15  N    5.353301   7.229221   4.755226   3.450760   3.361946
    16  H    5.150780   6.903668   5.121824   4.182883   4.899376
    17  H    3.359380   4.997992   3.839287   3.389806   4.651886
    18  H    2.147881   2.963864   3.398062   3.905870   5.413957
    19  H    2.120975   2.905466   1.077126   2.153859   2.767783
    20  H    4.087763   4.960610   2.769452   2.846236   2.180498
    21  H    4.184234   5.197825   2.897063   2.765996   2.178525
    22  H    5.332299   6.463364   3.948635   3.459824   2.153772
    23  H    5.436302   6.850863   4.232713   3.385925   2.166418
    24  H    4.076830   5.376739   3.066707   2.602924   2.175519
    25  H    4.699368   6.363152   3.786837   2.702544   2.165792
    26  H    5.505344   7.024488   4.291472   3.277309   2.173102
    27  H    5.713727   7.423609   4.584616   3.302807   2.157574
    28  H    5.995125   7.778601   5.187992   3.921895   3.535045
    29  H    4.518242   6.200501   3.815377   2.797035   2.928738
    30  H    6.104443   7.976527   5.641203   4.378204   4.367224
                   11         12         13         14         15
    11  C    0.000000
    12  C    2.493979   0.000000
    13  C    2.500204   2.517225   0.000000
    14  C    3.709840   3.591854   1.512321   0.000000
    15  N    4.870746   3.109916   3.025752   2.758301   0.000000
    16  H    6.185283   5.595470   4.398573   3.016624   3.453668
    17  H    5.902794   5.043221   4.992995   4.186708   3.755317
    18  H    6.195349   5.890429   6.265789   5.805989   5.789860
    19  H    2.502203   3.533812   4.128114   4.706008   5.527671
    20  H    1.086811   2.662518   3.457143   4.632734   5.423543
    21  H    1.088437   3.453772   2.833031   3.754212   5.427468
    22  H    1.087726   2.787293   2.626069   4.034926   5.182258
    23  H    2.668286   1.087579   2.777473   4.086333   3.689638
    24  H    2.785847   1.088228   3.474296   4.466502   3.844628
    25  H    3.442903   1.087559   2.708352   3.432646   2.172607
    26  H    2.431588   3.272375   1.092694   2.123561   4.079362
    27  H    3.138872   2.432903   1.090455   2.109759   2.681477
    28  H    4.544154   4.386398   2.160160   1.087855   3.118058
    29  H    3.797447   4.189873   2.182156   1.089190   3.620714
    30  H    5.874142   4.027717   3.947576   3.504896   1.005307
                   16         17         18         19         20
    16  H    0.000000
    17  H    2.603895   0.000000
    18  H    4.800110   2.499531   0.000000
    19  H    6.090173   4.915941   4.263044   0.000000
    20  H    6.868917   6.192670   6.140534   2.119625   0.000000
    21  H    6.134274   5.993472   6.130181   2.468010   1.772140
    22  H    6.791092   6.762724   7.239262   3.559454   1.750980
    23  H    6.399847   6.081091   6.967940   4.261113   2.858408
    24  H    6.172550   5.157797   5.595864   3.170954   2.517067
    25  H    5.048930   4.562584   5.788171   4.250196   3.705327
    26  H    5.115230   5.881145   6.979979   4.409042   3.505001
    27  H    4.803875   5.459961   6.941430   4.915790   3.986777
    28  H    3.234361   4.930571   6.745114   5.762959   5.529359
    29  H    2.896546   4.034045   5.375071   4.418148   4.697179
    30  H    3.570059   4.029466   6.257166   6.463368   6.415861
                   21         22         23         24         25
    21  H    0.000000
    22  H    1.765467   0.000000
    23  H    3.714906   2.522335   0.000000
    24  H    3.737191   3.246725   1.765634   0.000000
    25  H    4.301848   3.731750   1.771193   1.772329   0.000000
    26  H    2.514887   2.290481   3.298986   4.168040   3.669914
    27  H    3.701045   3.003558   2.413764   3.512885   2.400183
    28  H    4.570583   4.674017   4.709076   5.349688   4.134017
    29  H    3.546890   4.288402   4.781559   4.917052   4.174940
    30  H    6.422737   6.155842   4.544146   4.705124   3.016192
                   26         27         28         29         30
    26  H    0.000000
    27  H    1.764482   0.000000
    28  H    2.500256   2.402415   0.000000
    29  H    2.494632   3.046818   1.781789   0.000000
    30  H    4.962813   3.515051   3.651443   4.347238   0.000000
 Stoichiometry    C11H15BrN2S
 Framework group  C1[X(C11H15BrN2S)]
 Deg. of freedom    84
 Full point group                 C1      NOp   1
 Largest Abelian subgroup         C1      NOp   1
 Largest concise Abelian subgroup C1      NOp   1
                         Standard orientation:                         
 ---------------------------------------------------------------------
 Center     Atomic      Atomic             Coordinates (Angstroms)
 Number     Number       Type             X           Y           Z
 ---------------------------------------------------------------------
      1          7           0       -2.835412   -2.525384   -0.427822
      2         16           0       -2.532287   -1.081886   -0.018171
      3          6           0       -0.754479   -0.743390    0.124898
      4          6           0        0.089722   -1.832148    0.225602
      5          6           0        1.461406   -1.662983    0.196274
      6          6           0        1.946340   -0.377536    0.034369
      7         35           0        3.829840   -0.096298   -0.050618
      8          6           0        1.105422    0.717525   -0.065587
      9          6           0       -0.276641    0.557406   -0.013043
     10          6           0       -1.212962    1.747188    0.042105
     11          6           0       -0.550029    3.029624   -0.477520
     12          6           0       -1.532342    1.935837    1.537083
     13          6           0       -2.543151    1.542181   -0.734419
     14          6           0       -2.754736    0.174846   -1.344944
     15          7           0       -3.262429   -0.631686    1.243487
     16          1           0       -2.393116   -2.819397   -1.283575
     17          1           0       -0.347278   -2.814535    0.327261
     18          1           0        2.132354   -2.502604    0.285125
     19          1           0        1.545144    1.693786   -0.182893
     20          1           0        0.264524    3.345800    0.168772
     21          1           0       -0.170727    2.894465   -1.488736
     22          1           0       -1.283082    3.833139   -0.489520
     23          1           0       -2.110127    2.846191    1.679375
     24          1           0       -0.614606    2.015609    2.116425
     25          1           0       -2.109775    1.088832    1.900316
     26          1           0       -2.610283    2.285138   -1.532847
     27          1           0       -3.368622    1.718108   -0.043957
     28          1           0       -3.758327    0.074947   -1.752684
     29          1           0       -2.018633   -0.068603   -2.109940
     30          1           0       -3.871660   -1.342071    1.610685
 ---------------------------------------------------------------------
 Rotational constants (GHZ):           0.7885439           0.2390262           0.1998113
 Standard basis: def2SVP (5D, 7F)
 There are   324 symmetry adapted cartesian basis functions of A   symmetry.
 There are   307 symmetry adapted basis functions of A   symmetry.
   307 basis functions,   547 primitive gaussians,   324 cartesian basis functions
    73 alpha electrons       73 beta electrons
       nuclear repulsion energy      1513.7890208801 Hartrees.
 NAtoms=   30 NActive=   30 NUniq=   30 SFac= 1.00D+00 NAtFMM=   60 NAOKFM=F Big=F
 Integral buffers will be    131072 words long.
 Raffenetti 2 integral format.
 Two-electron integral symmetry is turned on.
 Nuclear repulsion after empirical dispersion term =     1513.7483183363 Hartrees.
 One-electron integrals computed using PRISM.
   1 Symmetry operations used in ECPInt.
 ECPInt:  NShTT=   10296 NPrTT=   39337 LenC2=    9824 LenP2D=   27418.
 LDataN:  DoStor=T MaxTD1= 4 Len=   56
 NBasis=   307 RedAO= T EigKep=  2.12D-04  NBF=   307
 NBsUse=   307 1.00D-06 EigRej= -1.00D+00 NBFU=   307
 ExpMin= 1.22D-01 ExpMax= 1.13D+05 ExpMxC= 1.70D+04 IAcc=3 IRadAn=         5 AccDes= 0.00D+00
 Harris functional with IExCor= 1009 and IRadAn=       5 diagonalized for initial guess.
 HarFok:  IExCor= 1009 AccDes= 0.00D+00 IRadAn=         5 IDoV= 1 UseB2=F ITyADJ=14
 ICtDFT=  3500011 ScaDFX=  1.000000  1.000000  1.000000  1.000000
 FoFCou: FMM=F IPFlag=           0 FMFlag=      100000 FMFlg1=           0
         NFxFlg=           0 DoJE=T BraDBF=F KetDBF=T FulRan=T
         wScrn=  0.000000 ICntrl=       500 IOpCl=  0 I1Cent=   200000004 NGrid=           0
         NMat0=    1 NMatS0=      1 NMatT0=    0 NMatD0=    1 NMtDS0=    0 NMtDT0=    0
 Petite list used in FoFCou.
 Requested convergence on RMS density matrix=1.00D-08 within 128 cycles.
 Requested convergence on MAX density matrix=1.00D-06.
 Requested convergence on             energy=1.00D-06.
 No special actions if energy rises.
 Integral accuracy reduced to 1.0D-05 until final iterations.
 Initial convergence to 1.0D-05 achieved.  Increase integral accuracy.
 SCF Done:  E(RPBE1PBE) =  -3508.06375423     A.U. after   15 cycles
            NFock= 15  Conv=0.57D-08     -V/T= 2.0025

 **********************************************************************

            Population analysis using the SCF Density.

 **********************************************************************

 Orbital symmetries:
       Occupied  (A) (A) (A) (A) (A) (A) (A) (A) (A) (A) (A) (A)
                 (A) (A) (A) (A) (A) (A) (A) (A) (A) (A) (A) (A)
                 (A) (A) (A) (A) (A) (A) (A) (A) (A) (A) (A) (A)
                 (A) (A) (A) (A) (A) (A) (A) (A) (A) (A) (A) (A)
                 (A) (A) (A) (A) (A) (A) (A) (A) (A) (A) (A) (A)
                 (A) (A) (A) (A) (A) (A) (A) (A) (A) (A) (A) (A)
                 (A)
       Virtual   (A) (A) (A) (A) (A) (A) (A) (A) (A) (A) (A) (A)
                 (A) (A) (A) (A) (A) (A) (A) (A) (A) (A) (A) (A)
                 (A) (A) (A) (A) (A) (A) (A) (A) (A) (A) (A) (A)
                 (A) (A) (A) (A) (A) (A) (A) (A) (A) (A) (A) (A)
                 (A) (A) (A) (A) (A) (A) (A) (A) (A) (A) (A) (A)
                 (A) (A) (A) (A) (A) (A) (A) (A) (A) (A) (A) (A)
                 (A) (A) (A) (A) (A) (A) (A) (A) (A) (A) (A) (A)
                 (A) (A) (A) (A) (A) (A) (A) (A) (A) (A) (A) (A)
                 (A) (A) (A) (A) (A) (A) (A) (A) (A) (A) (A) (A)
                 (A) (A) (A) (A) (A) (A) (A) (A) (A) (A) (A) (A)
                 (A) (A) (A) (A) (A) (A) (A) (A) (A) (A) (A) (A)
                 (A) (A) (A) (A) (A) (A) (A) (A) (A) (A) (A) (A)
                 (A) (A) (A) (A) (A) (A) (A) (A) (A) (A) (A) (A)
                 (A) (A) (A) (A) (A) (A) (A) (A) (A) (A) (A) (A)
                 (A) (A) (A) (A) (A) (A) (A) (A) (A) (A) (A) (A)
                 (A) (A) (A) (A) (A) (A) (A) (A) (A) (A) (A) (A)
                 (A) (A) (A) (A) (A) (A) (A) (A) (A) (A) (A) (A)
                 (A) (A) (A) (A) (A) (A) (A) (A) (A) (A) (A) (A)
                 (A) (A) (A) (A) (A) (A) (A) (A) (A) (A) (A) (A)
                 (A) (A) (A) (A) (A) (A)
 The electronic state is 1-A.
 Alpha  occ. eigenvalues -- -483.20109 -89.18470 -62.63479 -56.42473 -56.42122
 Alpha  occ. eigenvalues --  -56.42109 -14.35336 -14.34037 -10.30593 -10.27265
 Alpha  occ. eigenvalues --  -10.26803 -10.26705 -10.26604 -10.26292 -10.26065
 Alpha  occ. eigenvalues --  -10.25931 -10.24913 -10.23395 -10.21323  -8.78087
 Alpha  occ. eigenvalues --   -8.15963  -6.59567  -6.58287  -6.58253  -6.10106
 Alpha  occ. eigenvalues --   -6.09983  -6.09956  -2.68121  -2.67755  -2.67729
 Alpha  occ. eigenvalues --   -2.66701  -2.66701  -1.01460  -0.92068  -0.87306
 Alpha  occ. eigenvalues --   -0.85378  -0.83363  -0.80438  -0.77834  -0.76237
 Alpha  occ. eigenvalues --   -0.70869  -0.68596  -0.66093  -0.64785  -0.61379
 Alpha  occ. eigenvalues --   -0.56955  -0.54768  -0.53687  -0.51427  -0.50036
 Alpha  occ. eigenvalues --   -0.49106  -0.47781  -0.47160  -0.46185  -0.44420
 Alpha  occ. eigenvalues --   -0.44275  -0.42669  -0.41890  -0.40557  -0.40297
 Alpha  occ. eigenvalues --   -0.39356  -0.37537  -0.35752  -0.35405  -0.34529
 Alpha  occ. eigenvalues --   -0.33747  -0.30983  -0.30818  -0.28543  -0.28176
 Alpha  occ. eigenvalues --   -0.27230  -0.25666  -0.24239
 Alpha virt. eigenvalues --   -0.03844  -0.02737   0.00464   0.05715   0.05982
 Alpha virt. eigenvalues --    0.07478   0.08044   0.09255   0.09805   0.10597
 Alpha virt. eigenvalues --    0.11133   0.12185   0.12947   0.13315   0.13973
 Alpha virt. eigenvalues --    0.14206   0.15369   0.15867   0.16525   0.16909
 Alpha virt. eigenvalues --    0.17529   0.18812   0.19260   0.20983   0.22248
 Alpha virt. eigenvalues --    0.24197   0.24998   0.25933   0.27853   0.30874
 Alpha virt. eigenvalues --    0.31405   0.32957   0.33511   0.35332   0.38806
 Alpha virt. eigenvalues --    0.40256   0.41458   0.42234   0.43715   0.44223
 Alpha virt. eigenvalues --    0.44830   0.46296   0.46752   0.47748   0.48702
 Alpha virt. eigenvalues --    0.49615   0.50403   0.51596   0.52703   0.52937
 Alpha virt. eigenvalues --    0.53853   0.54983   0.55576   0.55859   0.57991
 Alpha virt. eigenvalues --    0.58874   0.60233   0.60299   0.61923   0.62100
 Alpha virt. eigenvalues --    0.63195   0.63927   0.64943   0.65237   0.65959
 Alpha virt. eigenvalues --    0.66146   0.66474   0.66721   0.67141   0.67688
 Alpha virt. eigenvalues --    0.68323   0.68908   0.70009   0.70258   0.70595
 Alpha virt. eigenvalues --    0.71383   0.71742   0.72886   0.73540   0.74023
 Alpha virt. eigenvalues --    0.74274   0.75009   0.76187   0.77170   0.77730
 Alpha virt. eigenvalues --    0.78738   0.79702   0.80969   0.82214   0.82788
 Alpha virt. eigenvalues --    0.83946   0.85433   0.86485   0.88953   0.89502
 Alpha virt. eigenvalues --    0.91085   0.92574   0.93993   0.96627   0.97133
 Alpha virt. eigenvalues --    0.97898   1.01115   1.01821   1.04231   1.06699
 Alpha virt. eigenvalues --    1.09550   1.10585   1.11449   1.15674   1.16747
 Alpha virt. eigenvalues --    1.19184   1.19874   1.21339   1.22364   1.22675
 Alpha virt. eigenvalues --    1.25752   1.26577   1.28475   1.29713   1.32128
 Alpha virt. eigenvalues --    1.33921   1.38715   1.40658   1.41186   1.43477
 Alpha virt. eigenvalues --    1.44715   1.46692   1.47467   1.49412   1.51287
 Alpha virt. eigenvalues --    1.54524   1.55348   1.56677   1.57796   1.59113
 Alpha virt. eigenvalues --    1.62912   1.66290   1.69278   1.71040   1.72143
 Alpha virt. eigenvalues --    1.72615   1.73662   1.74274   1.75458   1.76314
 Alpha virt. eigenvalues --    1.77940   1.78577   1.79769   1.80691   1.82647
 Alpha virt. eigenvalues --    1.83059   1.83449   1.85698   1.86209   1.87145
 Alpha virt. eigenvalues --    1.88562   1.89345   1.91888   1.93037   1.93249
 Alpha virt. eigenvalues --    1.94202   1.95745   1.97108   1.98200   2.00103
 Alpha virt. eigenvalues --    2.01817   2.03747   2.04653   2.07376   2.10889
 Alpha virt. eigenvalues --    2.12873   2.13951   2.14752   2.16045   2.16344
 Alpha virt. eigenvalues --    2.17382   2.18786   2.20480   2.24143   2.25139
 Alpha virt. eigenvalues --    2.26892   2.28988   2.31176   2.31956   2.33264
 Alpha virt. eigenvalues --    2.35940   2.37430   2.39251   2.41020   2.43160
 Alpha virt. eigenvalues --    2.44734   2.45999   2.46859   2.48846   2.50773
 Alpha virt. eigenvalues --    2.52178   2.53473   2.58216   2.59005   2.60671
 Alpha virt. eigenvalues --    2.62516   2.63510   2.65948   2.66356   2.67815
 Alpha virt. eigenvalues --    2.68908   2.70354   2.76500   2.79526   2.82268
 Alpha virt. eigenvalues --    2.85101   2.85399   2.86656   2.88201   2.91297
 Alpha virt. eigenvalues --    2.93431   2.95070   2.96561   2.98990   3.00346
 Alpha virt. eigenvalues --    3.01935   3.03474   3.07995   3.09419   3.11530
 Alpha virt. eigenvalues --    3.20675   3.27194   3.35101   3.44752   3.48721
 Alpha virt. eigenvalues --    3.52467   3.52810   3.65481   3.85433
          Condensed to atoms (all electrons):
               1          2          3          4          5          6
     1  N    6.829995   0.382832  -0.059368   0.006334   0.001714  -0.000045
     2  S    0.382832  14.653060   0.074567  -0.019660   0.004152   0.000404
     3  C   -0.059368   0.074567   6.061900   0.254227   0.110300  -0.232423
     4  C    0.006334  -0.019660   0.254227   5.027925   0.257588   0.134747
     5  C    0.001714   0.004152   0.110300   0.257588   5.109130   0.223297
     6  C   -0.000045   0.000404  -0.232423   0.134747   0.223297   5.465371
     7  Br  -0.000000   0.000006   0.001281   0.002857  -0.064525   0.242117
     8  C   -0.000028   0.002769   0.075084  -0.118898   0.071742   0.200460
     9  C    0.002813  -0.039475   0.130120   0.078440  -0.146379   0.126206
    10  C   -0.000017  -0.028295  -0.107892   0.013837  -0.002786   0.027536
    11  C    0.000005  -0.000115   0.015381  -0.000498   0.000150  -0.000868
    12  C   -0.000160   0.000424  -0.004500   0.000244   0.000132  -0.000685
    13  C    0.005210  -0.043083  -0.028462  -0.003014  -0.000027  -0.000655
    14  C   -0.048825   0.261223  -0.137668   0.009132   0.000464  -0.000534
    15  N   -0.062553   0.373757  -0.060449  -0.004519  -0.000144  -0.000054
    16  H    0.313228  -0.010460  -0.001764   0.002672  -0.000129  -0.000010
    17  H    0.028312  -0.008568  -0.086433   0.439235  -0.055745   0.014743
    18  H   -0.000004  -0.000149   0.016346  -0.063379   0.449623  -0.069480
    19  H    0.000001  -0.000086   0.020248  -0.002404   0.015432  -0.076592
    20  H   -0.000000   0.000016  -0.001139   0.000036  -0.000039   0.001593
    21  H   -0.000000   0.000058   0.000239  -0.000005  -0.000048   0.000417
    22  H    0.000000  -0.000041  -0.000248   0.000005   0.000004  -0.000071
    23  H    0.000001   0.000116   0.000428   0.000009   0.000001   0.000009
    24  H    0.000004  -0.000243  -0.005652  -0.000144  -0.000080  -0.000063
    25  H    0.000464  -0.001554   0.004414  -0.000488  -0.000056   0.000054
    26  H   -0.000108   0.004756  -0.001321   0.000100   0.000001   0.000007
    27  H    0.000149  -0.009524   0.004163  -0.000007   0.000009   0.000012
    28  H    0.005216  -0.003846   0.008172  -0.000201  -0.000014   0.000009
    29  H    0.001370  -0.016414   0.010881  -0.000888   0.000051   0.000167
    30  H    0.004971  -0.013173   0.004526   0.000598  -0.000006   0.000005
               7          8          9         10         11         12
     1  N   -0.000000  -0.000028   0.002813  -0.000017   0.000005  -0.000160
     2  S    0.000006   0.002769  -0.039475  -0.028295  -0.000115   0.000424
     3  C    0.001281   0.075084   0.130120  -0.107892   0.015381  -0.004500
     4  C    0.002857  -0.118898   0.078440   0.013837  -0.000498   0.000244
     5  C   -0.064525   0.071742  -0.146379  -0.002786   0.000150   0.000132
     6  C    0.242117   0.200460   0.126206   0.027536  -0.000868  -0.000685
     7  Br  34.909399  -0.071278   0.002756  -0.000098  -0.000087   0.000008
     8  C   -0.071278   5.091285   0.389781  -0.106311   0.000365  -0.010302
     9  C    0.002756   0.389781   5.372202   0.280954  -0.056322  -0.072359
    10  C   -0.000098  -0.106311   0.280954   5.544464   0.375971   0.390071
    11  C   -0.000087   0.000365  -0.056322   0.375971   4.581498  -0.062203
    12  C    0.000008  -0.010302  -0.072359   0.390071  -0.062203   4.652641
    13  C    0.000002   0.016749  -0.049391   0.292680  -0.059593  -0.070117
    14  C   -0.000001  -0.000524  -0.009152  -0.054506   0.004110   0.001934
    15  N   -0.000000   0.000030  -0.005161  -0.005562   0.000094  -0.032780
    16  H    0.000000  -0.000006  -0.000330  -0.000060  -0.000002   0.000026
    17  H   -0.000173  -0.002222   0.018110  -0.000109   0.000007   0.000001
    18  H   -0.000044   0.014592  -0.001517   0.000018   0.000001  -0.000000
    19  H    0.003729   0.443817  -0.048512  -0.036503   0.019026   0.000272
    20  H   -0.000036   0.006330  -0.023171   0.004256   0.376827  -0.005988
    21  H    0.000016  -0.000658  -0.007816  -0.016834   0.386433   0.009535
    22  H   -0.000001   0.000678   0.011034  -0.023643   0.391894  -0.006551
    23  H   -0.000000   0.000213   0.010105  -0.026139  -0.006628   0.382618
    24  H    0.000002   0.004202  -0.001410  -0.022557  -0.007720   0.380696
    25  H   -0.000000  -0.001117  -0.008143  -0.015698   0.007848   0.383208
    26  H   -0.000000  -0.000356   0.000847  -0.014609  -0.011862   0.004767
    27  H   -0.000000  -0.000632   0.002326  -0.010285   0.003669  -0.008126
    28  H    0.000000   0.000057   0.001231   0.007177  -0.000397  -0.000254
    29  H   -0.000000  -0.001034  -0.000122  -0.014824   0.000650   0.000322
    30  H    0.000000  -0.000002  -0.000371   0.000193  -0.000000   0.000666
              13         14         15         16         17         18
     1  N    0.005210  -0.048825  -0.062553   0.313228   0.028312  -0.000004
     2  S   -0.043083   0.261223   0.373757  -0.010460  -0.008568  -0.000149
     3  C   -0.028462  -0.137668  -0.060449  -0.001764  -0.086433   0.016346
     4  C   -0.003014   0.009132  -0.004519   0.002672   0.439235  -0.063379
     5  C   -0.000027   0.000464  -0.000144  -0.000129  -0.055745   0.449623
     6  C   -0.000655  -0.000534  -0.000054  -0.000010   0.014743  -0.069480
     7  Br   0.000002  -0.000001  -0.000000   0.000000  -0.000173  -0.000044
     8  C    0.016749  -0.000524   0.000030  -0.000006  -0.002222   0.014592
     9  C   -0.049391  -0.009152  -0.005161  -0.000330   0.018110  -0.001517
    10  C    0.292680  -0.054506  -0.005562  -0.000060  -0.000109   0.000018
    11  C   -0.059593   0.004110   0.000094  -0.000002   0.000007   0.000001
    12  C   -0.070117   0.001934  -0.032780   0.000026   0.000001  -0.000000
    13  C    4.902911   0.262137   0.006931   0.000292  -0.000279   0.000001
    14  C    0.262137   5.207034  -0.087356  -0.004507   0.002465   0.000006
    15  N    0.006931  -0.087356   6.871853   0.005037  -0.000464   0.000004
    16  H    0.000292  -0.004507   0.005037   0.576255  -0.001950   0.000007
    17  H   -0.000279   0.002465  -0.000464  -0.001950   0.640002  -0.010837
    18  H    0.000001   0.000006   0.000004   0.000007  -0.010837   0.641665
    19  H    0.000997  -0.000002   0.000006   0.000000   0.000023  -0.000290
    20  H    0.008503  -0.000432   0.000003  -0.000000   0.000001   0.000000
    21  H   -0.006773  -0.000051   0.000002  -0.000000  -0.000000  -0.000000
    22  H   -0.011156   0.000416  -0.000000   0.000000  -0.000000   0.000000
    23  H   -0.009806   0.000224   0.000467  -0.000000  -0.000001   0.000000
    24  H    0.010157  -0.000452   0.000550  -0.000001   0.000001  -0.000002
    25  H   -0.002241  -0.001269   0.051394  -0.000063   0.000028   0.000001
    26  H    0.349812   0.001613   0.000129  -0.000031   0.000009   0.000000
    27  H    0.351439  -0.013173   0.020727  -0.000032  -0.000006  -0.000000
    28  H    0.000057   0.338443   0.001016  -0.000108  -0.000069  -0.000000
    29  H   -0.005216   0.334881   0.005041   0.002466  -0.000309  -0.000002
    30  H   -0.001461   0.005498   0.337091  -0.000406   0.000130  -0.000001
              19         20         21         22         23         24
     1  N    0.000001  -0.000000  -0.000000   0.000000   0.000001   0.000004
     2  S   -0.000086   0.000016   0.000058  -0.000041   0.000116  -0.000243
     3  C    0.020248  -0.001139   0.000239  -0.000248   0.000428  -0.005652
     4  C   -0.002404   0.000036  -0.000005   0.000005   0.000009  -0.000144
     5  C    0.015432  -0.000039  -0.000048   0.000004   0.000001  -0.000080
     6  C   -0.076592   0.001593   0.000417  -0.000071   0.000009  -0.000063
     7  Br   0.003729  -0.000036   0.000016  -0.000001  -0.000000   0.000002
     8  C    0.443817   0.006330  -0.000658   0.000678   0.000213   0.004202
     9  C   -0.048512  -0.023171  -0.007816   0.011034   0.010105  -0.001410
    10  C   -0.036503   0.004256  -0.016834  -0.023643  -0.026139  -0.022557
    11  C    0.019026   0.376827   0.386433   0.391894  -0.006628  -0.007720
    12  C    0.000272  -0.005988   0.009535  -0.006551   0.382618   0.380696
    13  C    0.000997   0.008503  -0.006773  -0.011156  -0.009806   0.010157
    14  C   -0.000002  -0.000432  -0.000051   0.000416   0.000224  -0.000452
    15  N    0.000006   0.000003   0.000002  -0.000000   0.000467   0.000550
    16  H    0.000000  -0.000000  -0.000000   0.000000  -0.000000  -0.000001
    17  H    0.000023   0.000001  -0.000000  -0.000000  -0.000001   0.000001
    18  H   -0.000290   0.000000  -0.000000   0.000000   0.000000  -0.000002
    19  H    0.652933   0.000860   0.000501  -0.000493  -0.000069   0.000049
    20  H    0.000860   0.628989  -0.026536  -0.018968  -0.000807   0.005270
    21  H    0.000501  -0.026536   0.642264  -0.023695   0.000114  -0.000037
    22  H   -0.000493  -0.018968  -0.023695   0.630298   0.004902  -0.000666
    23  H   -0.000069  -0.000807   0.000114   0.004902   0.647727  -0.024061
    24  H    0.000049   0.005270  -0.000037  -0.000666  -0.024061   0.648578
    25  H   -0.000026   0.000250  -0.000454   0.000057  -0.013737  -0.012684
    26  H   -0.000035   0.000796   0.003929   0.001700   0.001018  -0.000533
    27  H   -0.000032  -0.000468  -0.000173   0.001719   0.003756   0.000652
    28  H   -0.000003   0.000015  -0.000029  -0.000023  -0.000040   0.000023
    29  H   -0.000025  -0.000069   0.000413   0.000040  -0.000053   0.000035
    30  H   -0.000000  -0.000000  -0.000000  -0.000000  -0.000031  -0.000018
              25         26         27         28         29         30
     1  N    0.000464  -0.000108   0.000149   0.005216   0.001370   0.004971
     2  S   -0.001554   0.004756  -0.009524  -0.003846  -0.016414  -0.013173
     3  C    0.004414  -0.001321   0.004163   0.008172   0.010881   0.004526
     4  C   -0.000488   0.000100  -0.000007  -0.000201  -0.000888   0.000598
     5  C   -0.000056   0.000001   0.000009  -0.000014   0.000051  -0.000006
     6  C    0.000054   0.000007   0.000012   0.000009   0.000167   0.000005
     7  Br  -0.000000  -0.000000  -0.000000   0.000000  -0.000000   0.000000
     8  C   -0.001117  -0.000356  -0.000632   0.000057  -0.001034  -0.000002
     9  C   -0.008143   0.000847   0.002326   0.001231  -0.000122  -0.000371
    10  C   -0.015698  -0.014609  -0.010285   0.007177  -0.014824   0.000193
    11  C    0.007848  -0.011862   0.003669  -0.000397   0.000650  -0.000000
    12  C    0.383208   0.004767  -0.008126  -0.000254   0.000322   0.000666
    13  C   -0.002241   0.349812   0.351439   0.000057  -0.005216  -0.001461
    14  C   -0.001269   0.001613  -0.013173   0.338443   0.334881   0.005498
    15  N    0.051394   0.000129   0.020727   0.001016   0.005041   0.337091
    16  H   -0.000063  -0.000031  -0.000032  -0.000108   0.002466  -0.000406
    17  H    0.000028   0.000009  -0.000006  -0.000069  -0.000309   0.000130
    18  H    0.000001   0.000000  -0.000000  -0.000000  -0.000002  -0.000001
    19  H   -0.000026  -0.000035  -0.000032  -0.000003  -0.000025  -0.000000
    20  H    0.000250   0.000796  -0.000468   0.000015  -0.000069  -0.000000
    21  H   -0.000454   0.003929  -0.000173  -0.000029   0.000413  -0.000000
    22  H    0.000057   0.001700   0.001719  -0.000023   0.000040  -0.000000
    23  H   -0.013737   0.001018   0.003756  -0.000040  -0.000053  -0.000031
    24  H   -0.012684  -0.000533   0.000652   0.000023   0.000035  -0.000018
    25  H    0.534632  -0.000019   0.000276  -0.000161  -0.000123  -0.000914
    26  H   -0.000019   0.648891  -0.018224  -0.005789  -0.009112   0.000024
    27  H    0.000276  -0.018224   0.616614  -0.006224   0.008346  -0.000241
    28  H   -0.000161  -0.005789  -0.006224   0.592435  -0.016039   0.000240
    29  H   -0.000123  -0.009112   0.008346  -0.016039   0.628943  -0.000297
    30  H   -0.000914   0.000024  -0.000241   0.000240  -0.000297   0.526566
 Mulliken charges:
               1
     1  N   -0.411508
     2  S    0.436546
     3  C   -0.064958
     4  C   -0.013881
     5  C    0.026190
     6  C   -0.055677
     7  Br  -0.025929
     8  C   -0.004788
     9  C    0.042707
    10  C   -0.450430
    11  C    0.042366
    12  C    0.066460
    13  C    0.083395
    14  C   -0.071128
    15  N   -0.415092
    16  H    0.119872
    17  H    0.024101
    18  H    0.023443
    19  H    0.007181
    20  H    0.043907
    21  H    0.039189
    22  H    0.042810
    23  H    0.029663
    24  H    0.026107
    25  H    0.076120
    26  H    0.043601
    27  H    0.053290
    28  H    0.079106
    29  H    0.070923
    30  H    0.136414
 Sum of Mulliken charges =  -0.00000
 Mulliken charges with hydrogens summed into heavy atoms:
               1
     1  N   -0.291636
     2  S    0.436546
     3  C   -0.064958
     4  C    0.010220
     5  C    0.049633
     6  C   -0.055677
     7  Br  -0.025929
     8  C    0.002393
     9  C    0.042707
    10  C   -0.450430
    11  C    0.168272
    12  C    0.198351
    13  C    0.180286
    14  C    0.078901
    15  N   -0.278678
 Electronic spatial extent (au):  <R**2>=           5080.9964
 Charge=             -0.0000 electrons
 Dipole moment (field-independent basis, Debye):
    X=              0.4732    Y=              1.4770    Z=             -2.4770  Tot=              2.9225
 Quadrupole moment (field-independent basis, Debye-Ang):
   XX=           -116.9940   YY=           -107.2996   ZZ=           -109.6808
   XY=             -6.9255   XZ=              6.4044   YZ=             -0.2447
 Traceless Quadrupole moment (field-independent basis, Debye-Ang):
   XX=             -5.6692   YY=              4.0252   ZZ=              1.6440
   XY=             -6.9255   XZ=              6.4044   YZ=             -0.2447
 Octapole moment (field-independent basis, Debye-Ang**2):
  XXX=            120.4636  YYY=              4.1188  ZZZ=            -10.5168  XYY=             55.5456
  XXY=             18.1997  XXZ=            -12.8708  XZZ=             26.3321  YZZ=             -8.0401
  YYZ=             -2.7707  XYZ=              2.8637
 Hexadecapole moment (field-independent basis, Debye-Ang**3):
 XXXX=          -3898.7456 YYYY=          -1595.7402 ZZZZ=           -449.8950 XXXY=            -47.3039
 XXXZ=              7.9985 YYYX=            -84.5412 YYYZ=             11.2718 ZZZX=              6.9976
 ZZZY=              1.7449 XXYY=           -968.5111 XXZZ=           -714.8462 YYZZ=           -325.8805
 XXYZ=            -28.9015 YYXZ=              0.9148 ZZXY=             24.7849
 N-N= 1.513748318336D+03 E-N=-1.136762463921D+04  KE= 3.499425540287D+03
   1 Symmetry operations used in ECPInt.
 ECPInt:  NShTT=   10296 NPrTT=   39337 LenC2=    9824 LenP2D=   27418.
 LDataN:  DoStor=T MaxTD1= 5 Len=  102
 Calling FoFJK, ICntrl=      2127 FMM=F ISym2X=0 I1Cent= 0 IOpClX= 0 NMat=1 NMatS=1 NMatT=0.
 ***** Axes restored to original set *****
 -------------------------------------------------------------------
 Center     Atomic                   Forces (Hartrees/Bohr)
 Number     Number              X              Y              Z
 -------------------------------------------------------------------
      1        7          -0.004516494    0.008197117   -0.003427884
      2       16          -0.000410314   -0.001235413    0.004805307
      3        6          -0.009709499    0.002801393    0.003145606
      4        6          -0.001405866    0.001821069   -0.001654752
      5        6          -0.000440998   -0.001292633   -0.000486554
      6        6           0.015372962   -0.001737913    0.000890109
      7       35          -0.006249453    0.001070895   -0.000583837
      8        6          -0.000771924    0.000744351    0.000998935
      9        6          -0.000931721   -0.006053591   -0.000748745
     10        6           0.001840345   -0.009582234   -0.003919257
     11        6          -0.003864958    0.010866100   -0.002513942
     12        6           0.002871153   -0.000098836    0.005323457
     13        6           0.004452621    0.005900841    0.001912860
     14        6           0.002619151    0.001525166   -0.014401542
     15        7           0.004071476   -0.018926700   -0.004741376
     16        1           0.005175464   -0.000327271    0.011375351
     17        1          -0.004060064    0.009305076    0.000825562
     18        1           0.005292854    0.006999596    0.000640026
     19        1           0.002894673   -0.008349176    0.000007026
     20        1           0.007488981   -0.002395420   -0.003990587
     21        1           0.002751658   -0.001109206    0.008419342
     22        1          -0.005181033   -0.006159958   -0.001158088
     23        1          -0.005166398   -0.007868255   -0.002489346
     24        1           0.007621070   -0.001111277   -0.003844973
     25        1          -0.004094365    0.005332838   -0.003321182
     26        1          -0.001587057   -0.003733523    0.003821267
     27        1          -0.004953855   -0.002222054   -0.003083605
     28        1          -0.008110853    0.004295734    0.000717248
     29        1           0.004386580    0.002661159    0.006091628
     30        1          -0.005384135    0.010682124    0.001391944
 -------------------------------------------------------------------
 Cartesian Forces:  Max     0.018926700 RMS     0.005531079

 GradGradGradGradGradGradGradGradGradGradGradGradGradGradGradGradGradGrad
 Berny optimization.
 FormGI is forming the generalized inverse of G from B-inverse, IUseBI=4.
 Internal  Forces:  Max     0.013663926 RMS     0.003941263
 Search for a local minimum.
 Step number   1 out of a maximum of  180
 All quantities printed in internal units (Hartrees-Bohrs-Radians)
 Mixed Optimization -- RFO/linear search
 Second derivative matrix not updated -- first step.
 ITU=  0
     Eigenvalues ---    0.00233   0.00312   0.00441   0.00843   0.01265
     Eigenvalues ---    0.01321   0.01672   0.02238   0.02274   0.02302
     Eigenvalues ---    0.02315   0.02318   0.02328   0.02845   0.03534
     Eigenvalues ---    0.03603   0.03682   0.04384   0.04834   0.05329
     Eigenvalues ---    0.05400   0.05506   0.05571   0.05642   0.05701
     Eigenvalues ---    0.05806   0.06708   0.07563   0.07708   0.08481
     Eigenvalues ---    0.08883   0.10273   0.10993   0.12112   0.13746
     Eigenvalues ---    0.15999   0.16000   0.16000   0.16000   0.16000
     Eigenvalues ---    0.16000   0.16000   0.16000   0.16000   0.16000
     Eigenvalues ---    0.16000   0.16437   0.17948   0.19292   0.21556
     Eigenvalues ---    0.22096   0.22425   0.23513   0.24550   0.24874
     Eigenvalues ---    0.25000   0.26744   0.28492   0.29028   0.29115
     Eigenvalues ---    0.30730   0.34503   0.34760   0.34906   0.34994
     Eigenvalues ---    0.35018   0.35062   0.35077   0.35094   0.35096
     Eigenvalues ---    0.35184   0.35995   0.36184   0.36344   0.41547
     Eigenvalues ---    0.43410   0.46450   0.46647   0.46767   0.47764
     Eigenvalues ---    0.48474   0.48714   0.67315   0.68777
 RFO step:  Lambda=-1.18514033D-02 EMin= 2.32738493D-03
 Linear search not attempted -- first point.
 Iteration  1 RMS(Cart)=  0.09983516 RMS(Int)=  0.00275766
 Iteration  2 RMS(Cart)=  0.00463058 RMS(Int)=  0.00029294
 Iteration  3 RMS(Cart)=  0.00001022 RMS(Int)=  0.00029290
 Iteration  4 RMS(Cart)=  0.00000000 RMS(Int)=  0.00029290
 Variable       Old X    -DE/DX   Delta X   Delta X   Delta X     New X
                                 (Linear)    (Quad)   (Total)
    R1        2.89282   0.00983   0.00000   0.01435   0.01435   2.90716
    R2        1.90327   0.01219   0.00000   0.02559   0.02559   1.92886
    R3        3.43059  -0.00118   0.00000  -0.00078  -0.00092   3.42968
    R4        3.47894  -0.00833   0.00000  -0.04020  -0.04047   3.43847
    R5        2.88304   0.00517   0.00000   0.00738   0.00738   2.89042
    R6        2.61043   0.00857   0.00000   0.01840   0.01836   2.62879
    R7        2.63170   0.01366   0.00000   0.03387   0.03370   2.66540
    R8        2.61233   0.00884   0.00000   0.01701   0.01705   2.62938
    R9        2.04089   0.01014   0.00000   0.02727   0.02727   2.06816
   R10        2.61421   0.00920   0.00000   0.01648   0.01657   2.63078
   R11        2.03795   0.00880   0.00000   0.02354   0.02354   2.06149
   R12        3.60234  -0.00636   0.00000  -0.03327  -0.03327   3.56908
   R13        2.61595   0.00941   0.00000   0.01772   0.01776   2.63371
   R14        2.63106   0.00751   0.00000   0.01636   0.01633   2.64739
   R15        2.03547   0.00879   0.00000   0.02342   0.02342   2.05890
   R16        2.86299   0.00678   0.00000   0.02273   0.02266   2.88566
   R17        2.89944  -0.00033   0.00000  -0.00109  -0.00109   2.89835
   R18        2.91076   0.00415   0.00000   0.01397   0.01397   2.92473
   R19        2.93633   0.00721   0.00000   0.02379   0.02409   2.96042
   R20        2.05378   0.00872   0.00000   0.02398   0.02398   2.07776
   R21        2.05685   0.00884   0.00000   0.02442   0.02442   2.08127
   R22        2.05550   0.00813   0.00000   0.02241   0.02241   2.07792
   R23        2.05523   0.00973   0.00000   0.02682   0.02682   2.08205
   R24        2.05645   0.00853   0.00000   0.02356   0.02356   2.08001
   R25        2.05519   0.00736   0.00000   0.02028   0.02028   2.07546
   R26        2.85787   0.00592   0.00000   0.01538   0.01569   2.87357
   R27        2.06489   0.00544   0.00000   0.01525   0.01525   2.08015
   R28        2.06066   0.00588   0.00000   0.01635   0.01635   2.07701
   R29        2.05575   0.00806   0.00000   0.02224   0.02224   2.07798
   R30        2.05827   0.00780   0.00000   0.02162   0.02162   2.07989
   R31        1.89976   0.01063   0.00000   0.02218   0.02218   1.92193
    A1        1.99949  -0.00512   0.00000  -0.02979  -0.02979   1.96970
    A2        1.97233  -0.00193   0.00000  -0.01788  -0.01789   1.95443
    A3        2.01188  -0.00112   0.00000  -0.02158  -0.02099   1.99090
    A4        1.98755   0.00469   0.00000   0.03704   0.03683   2.02438
    A5        1.61866   0.00005   0.00000   0.00602   0.00536   1.62402
    A6        1.92674   0.00072   0.00000   0.00955   0.00960   1.93635
    A7        1.91423  -0.00348   0.00000  -0.02017  -0.02034   1.89389
    A8        2.04571  -0.00232   0.00000  -0.02828  -0.02754   2.01817
    A9        2.09714   0.00096   0.00000   0.02707   0.02617   2.12330
   A10        2.13379   0.00122   0.00000   0.00051   0.00065   2.13444
   A11        2.10412  -0.00183   0.00000  -0.00238  -0.00254   2.10159
   A12        2.06748   0.00118   0.00000   0.00274   0.00279   2.07027
   A13        2.11158   0.00065   0.00000  -0.00037  -0.00032   2.11126
   A14        2.05332   0.00128   0.00000   0.00397   0.00394   2.05726
   A15        2.11801  -0.00072   0.00000  -0.00246  -0.00248   2.11553
   A16        2.11179  -0.00058   0.00000  -0.00164  -0.00166   2.11013
   A17        2.08135  -0.00048   0.00000  -0.00071  -0.00072   2.08063
   A18        2.13006   0.00028   0.00000  -0.00114  -0.00116   2.12890
   A19        2.07177   0.00020   0.00000   0.00187   0.00187   2.07364
   A20        2.10517   0.00010   0.00000   0.00386   0.00370   2.10887
   A21        2.06787   0.00086   0.00000   0.00333   0.00337   2.07124
   A22        2.11015  -0.00096   0.00000  -0.00722  -0.00718   2.10297
   A23        2.03953  -0.00108   0.00000  -0.00525  -0.00532   2.03420
   A24        2.11516   0.00174   0.00000   0.02429   0.02342   2.13857
   A25        2.12297  -0.00048   0.00000  -0.01557  -0.01515   2.10782
   A26        1.95740   0.00014   0.00000  -0.00858  -0.00843   1.94896
   A27        1.83346   0.00339   0.00000   0.02156   0.02168   1.85514
   A28        1.99025  -0.00453   0.00000  -0.01824  -0.01899   1.97126
   A29        1.89222  -0.00349   0.00000  -0.01649  -0.01656   1.87567
   A30        1.88695   0.00306   0.00000  -0.00037  -0.00043   1.88651
   A31        1.90043   0.00137   0.00000   0.02340   0.02376   1.92419
   A32        1.94507   0.00124   0.00000   0.00754   0.00752   1.95259
   A33        1.94059   0.00148   0.00000   0.00865   0.00864   1.94922
   A34        1.90709  -0.00030   0.00000  -0.00211  -0.00211   1.90499
   A35        1.90437  -0.00140   0.00000  -0.00753  -0.00756   1.89680
   A36        1.87209  -0.00045   0.00000  -0.00265  -0.00265   1.86944
   A37        1.89266  -0.00068   0.00000  -0.00463  -0.00463   1.88803
   A38        1.91735  -0.00060   0.00000  -0.00595  -0.00596   1.91138
   A39        1.92924  -0.00063   0.00000  -0.00364  -0.00369   1.92556
   A40        1.91651   0.00233   0.00000   0.01595   0.01594   1.93245
   A41        1.89338  -0.00002   0.00000  -0.00480  -0.00484   1.88853
   A42        1.90301  -0.00088   0.00000  -0.00524  -0.00521   1.89780
   A43        1.90397  -0.00022   0.00000   0.00344   0.00340   1.90737
   A44        2.02729   0.00011   0.00000   0.01733   0.01655   2.04384
   A45        1.90503   0.00102   0.00000  -0.00564  -0.00536   1.89968
   A46        1.88633   0.00003   0.00000   0.00989   0.00953   1.89585
   A47        1.88722  -0.00121   0.00000  -0.02805  -0.02784   1.85938
   A48        1.87085   0.00065   0.00000   0.01736   0.01719   1.88805
   A49        1.88227  -0.00069   0.00000  -0.01245  -0.01237   1.86990
   A50        1.88531   0.00717   0.00000   0.04812   0.04734   1.93265
   A51        1.89537  -0.00508   0.00000  -0.03938  -0.03990   1.85548
   A52        1.84620  -0.00275   0.00000  -0.02091  -0.02093   1.82527
   A53        1.94272   0.00144   0.00000   0.02063   0.02146   1.96418
   A54        1.97259  -0.00223   0.00000  -0.00866  -0.00822   1.96438
   A55        1.91740   0.00116   0.00000  -0.00275  -0.00361   1.91378
   A56        1.96445  -0.01072   0.00000  -0.06239  -0.06239   1.90207
    D1       -0.97307   0.00132   0.00000   0.00697   0.00697  -0.96610
    D2        0.85861  -0.00041   0.00000  -0.00852  -0.00832   0.85029
    D3        3.09332  -0.00206   0.00000  -0.02276  -0.02296   3.07037
    D4       -0.30261  -0.00325   0.00000  -0.07061  -0.07079  -0.37340
    D5        2.71902  -0.00442   0.00000  -0.07712  -0.07728   2.64175
    D6       -2.37941  -0.00145   0.00000  -0.04423  -0.04498  -2.42439
    D7        0.64223  -0.00262   0.00000  -0.05075  -0.05147   0.59076
    D8        1.94593   0.00216   0.00000  -0.02680  -0.02710   1.91883
    D9       -1.31562   0.00099   0.00000  -0.03332  -0.03359  -1.34920
   D10        3.04875   0.00373   0.00000   0.07851   0.07853   3.12728
   D11        0.93967   0.00075   0.00000   0.04830   0.04897   0.98864
   D12       -1.11763   0.00338   0.00000   0.08219   0.08190  -1.03573
   D13       -1.19092   0.00122   0.00000   0.05501   0.05510  -1.13583
   D14        2.98318  -0.00177   0.00000   0.02480   0.02554   3.00872
   D15        0.92588   0.00086   0.00000   0.05869   0.05847   0.98434
   D16        0.77794   0.00132   0.00000   0.06371   0.06346   0.84141
   D17       -1.33114  -0.00167   0.00000   0.03350   0.03391  -1.29723
   D18        2.89475   0.00096   0.00000   0.06739   0.06683   2.96158
   D19       -0.03829   0.00068   0.00000   0.00702   0.00735  -0.03094
   D20       -2.27856  -0.00116   0.00000  -0.00722  -0.00788  -2.28644
   D21        2.24556   0.00002   0.00000  -0.00930  -0.00897   2.23659
   D22        3.02239  -0.00115   0.00000  -0.00663  -0.00647   3.01592
   D23       -0.11908  -0.00060   0.00000   0.00571   0.00584  -0.11324
   D24        0.00346   0.00007   0.00000  -0.00187  -0.00180   0.00166
   D25       -3.13801   0.00062   0.00000   0.01047   0.01051  -3.12750
   D26       -2.99950   0.00237   0.00000   0.02873   0.02845  -2.97105
   D27        0.25319   0.00054   0.00000  -0.00496  -0.00582   0.24737
   D28        0.01592   0.00088   0.00000   0.01999   0.01972   0.03563
   D29       -3.01458  -0.00095   0.00000  -0.01370  -0.01455  -3.02913
   D30       -0.02397  -0.00060   0.00000  -0.00922  -0.00916  -0.03313
   D31        3.12931   0.00009   0.00000   0.00348   0.00347   3.13278
   D32        3.11749  -0.00116   0.00000  -0.02188  -0.02176   3.09573
   D33       -0.01241  -0.00047   0.00000  -0.00918  -0.00913  -0.02154
   D34       -3.11852   0.00057   0.00000   0.00988   0.00983  -3.10869
   D35        0.02561   0.00016   0.00000   0.00155   0.00153   0.02714
   D36        0.01143  -0.00012   0.00000  -0.00278  -0.00276   0.00867
   D37       -3.12762  -0.00053   0.00000  -0.01110  -0.01107  -3.13869
   D38       -0.00633   0.00088   0.00000   0.01749   0.01747   0.01113
   D39        3.13339   0.00031   0.00000   0.00433   0.00432   3.13771
   D40        3.13778   0.00047   0.00000   0.00921   0.00920  -3.13620
   D41       -0.00568  -0.00009   0.00000  -0.00394  -0.00395  -0.00963
   D42       -0.01440  -0.00133   0.00000  -0.02736  -0.02712  -0.04152
   D43        3.01556   0.00066   0.00000   0.00922   0.00913   3.02469
   D44        3.12910  -0.00075   0.00000  -0.01390  -0.01374   3.11536
   D45       -0.12412   0.00124   0.00000   0.02268   0.02250  -0.10162
   D46       -2.88937   0.00331   0.00000   0.10556   0.10543  -2.78394
   D47        1.34202   0.00539   0.00000   0.11679   0.11673   1.45875
   D48       -0.73732   0.00399   0.00000   0.08396   0.08395  -0.65336
   D49        0.36866   0.00142   0.00000   0.06942   0.06899   0.43765
   D50       -1.68313   0.00350   0.00000   0.08065   0.08029  -1.60284
   D51        2.52072   0.00210   0.00000   0.04783   0.04751   2.56822
   D52       -1.15154  -0.00165   0.00000   0.00121   0.00093  -1.15061
   D53        0.97730  -0.00154   0.00000   0.00295   0.00270   0.97999
   D54        3.06582  -0.00165   0.00000   0.00123   0.00097   3.06678
   D55        0.86489   0.00042   0.00000   0.01256   0.01254   0.87743
   D56        2.99373   0.00053   0.00000   0.01430   0.01430   3.00803
   D57       -1.20094   0.00042   0.00000   0.01259   0.01257  -1.18837
   D58        2.92257   0.00182   0.00000   0.03114   0.03140   2.95397
   D59       -1.23177   0.00193   0.00000   0.03288   0.03316  -1.19861
   D60        0.85674   0.00181   0.00000   0.03116   0.03144   0.88818
   D61        3.02616   0.00094   0.00000   0.00911   0.00906   3.03522
   D62        0.93728   0.00175   0.00000   0.02114   0.02107   0.95835
   D63       -1.16421   0.00092   0.00000   0.00889   0.00881  -1.15540
   D64        0.93057   0.00071   0.00000   0.01578   0.01575   0.94632
   D65       -1.15831   0.00152   0.00000   0.02782   0.02777  -1.13054
   D66        3.02338   0.00069   0.00000   0.01557   0.01551   3.03888
   D67       -1.11851  -0.00175   0.00000   0.01249   0.01263  -1.10588
   D68        3.07580  -0.00093   0.00000   0.02452   0.02464   3.10044
   D69        0.97430  -0.00176   0.00000   0.01228   0.01238   0.98668
   D70        0.06999   0.00035   0.00000  -0.05868  -0.05895   0.01104
   D71       -2.06829   0.00105   0.00000  -0.02942  -0.02953  -2.09781
   D72        2.17215   0.00130   0.00000  -0.01704  -0.01716   2.15499
   D73        2.25980  -0.00034   0.00000  -0.08333  -0.08349   2.17631
   D74        0.12151   0.00036   0.00000  -0.05408  -0.05406   0.06745
   D75       -1.92123   0.00061   0.00000  -0.04170  -0.04169  -1.96293
   D76       -1.97097  -0.00205   0.00000  -0.09034  -0.09042  -2.06139
   D77        2.17394  -0.00135   0.00000  -0.06109  -0.06100   2.11294
   D78        0.13119  -0.00110   0.00000  -0.04870  -0.04862   0.08256
   D79        0.93058  -0.00005   0.00000   0.00936   0.00918   0.93975
   D80        3.00987  -0.00093   0.00000   0.00351   0.00387   3.01374
   D81       -1.10580   0.00004   0.00000   0.00934   0.00952  -1.09628
   D82        3.07819   0.00042   0.00000  -0.00820  -0.00855   3.06964
   D83       -1.12570  -0.00046   0.00000  -0.01405  -0.01385  -1.13955
   D84        1.04182   0.00051   0.00000  -0.00821  -0.00821   1.03361
   D85       -1.17987  -0.00066   0.00000  -0.02792  -0.02834  -1.20820
   D86        0.89943  -0.00154   0.00000  -0.03377  -0.03364   0.86579
   D87        3.06695  -0.00057   0.00000  -0.02793  -0.02800   3.03895
         Item               Value     Threshold  Converged?
 Maximum Force            0.013664     0.000450     NO 
 RMS     Force            0.003941     0.000300     NO 
 Maximum Displacement     0.400639     0.001800     NO 
 RMS     Displacement     0.100434     0.001200     NO 
 Predicted change in Energy=-6.975602D-03
 GradGradGradGradGradGradGradGradGradGradGradGradGradGradGradGradGradGrad

                          Input orientation:                          
 ---------------------------------------------------------------------
 Center     Atomic      Atomic             Coordinates (Angstroms)
 Number     Number       Type             X           Y           Z
 ---------------------------------------------------------------------
      1          7           0       -3.058241    2.393753    0.684202
      2         16           0       -2.766764    1.051399   -0.008481
      3          6           0       -0.986503    0.715775   -0.117659
      4          6           0       -0.157263    1.828431   -0.020193
      5          6           0        1.223201    1.673278    0.058971
      6          6           0        1.732516    0.377777    0.077803
      7         35           0        3.596945    0.122603    0.238667
      8          6           0        0.906702   -0.741328   -0.011846
      9          6           0       -0.481390   -0.600974   -0.138861
     10          6           0       -1.369905   -1.817399   -0.389167
     11          6           0       -0.720229   -3.108447    0.124137
     12          6           0       -1.507755   -1.945640   -1.925373
     13          6           0       -2.783687   -1.687670    0.273095
     14          6           0       -3.076023   -0.405576    1.036689
     15          7           0       -3.448267    0.832845   -1.360255
     16          1           0       -2.634295    2.462343    1.610165
     17          1           0       -0.614551    2.822433    0.004576
     18          1           0        1.886106    2.536934    0.127570
     19          1           0        1.363142   -1.730495    0.004461
     20          1           0        0.189499   -3.361311   -0.439212
     21          1           0       -0.465022   -3.038363    1.193227
     22          1           0       -1.424117   -3.943056   -0.006484
     23          1           0       -2.050364   -2.872787   -2.170076
     24          1           0       -0.513801   -1.994575   -2.395683
     25          1           0       -2.062801   -1.092604   -2.338278
     26          1           0       -2.919431   -2.514999    0.986386
     27          1           0       -3.548869   -1.804025   -0.507283
     28          1           0       -4.124970   -0.337065    1.359466
     29          1           0       -2.412232   -0.270235    1.904129
     30          1           0       -4.030459    1.639581   -1.571460
 ---------------------------------------------------------------------
                    Distance matrix (angstroms):
                    1          2          3          4          5
     1  N    0.000000
     2  S    1.538403   0.000000
     3  C    2.784006   1.814908   0.000000
     4  C    3.038328   2.722758   1.391093   0.000000
     5  C    4.386427   4.038700   2.414705   1.391409   0.000000
     6  C    5.232899   4.550245   2.746909   2.384379   1.392148
     7  Br   7.046143   6.435879   4.635388   4.131699   2.841047
     8  C    5.102351   4.087570   2.391353   2.781322   2.436290
     9  C    4.035590   2.823167   1.410467   2.453803   2.849033
    10  C    4.662231   3.213430   2.576370   3.859885   4.371481
    11  C    6.004514   4.637910   3.841100   4.970968   5.161982
    12  C    5.295679   3.773833   3.259243   4.438147   4.948970
    13  C    4.111253   2.753556   3.026402   4.398532   5.234212
    14  C    2.821490   1.819559   2.637431   3.824519   4.874514
    15  N    2.601607   1.529545   2.760079   3.690212   4.954104
    16  H    1.020706   2.151354   2.958225   3.032425   4.231915
    17  H    2.572407   2.787248   2.142731   1.094425   2.168144
    18  H    4.977641   4.886156   3.410080   2.167757   1.090895
    19  H    6.084415   4.979480   3.394110   3.870167   3.407085
    20  H    6.703032   5.328886   4.255469   5.218165   5.163701
    21  H    6.040843   4.844406   4.010477   5.025215   5.131880
    22  H    6.580467   5.171777   4.680659   5.908905   6.209330
    23  H    6.074468   4.537064   4.268722   5.505204   6.029227
    24  H    5.934416   4.478006   3.571952   4.515024   4.742957
    25  H    4.720272   3.243496   3.059379   4.187724   4.918812
    26  H    4.920003   3.705707   3.923395   5.244822   5.963485
    27  H    4.391092   3.002322   3.614819   4.993494   5.931688
    28  H    3.008530   2.375676   3.624961   4.726048   5.859667
    29  H    3.000397   2.351699   2.663184   3.632121   4.516439
    30  H    2.569435   2.094227   3.497517   4.176570   5.500944
                    6          7          8          9         10
     6  C    0.000000
     7  Br   1.888674   0.000000
     8  C    1.393701   2.836643   0.000000
     9  C    2.430283   4.159195   1.400939   0.000000
    10  C    3.829082   5.369114   2.546220   1.527023   0.000000
    11  C    4.262847   5.393588   2.875526   2.532515   1.533743
    12  C    4.462100   5.917657   3.307802   2.460321   1.547701
    13  C    4.969940   6.632552   3.820435   2.578990   1.566589
[...]
     3  C    0.001545   0.107811   0.107492  -0.183909  -0.001316   0.007190
     4  C    0.017931  -0.184954   0.019784   0.038383  -0.002421  -0.000114
     5  C   -0.069608   0.057516  -0.113564  -0.000742   0.000155  -0.000659
     6  C    0.304437   0.369737   0.059431   0.005328   0.002672   0.005700
     7  Br  34.876945  -0.064832   0.017907  -0.001969   0.000008   0.000030
     8  C   -0.064832   5.479018   0.205309  -0.083047  -0.002133  -0.005124
     9  C    0.017907   0.205309   5.631155   0.219106  -0.070630  -0.070766
    10  C   -0.001969  -0.083047   0.219106   5.181892   0.362417   0.326209
    11  C    0.000008  -0.002133  -0.070630   0.362417   5.027087  -0.064399
    12  C    0.000030  -0.005124  -0.070766   0.326209  -0.064399   5.049676
    13  C    0.000041   0.026906  -0.060814   0.227593  -0.049263  -0.055155
    14  C   -0.000006  -0.008629  -0.029922   0.059231  -0.002399   0.009604
    15  N   -0.000003   0.000128   0.015957  -0.002918  -0.000413  -0.001269
    16  H   -0.000000   0.000532  -0.002017   0.000439   0.000054   0.000020
    17  H   -0.000360  -0.004167   0.020909   0.000748  -0.000033  -0.000005
    18  H   -0.004787   0.016456  -0.002512   0.000123  -0.000001  -0.000005
    19  H   -0.000434   0.452454  -0.114148   0.010302  -0.003079  -0.002761
    20  H    0.000148   0.005535  -0.013364  -0.023750   0.398987  -0.011770
    21  H    0.000005  -0.000595  -0.011064  -0.025726   0.401461   0.012676
    22  H   -0.000003  -0.000938   0.016474  -0.037619   0.397425  -0.005259
    23  H   -0.000004  -0.000930   0.021085  -0.036698  -0.007600   0.397668
    24  H    0.000137   0.007389  -0.029043  -0.023727  -0.007268   0.402448
    25  H    0.000015  -0.003809  -0.008265  -0.026867   0.011866   0.409473
    26  H   -0.000001  -0.001646   0.016170  -0.031022  -0.013144  -0.011458
    27  H   -0.000001   0.000196  -0.012423   0.003189   0.008481  -0.010459
    28  H    0.000000   0.000223   0.000561   0.001187   0.000240  -0.000017
    29  H   -0.000000   0.000395  -0.006082   0.005742   0.000105   0.000161
    30  H    0.000000  -0.000152  -0.002963   0.000917   0.000014  -0.000008
              13         14         15         16         17         18
     1  N    0.006507  -0.045728  -0.074621   0.272528   0.031121   0.000058
     2  S   -0.012294   0.297405   0.548448   0.014774  -0.010027  -0.000138
     3  C    0.067464  -0.091424  -0.049009   0.010145  -0.106424   0.013792
     4  C   -0.019015   0.049423  -0.022749  -0.010435   0.453864  -0.068293
     5  C   -0.000363  -0.001203  -0.000547  -0.000112  -0.050718   0.447937
     6  C   -0.000082   0.000444   0.000058  -0.000301   0.013244  -0.064925
     7  Br   0.000041  -0.000006  -0.000003  -0.000000  -0.000360  -0.004787
     8  C    0.026906  -0.008629   0.000128   0.000532  -0.004167   0.016456
     9  C   -0.060814  -0.029922   0.015957  -0.002017   0.020909  -0.002512
    10  C    0.227593   0.059231  -0.002918   0.000439   0.000748   0.000123
    11  C   -0.049263  -0.002399  -0.000413   0.000054  -0.000033  -0.000001
    12  C   -0.055155   0.009604  -0.001269   0.000020  -0.000005  -0.000005
    13  C    5.263831   0.153922  -0.018378   0.000706  -0.001046  -0.000013
    14  C    0.153922   5.158040  -0.084544  -0.008633   0.003587  -0.000002
    15  N   -0.018378  -0.084544   6.875301   0.008307  -0.003140   0.000023
    16  H    0.000706  -0.008633   0.008307   0.499919  -0.005889   0.000025
    17  H   -0.001046   0.003587  -0.003140  -0.005889   0.504789  -0.006826
    18  H   -0.000013  -0.000002   0.000023   0.000025  -0.006826   0.529812
    19  H    0.001041  -0.000102   0.000028   0.000005   0.000020  -0.000047
    20  H    0.013574  -0.000462   0.000006  -0.000007   0.000005  -0.000001
    21  H   -0.011904   0.004315  -0.000023   0.000013   0.000014  -0.000001
    22  H   -0.010374  -0.000431   0.000010  -0.000003  -0.000000   0.000000
    23  H   -0.013773   0.001162   0.000023  -0.000000   0.000000   0.000000
    24  H    0.013596  -0.000811   0.000021  -0.000000   0.000001  -0.000002
    25  H   -0.011511  -0.000312   0.000621  -0.000002   0.000002  -0.000000
    26  H    0.364933  -0.008757   0.001203  -0.000055   0.000015   0.000000
    27  H    0.386112  -0.027955   0.016289  -0.000100  -0.000008   0.000001
    28  H    0.002628   0.357488   0.009776  -0.000070  -0.000100  -0.000000
    29  H   -0.041665   0.390557   0.005086   0.002789  -0.000312   0.000002
    30  H   -0.001410   0.011186   0.311845  -0.000056   0.001565  -0.000012
              19         20         21         22         23         24
     1  N    0.000009  -0.000003  -0.000076  -0.000006   0.000001  -0.000000
     2  S    0.000023   0.000028  -0.000817  -0.000027   0.000095   0.000038
     3  C    0.013456   0.000382   0.002864   0.000303  -0.000533  -0.000445
     4  C   -0.006194   0.000096  -0.000063   0.000106   0.000034   0.000059
     5  C    0.019108   0.000026  -0.000015  -0.000015   0.000012  -0.000011
     6  C   -0.045080  -0.000683  -0.000083  -0.000063  -0.000182   0.001826
     7  Br  -0.000434   0.000148   0.000005  -0.000003  -0.000004   0.000137
     8  C    0.452454   0.005535  -0.000595  -0.000938  -0.000930   0.007389
     9  C   -0.114148  -0.013364  -0.011064   0.016474   0.021085  -0.029043
    10  C    0.010302  -0.023750  -0.025726  -0.037619  -0.036698  -0.023727
    11  C   -0.003079   0.398987   0.401461   0.397425  -0.007600  -0.007268
    12  C   -0.002761  -0.011770   0.012676  -0.005259   0.397668   0.402448
    13  C    0.001041   0.013574  -0.011904  -0.010374  -0.013773   0.013596
    14  C   -0.000102  -0.000462   0.004315  -0.000431   0.001162  -0.000811
    15  N    0.000028   0.000006  -0.000023   0.000010   0.000023   0.000021
    16  H    0.000005  -0.000007   0.000013  -0.000003  -0.000000  -0.000000
    17  H    0.000020   0.000005   0.000014  -0.000000   0.000000   0.000001
    18  H   -0.000047  -0.000001  -0.000001   0.000000   0.000000  -0.000002
    19  H    0.540580   0.001919   0.000117  -0.000121  -0.000143   0.004910
    20  H    0.001919   0.533485  -0.019946  -0.019415   0.000016   0.002712
    21  H    0.000117  -0.019946   0.547183  -0.021960  -0.000062  -0.000083
    22  H   -0.000121  -0.019415  -0.021960   0.545076   0.002220  -0.000046
    23  H   -0.000143   0.000016  -0.000062   0.002220   0.544862  -0.021972
    24  H    0.004910   0.002712  -0.000083  -0.000046  -0.021972   0.542629
    25  H   -0.000537  -0.000083  -0.000417  -0.000141  -0.019639  -0.020120
    26  H   -0.000054   0.000335   0.000101   0.004645   0.006296  -0.000164
    27  H   -0.000062  -0.000296  -0.000452   0.000220  -0.001322   0.000426
    28  H   -0.000003   0.000006   0.000078  -0.000150  -0.000055   0.000011
    29  H   -0.000006  -0.000106   0.000152   0.000106  -0.000027   0.000013
    30  H    0.000000  -0.000000   0.000003   0.000000  -0.000000   0.000000
              25         26         27         28         29         30
     1  N    0.000007  -0.000240   0.001134   0.006948   0.004114  -0.005089
     2  S    0.000333   0.005080  -0.001701  -0.023723  -0.018079  -0.011183
     3  C    0.002475  -0.000806  -0.004201   0.010020   0.005093  -0.011889
     4  C    0.000095   0.000663  -0.000765  -0.001498  -0.004364   0.009158
     5  C   -0.000118  -0.000011   0.000126   0.000012   0.000262  -0.000384
     6  C    0.000311  -0.000007   0.000048   0.000001  -0.000077   0.000132
     7  Br   0.000015  -0.000001  -0.000001   0.000000  -0.000000   0.000000
     8  C   -0.003809  -0.001646   0.000196   0.000223   0.000395  -0.000152
     9  C   -0.008265   0.016170  -0.012423   0.000561  -0.006082  -0.002963
    10  C   -0.026867  -0.031022   0.003189   0.001187   0.005742   0.000917
    11  C    0.011866  -0.013144   0.008481   0.000240   0.000105   0.000014
    12  C    0.409473  -0.011458  -0.010459  -0.000017   0.000161  -0.000008
    13  C   -0.011511   0.364933   0.386112   0.002628  -0.041665  -0.001410
    14  C   -0.000312  -0.008757  -0.027955   0.357488   0.390557   0.011186
    15  N    0.000621   0.001203   0.016289   0.009776   0.005086   0.311845
    16  H   -0.000002  -0.000055  -0.000100  -0.000070   0.002789  -0.000056
    17  H    0.000002   0.000015  -0.000008  -0.000100  -0.000312   0.001565
    18  H   -0.000000   0.000000   0.000001  -0.000000   0.000002  -0.000012
    19  H   -0.000537  -0.000054  -0.000062  -0.000003  -0.000006   0.000000
    20  H   -0.000083   0.000335  -0.000296   0.000006  -0.000106  -0.000000
    21  H   -0.000417   0.000101  -0.000452   0.000078   0.000152   0.000003
    22  H   -0.000141   0.004645   0.000220  -0.000150   0.000106   0.000000
    23  H   -0.019639   0.006296  -0.001322  -0.000055  -0.000027  -0.000000
    24  H   -0.020120  -0.000164   0.000426   0.000011   0.000013   0.000000
    25  H    0.517270  -0.000040   0.004058  -0.000038  -0.000024   0.000009
    26  H   -0.000040   0.578178  -0.018321  -0.009681  -0.002252   0.000033
    27  H    0.004058  -0.018321   0.497420  -0.000990   0.005528  -0.001141
    28  H   -0.000038  -0.009681  -0.000990   0.504748  -0.012049  -0.000782
    29  H   -0.000024  -0.002252   0.005528  -0.012049   0.534854  -0.000556
    30  H    0.000009   0.000033  -0.001141  -0.000782  -0.000556   0.479257
 Mulliken charges:
               1
     1  N   -0.557372
     2  S    0.542044
     3  C   -0.108514
     4  C   -0.134824
     5  C   -0.225082
     6  C    0.180023
     7  Br  -0.077159
     8  C   -0.372747
     9  C    0.202084
    10  C    0.042093
    11  C   -0.386897
    12  C   -0.379632
    13  C   -0.221794
    14  C   -0.185043
    15  N   -0.535517
    16  H    0.217425
    17  H    0.159175
    18  H    0.139338
    19  H    0.128800
    20  H    0.132625
    21  H    0.124305
    22  H    0.129984
    23  H    0.129465
    24  H    0.127478
    25  H    0.145387
    26  H    0.120007
    27  H    0.156969
    28  H    0.155231
    29  H    0.130639
    30  H    0.221508
 Sum of Mulliken charges =  -0.00000
 Mulliken charges with hydrogens summed into heavy atoms:
               1
     1  N   -0.339946
     2  S    0.542044
     3  C   -0.108514
     4  C    0.024351
     5  C   -0.085743
     6  C    0.180023
     7  Br  -0.077159
     8  C   -0.243947
     9  C    0.202084
    10  C    0.042093
    11  C    0.000017
    12  C    0.022699
    13  C    0.055181
    14  C    0.100827
    15  N   -0.314009
 Electronic spatial extent (au):  <R**2>=           5158.2110
 Charge=             -0.0000 electrons
 Dipole moment (field-independent basis, Debye):
    X=              1.3503    Y=              3.0061    Z=             -1.5778  Tot=              3.6536
 Quadrupole moment (field-independent basis, Debye-Ang):
   XX=           -123.4338   YY=           -107.2585   ZZ=           -111.5345
   XY=            -13.1531   XZ=              4.9409   YZ=             -1.2315
 Traceless Quadrupole moment (field-independent basis, Debye-Ang):
   XX=             -9.3582   YY=              6.8171   ZZ=              2.5411
   XY=            -13.1531   XZ=              4.9409   YZ=             -1.2315
 Octapole moment (field-independent basis, Debye-Ang**2):
  XXX=            148.7880  YYY=              6.4817  ZZZ=             -5.7680  XYY=             59.6915
  XXY=             46.4385  XXZ=            -15.9145  XZZ=             35.6238  YZZ=             -7.5724
  YYZ=              8.9347  XYZ=              5.8509
 Hexadecapole moment (field-independent basis, Debye-Ang**3):
 XXXX=          -4112.3708 YYYY=          -1711.3055 ZZZZ=           -442.8410 XXXY=           -181.9705
 XXXZ=             62.1493 YYYX=           -102.8390 YYYZ=            -26.9014 ZZZX=             24.5311
 ZZZY=              3.6654 XXYY=          -1020.3090 XXZZ=           -778.6085 YYZZ=           -347.9661
 XXYZ=            -20.5959 YYXZ=            -30.9933 ZZXY=             10.4276
 N-N= 1.502057454184D+03 E-N=-1.134865820588D+04  KE= 3.502247822575D+03
 Breneman (CHELPG) radii used.
 Read replacement radii for each type of atom:
 Rad(35) =   1.850000000000D+00
 Atom Element Radius
    1     7    1.70
    2    16    2.00
    3     6    1.50
    4     6    1.50
    5     6    1.50
    6     6    1.50
    7    35    1.85
    8     6    1.50
    9     6    1.50
   10     6    1.50
   11     6    1.50
   12     6    1.50
   13     6    1.50
   14     6    1.50
   15     7    1.70
   16     1    1.45
   17     1    1.45
   18     1    1.45
   19     1    1.45
   20     1    1.45
   21     1    1.45
   22     1    1.45
   23     1    1.45
   24     1    1.45
   25     1    1.45
   26     1    1.45
   27     1    1.45
   28     1    1.45
   29     1    1.45
   30     1    1.45
 Generate Potential Derived Charges using the Breneman model, NDens= 1.
 Grid spacing= 0.300 Box extension= 2.800
 NStep X,Y,Z=   46     42     34   Total possible points=       65688
 Number of Points to Fit=   16622

 **********************************************************************

            Electrostatic Properties Using The SCF Density.

 **********************************************************************

       Atomic Center    1 is at  -2.853202 -2.377186 -0.836619
       Atomic Center    2 is at  -2.563350 -1.147104  0.052149
       Atomic Center    3 is at  -0.792062 -0.736745 -0.045102
       Atomic Center    4 is at   0.056333 -1.845712 -0.076980
       Atomic Center    5 is at   1.434615 -1.689911 -0.051012
       Atomic Center    6 is at   1.949045 -0.395353  0.000236
       Atomic Center    7 is at   3.816877 -0.137287  0.028225
       Atomic Center    8 is at   1.108407  0.712307  0.025518
       Atomic Center    9 is at  -0.286906  0.572984  0.015287
       Atomic Center   10 is at  -1.147376  1.840113 -0.015427
       Atomic Center   11 is at  -0.993974  2.481479 -1.404028
       Atomic Center   12 is at  -0.679912  2.833287  1.055440
       Atomic Center   13 is at  -2.632882  1.554378  0.262958
       Atomic Center   14 is at  -3.223081  0.410359 -0.532233
       Atomic Center   15 is at  -3.088916 -1.191356  1.498873
       Atomic Center   16 is at  -2.341573 -2.302040 -1.719967
       Atomic Center   17 is at  -0.389545 -2.842715 -0.135468
       Atomic Center   18 is at   2.100479 -2.553681 -0.075819
       Atomic Center   19 is at   1.556208  1.706395  0.052970
       Atomic Center   20 is at   0.057414  2.727203 -1.613796
       Atomic Center   21 is at  -1.337413  1.810611 -2.205852
       Atomic Center   22 is at  -1.579104  3.412948 -1.460691
       Atomic Center   23 is at  -1.349673  3.707056  1.068601
       Atomic Center   24 is at   0.337251  3.205631  0.868261
       Atomic Center   25 is at  -0.699812  2.372793  2.054303
       Atomic Center   26 is at  -3.203523  2.473963  0.053516
       Atomic Center   27 is at  -2.778702  1.322615  1.329411
       Atomic Center   28 is at  -4.307592  0.301813 -0.390226
       Atomic Center   29 is at  -3.001964  0.449927 -1.609571
       Atomic Center   30 is at  -2.797960 -2.077123  1.918350
   16622 points will be used for fitting atomic charges
 Fitting point charges to electrostatic potential
 Charges from ESP fit, RMS=   0.00397 RRMS=   0.24381:
 ESP charges:
               1
     1  N   -0.734585
     2  S    0.744121
     3  C   -0.167742
     4  C   -0.044027
     5  C   -0.106794
     6  C    0.069066
     7  Br  -0.081557
     8  C   -0.099722
     9  C    0.051578
    10  C    0.328296
    11  C   -0.376723
    12  C   -0.420611
    13  C    0.126265
    14  C   -0.267044
    15  N   -0.734334
    16  H    0.296221
    17  H    0.110574
    18  H    0.095301
    19  H    0.075169
    20  H    0.088028
    21  H    0.069504
    22  H    0.103627
    23  H    0.098483
    24  H    0.125853
    25  H    0.079818
    26  H    0.001179
    27  H    0.004531
    28  H    0.140738
    29  H    0.091197
    30  H    0.333592
 Sum of ESP charges =  -0.00000
 ESP charges with hydrogens summed into heavy atoms:
               1
     1  N   -0.438364
     2  S    0.744121
     3  C   -0.167742
     4  C    0.066547
     5  C   -0.011493
     6  C    0.069066
     7  Br  -0.081557
     8  C   -0.024553
     9  C    0.051578
    10  C    0.328296
    11  C   -0.115564
    12  C   -0.116458
    13  C    0.131975
    14  C   -0.035109
    15  N   -0.400742
 Charge=  -0.00000 Dipole=     1.4255     3.0027    -1.5914 Tot=     3.6852
 -----------------------------------------------------------------

              Electrostatic Properties (Atomic Units)

 -----------------------------------------------------------------
    Center     Electric         -------- Electric Field --------
               Potential          X             Y             Z
 -----------------------------------------------------------------
    1 Atom    -18.423484
    2 Atom    -59.074771
    3 Atom    -14.724463
    4 Atom    -14.736591
    5 Atom    -14.737258
    6 Atom    -14.688162
    7 Atom   -175.793089
    8 Atom    -14.737108
    9 Atom    -14.720258
   10 Atom    -14.715433
   11 Atom    -14.754898
   12 Atom    -14.758357
   13 Atom    -14.744276
   14 Atom    -14.726648
   15 Atom    -18.426333
   16 Atom     -1.044804
   17 Atom     -1.080127
   18 Atom     -1.077287
   19 Atom     -1.076059
   20 Atom     -1.101179
   21 Atom     -1.100172
   22 Atom     -1.100382
   23 Atom     -1.102968
   24 Atom     -1.103140
   25 Atom     -1.105530
   26 Atom     -1.098081
   27 Atom     -1.106901
   28 Atom     -1.076967
   29 Atom     -1.074832
   30 Atom     -1.050960
 -----------------------------------------------------------------
 Unable to Open any file for archive entry.
 1\1\GINC-NOTCH220\SP\RPBE1PBE\def2TZVP\C11H15Br1N2S1\U1414944\24-Feb-2
 025\0\\#N Guess=Read Geom=Check Integral(Ultrafine) Density Pop=(Chelp
 G,ReadRadii) NMR pbe1pbe EmpiricalDispersion=GD3BJ def2TZVP\\SDI1023_4
 \\0,1\N,0,-2.9072285143,2.0610722233,1.5697118772\S,0,-2.7867627817,1.
 0541599668,0.4041039627\C,0,-1.0275138594,0.7151455076,0.0794094389\C,
 0,-0.1956536644,1.8321235738,0.1841240845\C,0,1.1526640679,1.749024847
 ,-0.131699565\C,0,1.6554074293,0.5177546594,-0.5492714676\Br,0,3.48430
 63756,0.3577862936,-0.9802217982\C,0,0.832422646,-0.5989392224,-0.6488
 340573\C,0,-0.5355405563,-0.52951306,-0.3483834621\C,0,-1.3662169438,-
 1.8145132927,-0.4240114586\C,0,-0.9439873616,-2.7191704039,0.744925030
 2\C,0,-1.1080373487,-2.5442376908,-1.7478386439\C,0,-2.8792320472,-1.5
 469468707,-0.3528445656\C,0,-3.3119241162,-0.6189108236,0.7611435209\N
 ,0,-3.581743709,1.3697128874,-0.8763724942\H,0,-2.2343907258,1.8301910
 583,2.3057133402\H,0,-0.6279288295,2.7741832666,0.533273916\H,0,1.8055
 49804,2.619274774,-0.0511063987\H,0,1.2725533245,-1.544423151,-0.96795
 15002\H,0,0.1295917359,-2.95367507,0.6976380858\H,0,-1.1304029263,-2.2
 436319829,1.7196291465\H,0,-1.5015321905,-3.6685681518,0.7131589548\H,
 0,-1.7624397473,-3.4268306693,-1.8186285315\H,0,-0.071627598,-2.899486
 9875,-1.8369987523\H,0,-1.3230080523,-1.8901381007,-2.6058130162\H,0,-
 3.3931662759,-2.5153826863,-0.2382274254\H,0,-3.2294017634,-1.10844505
 81,-1.3001543632\H,0,-4.4041015547,-0.5339486304,0.8508283736\H,0,-2.8
 869404821,-0.8682542235,1.7451816088\H,0,-3.3825412754,2.335188144,-1.
 1472502076\\Version=ES64L-G16RevC.01\State=1-A\HF=-3509.1366747\RMSD=3
 .275e-09\Dipole=0.6481614,-1.2589051,0.2476336\Quadrupole=-8.1328406,6
 .2321804,1.9006602,9.4891992,0.2916346,-2.0895006\PG=C01 [X(C11H15Br1N
 2S1)]\\@
 The archive entry for this job was punched.


 IT CANNOT BE MY BEAUTY, FOR I HAVE NONE; AND IT CANNOT BE MY WIT,
 FOR HE HAS NOT ENOUGH TO KNOW THAT I HAVE ANY.
 -- CATHARINE SEDLEY, PUZZLED ABOUT WHY SHE WAS MISTRESS TO JAMES II
 Job cpu time:       0 days  0 hours 50 minutes 32.5 seconds.
 Elapsed time:       0 days  0 hours  3 minutes 24.7 seconds.
 File lengths (MBytes):  RWF=    204 Int=      0 D2E=      0 Chk=     32 Scr=      2
 Normal termination of Gaussian 16 at Mon Feb 24 20:12:49 2025.
