 Entering Gaussian System, Link 0=g16
 Input=SDI2635_1.com
 Output=SDI2635_1.log
 Initial command:
 /uufs/chpc.utah.edu/sys/installdir/gaussian16/C01/AVX/g16/l1.exe "/scratch/general/vast/u1414944/3119895-notchpeak.peaks/Gau-1385120.inp" -scrdir="/scratch/general/vast/u1414944/3119895-notchpeak.peaks/"
 Entering Link 1 = /uufs/chpc.utah.edu/sys/installdir/gaussian16/C01/AVX/g16/l1.exe PID=   1385121.
  
 Copyright (c) 1988-2019, Gaussian, Inc.  All Rights Reserved.
  
 This is part of the Gaussian(R) 16 program.  It is based on
 the Gaussian(R) 09 system (copyright 2009, Gaussian, Inc.),
 the Gaussian(R) 03 system (copyright 2003, Gaussian, Inc.),
 the Gaussian(R) 98 system (copyright 1998, Gaussian, Inc.),
 the Gaussian(R) 94 system (copyright 1995, Gaussian, Inc.),
 the Gaussian 92(TM) system (copyright 1992, Gaussian, Inc.),
 the Gaussian 90(TM) system (copyright 1990, Gaussian, Inc.),
 the Gaussian 88(TM) system (copyright 1988, Gaussian, Inc.),
 the Gaussian 86(TM) system (copyright 1986, Carnegie Mellon
 University), and the Gaussian 82(TM) system (copyright 1983,
 Carnegie Mellon University). Gaussian is a federally registered
 trademark of Gaussian, Inc.
  
 This software contains proprietary and confidential information,
 including trade secrets, belonging to Gaussian, Inc.
  
 This software is provided under written license and may be
 used, copied, transmitted, or stored only in accord with that
 written license.
  
 The following legend is applicable only to US Government
 contracts under FAR:
  
                    RESTRICTED RIGHTS LEGEND
  
 Use, reproduction and disclosure by the US Government is
 subject to restrictions as set forth in subparagraphs (a)
 and (c) of the Commercial Computer Software - Restricted
 Rights clause in FAR 52.227-19.
  
 Gaussian, Inc.
 340 Quinnipiac St., Bldg. 40, Wallingford CT 06492
  
  
 ---------------------------------------------------------------
 Warning -- This program may not be used in any manner that
 competes with the business of Gaussian, Inc. or will provide
 assistance to any competitor of Gaussian, Inc.  The licensee
 of this program is prohibited from giving any competitor of
 Gaussian, Inc. access to this program.  By using this program,
 the user acknowledges that Gaussian, Inc. is engaged in the
 business of creating and licensing software in the field of
 computational chemistry and represents and warrants to the
 licensee that it is not a competitor of Gaussian, Inc. and that
 it will not use this program in any manner prohibited above.
 ---------------------------------------------------------------
  

 Cite this work as:
 Gaussian 16, Revision C.01,
 M. J. Frisch, G. W. Trucks, H. B. Schlegel, G. E. Scuseria, 
 M. A. Robb, J. R. Cheeseman, G. Scalmani, V. Barone, 
 G. A. Petersson, H. Nakatsuji, X. Li, M. Caricato, A. V. Marenich, 
 J. Bloino, B. G. Janesko, R. Gomperts, B. Mennucci, H. P. Hratchian, 
 J. V. Ortiz, A. F. Izmaylov, J. L. Sonnenberg, D. Williams-Young, 
 F. Ding, F. Lipparini, F. Egidi, J. Goings, B. Peng, A. Petrone, 
 T. Henderson, D. Ranasinghe, V. G. Zakrzewski, J. Gao, N. Rega, 
 G. Zheng, W. Liang, M. Hada, M. Ehara, K. Toyota, R. Fukuda, 
 J. Hasegawa, M. Ishida, T. Nakajima, Y. Honda, O. Kitao, H. Nakai, 
 T. Vreven, K. Throssell, J. A. Montgomery, Jr., J. E. Peralta, 
 F. Ogliaro, M. J. Bearpark, J. J. Heyd, E. N. Brothers, K. N. Kudin, 
 V. N. Staroverov, T. A. Keith, R. Kobayashi, J. Normand, 
 K. Raghavachari, A. P. Rendell, J. C. Burant, S. S. Iyengar, 
 J. Tomasi, M. Cossi, J. M. Millam, M. Klene, C. Adamo, R. Cammi, 
 J. W. Ochterski, R. L. Martin, K. Morokuma, O. Farkas, 
 J. B. Foresman, and D. J. Fox, Gaussian, Inc., Wallingford CT, 2019.
 
 ******************************************
 Gaussian 16:  ES64L-G16RevC.01  3-Jul-2019
                10-Feb-2025 
 ******************************************
 %NProcShared=16
 Will use up to   16 processors via shared memory.
 %Mem=40GB
 %chk=SDI2635_1.chk
 ----------------------------------------------------------------------
 #N OPT FREQ=NORAMAN Integral(Ultrafine) pbe1pbe EmpiricalDispersion=GD
 3BJ def2SVP
 ----------------------------------------------------------------------
 1/18=20,19=15,26=4,38=1/1,3;
 2/9=110,12=2,17=6,18=5,40=1/2;
 3/5=43,7=101,11=2,25=1,30=1,71=1,74=-13,75=-5,124=41/1,2,3;
 4//1;
 5/5=2,38=5/2;
 6/7=2,8=2,9=2,10=2,28=1/1;
 7//1,2,3,16;
 1/18=20,19=15,26=4/3(2);
 2/9=110/2;
 99//99;
 2/9=110/2;
 3/5=43,7=101,11=2,25=1,30=1,71=1,74=-13,75=-5,124=41/1,2,3;
 4/5=5,16=3,69=1/1;
 5/5=2,38=5/2;
 7//1,2,3,16;
 1/18=20,19=15,26=4/3(-5);
 2/9=110/2;
 6/7=2,8=2,9=2,10=2,19=2,28=1/1;
 99/9=1/99;
 ---------
 SDI2635_1
 ---------
 Symbolic Z-matrix:
 Charge =  0 Multiplicity = 1
 N                    -1.84358   1.58823  -0.05968 
 S                    -1.44149   0.11365   0.08364 
 C                     0.34205   0.25329   0.0019 
 C                     1.07013   1.39975  -0.05005 
 C                     2.4608    1.15507  -0.04926 
 C                     2.75495  -0.16983   0.01413 
 S                     1.34272  -1.14977   0.07517 
 C                    -1.7266   -0.90086  -1.40789 
 N                    -1.94075  -0.83362   1.18223 
 H                    -2.79126   1.78167   0.21902 
 H                     0.60448   2.36596  -0.09422 
 H                     3.20389   1.93071  -0.0924 
 H                     3.71966  -0.63695   0.03021 
 H                    -2.79688  -1.00981  -1.53663 
 H                    -1.27269  -1.86768  -1.23197 
 H                    -1.28414  -0.39624  -2.25872 
 H                    -2.05927  -0.40119   2.08342 
 

 GradGradGradGradGradGradGradGradGradGradGradGradGradGradGradGradGradGrad
 Berny optimization.
 Initialization pass.
                           ----------------------------
                           !    Initial Parameters    !
                           ! (Angstroms and Degrees)  !
 --------------------------                            --------------------------
 ! Name  Definition              Value          Derivative Info.                !
 --------------------------------------------------------------------------------
 ! R1    R(1,2)                  1.5351         estimate D2E/DX2                !
 ! R2    R(1,10)                 1.0066         estimate D2E/DX2                !
 ! R3    R(2,3)                  1.7909         estimate D2E/DX2                !
 ! R4    R(2,8)                  1.8262         estimate D2E/DX2                !
 ! R5    R(2,9)                  1.5341         estimate D2E/DX2                !
 ! R6    R(3,4)                  1.3591         estimate D2E/DX2                !
 ! R7    R(3,7)                  1.7249         estimate D2E/DX2                !
 ! R8    R(4,5)                  1.412          estimate D2E/DX2                !
 ! R9    R(4,11)                 1.0735         estimate D2E/DX2                !
 ! R10   R(5,6)                  1.3586         estimate D2E/DX2                !
 ! R11   R(5,12)                 1.075          estimate D2E/DX2                !
 ! R12   R(6,7)                  1.72           estimate D2E/DX2                !
 ! R13   R(6,13)                 1.072          estimate D2E/DX2                !
 ! R14   R(8,14)                 1.0835         estimate D2E/DX2                !
 ! R15   R(8,15)                 1.0825         estimate D2E/DX2                !
 ! R16   R(8,16)                 1.0837         estimate D2E/DX2                !
 ! R17   R(9,17)                 1.0066         estimate D2E/DX2                !
 ! A1    A(2,1,10)             113.9131         estimate D2E/DX2                !
 ! A2    A(1,2,3)              100.4686         estimate D2E/DX2                !
 ! A3    A(1,2,8)              114.6118         estimate D2E/DX2                !
 ! A4    A(1,2,9)              125.0805         estimate D2E/DX2                !
 ! A5    A(3,2,8)               99.2956         estimate D2E/DX2                !
 ! A6    A(3,2,9)              113.8875         estimate D2E/DX2                !
 ! A7    A(8,2,9)              101.0135         estimate D2E/DX2                !
 ! A8    A(2,3,4)              126.9442         estimate D2E/DX2                !
 ! A9    A(2,3,7)              120.8235         estimate D2E/DX2                !
 ! A10   A(4,3,7)              112.1471         estimate D2E/DX2                !
 ! A11   A(3,4,5)              112.4209         estimate D2E/DX2                !
 ! A12   A(3,4,11)             121.9006         estimate D2E/DX2                !
 ! A13   A(5,4,11)             125.6766         estimate D2E/DX2                !
 ! A14   A(4,5,6)              112.4725         estimate D2E/DX2                !
 ! A15   A(4,5,12)             123.7608         estimate D2E/DX2                !
 ! A16   A(6,5,12)             123.7667         estimate D2E/DX2                !
 ! A17   A(5,6,7)              112.301          estimate D2E/DX2                !
 ! A18   A(5,6,13)             128.3509         estimate D2E/DX2                !
 ! A19   A(7,6,13)             119.3481         estimate D2E/DX2                !
 ! A20   A(3,7,6)               90.6529         estimate D2E/DX2                !
 ! A21   A(2,8,14)             107.8857         estimate D2E/DX2                !
 ! A22   A(2,8,15)             107.3354         estimate D2E/DX2                !
 ! A23   A(2,8,16)             108.591          estimate D2E/DX2                !
 ! A24   A(14,8,15)            110.1035         estimate D2E/DX2                !
 ! A25   A(14,8,16)            110.9083         estimate D2E/DX2                !
 ! A26   A(15,8,16)            111.8574         estimate D2E/DX2                !
 ! A27   A(2,9,17)             114.4681         estimate D2E/DX2                !
 ! D1    D(10,1,2,3)          -163.4363         estimate D2E/DX2                !
 ! D2    D(10,1,2,8)            91.1779         estimate D2E/DX2                !
 ! D3    D(10,1,2,9)           -34.1665         estimate D2E/DX2                !
 ! D4    D(1,2,3,4)              5.1642         estimate D2E/DX2                !
 ! D5    D(1,2,3,7)           -178.4637         estimate D2E/DX2                !
 ! D6    D(8,2,3,4)            122.5123         estimate D2E/DX2                !
 ! D7    D(8,2,3,7)            -61.1156         estimate D2E/DX2                !
 ! D8    D(9,2,3,4)           -130.9763         estimate D2E/DX2                !
 ! D9    D(9,2,3,7)             45.3959         estimate D2E/DX2                !
 ! D10   D(1,2,8,14)           -69.6317         estimate D2E/DX2                !
 ! D11   D(1,2,8,15)           171.7423         estimate D2E/DX2                !
 ! D12   D(1,2,8,16)            50.646          estimate D2E/DX2                !
 ! D13   D(3,2,8,14)          -175.7421         estimate D2E/DX2                !
 ! D14   D(3,2,8,15)            65.6319         estimate D2E/DX2                !
 ! D15   D(3,2,8,16)           -55.4645         estimate D2E/DX2                !
 ! D16   D(9,2,8,14)            67.5215         estimate D2E/DX2                !
 ! D17   D(9,2,8,15)           -51.1045         estimate D2E/DX2                !
 ! D18   D(9,2,8,16)          -172.2008         estimate D2E/DX2                !
 ! D19   D(1,2,9,17)           -36.6013         estimate D2E/DX2                !
 ! D20   D(3,2,9,17)            87.0312         estimate D2E/DX2                !
 ! D21   D(8,2,9,17)          -167.5323         estimate D2E/DX2                !
 ! D22   D(2,3,4,5)            177.4348         estimate D2E/DX2                !
 ! D23   D(2,3,4,11)            -3.0402         estimate D2E/DX2                !
 ! D24   D(7,3,4,5)              0.7981         estimate D2E/DX2                !
 ! D25   D(7,3,4,11)          -179.6769         estimate D2E/DX2                !
 ! D26   D(2,3,7,6)           -177.5578         estimate D2E/DX2                !
 ! D27   D(4,3,7,6)             -0.6878         estimate D2E/DX2                !
 ! D28   D(3,4,5,6)             -0.4972         estimate D2E/DX2                !
 ! D29   D(3,4,5,12)           179.5951         estimate D2E/DX2                !
 ! D30   D(11,4,5,6)           179.9992         estimate D2E/DX2                !
 ! D31   D(11,4,5,12)            0.0915         estimate D2E/DX2                !
 ! D32   D(4,5,6,7)             -0.0304         estimate D2E/DX2                !
 ! D33   D(4,5,6,13)          -179.9479         estimate D2E/DX2                !
 ! D34   D(12,5,6,7)           179.8772         estimate D2E/DX2                !
 ! D35   D(12,5,6,13)           -0.0402         estimate D2E/DX2                !
 ! D36   D(5,6,7,3)              0.4022         estimate D2E/DX2                !
 ! D37   D(13,6,7,3)          -179.6721         estimate D2E/DX2                !
 --------------------------------------------------------------------------------
 Trust Radius=3.00D-01 FncErr=1.00D-07 GrdErr=1.00D-06 EigMax=2.50D+02 EigMin=1.00D-04
 Number of steps in this run=     91 maximum allowed number of steps=    102.
 GradGradGradGradGradGradGradGradGradGradGradGradGradGradGradGradGradGrad

                          Input orientation:                          
 ---------------------------------------------------------------------
 Center     Atomic      Atomic             Coordinates (Angstroms)
 Number     Number       Type             X           Y           Z
 ---------------------------------------------------------------------
      1          7           0       -1.843584    1.588232   -0.059676
      2         16           0       -1.441487    0.113645    0.083636
      3          6           0        0.342046    0.253291    0.001905
      4          6           0        1.070132    1.399752   -0.050055
      5          6           0        2.460798    1.155066   -0.049262
      6          6           0        2.754951   -0.169834    0.014127
      7         16           0        1.342723   -1.149768    0.075169
      8          6           0       -1.726604   -0.900858   -1.407893
      9          7           0       -1.940754   -0.833624    1.182232
     10          1           0       -2.791255    1.781666    0.219022
     11          1           0        0.604485    2.365963   -0.094219
     12          1           0        3.203891    1.930708   -0.092405
     13          1           0        3.719663   -0.636951    0.030210
     14          1           0       -2.796875   -1.009812   -1.536625
     15          1           0       -1.272689   -1.867681   -1.231969
     16          1           0       -1.284136   -0.396239   -2.258716
     17          1           0       -2.059268   -0.401192    2.083424
 ---------------------------------------------------------------------
                    Distance matrix (angstroms):
                    1          2          3          4          5
     1  N    0.000000
     2  S    1.535131   0.000000
     3  C    2.561804   1.790858   0.000000
     4  C    2.919821   2.824920   1.359110   0.000000
     5  C    4.326135   4.041045   2.303242   1.412029   0.000000
     6  C    4.923694   4.206577   2.449754   2.303549   1.358640
     7  S    4.203258   3.057468   1.724905   2.567107   2.564729
     8  C    2.833186   1.826244   2.756611   3.867591   4.858707
     9  N    2.723448   1.534113   2.790293   3.946129   4.984488
    10  H    1.006564   2.149999   3.492942   3.889546   5.296099
    11  H    2.568871   3.048043   2.131078   1.073471   2.216797
    12  H    5.059186   4.991217   3.318550   2.199235   1.075021
    13  H    5.992431   5.215718   3.493082   3.342846   2.191433
    14  H    3.136873   2.392588   3.716898   4.792664   5.877251
    15  H    3.693715   2.384316   2.937403   4.190686   4.947193
    16  H    3.014446   2.402364   2.859505   3.694096   4.616576
    17  H    2.932099   2.155427   3.244593   4.193838   5.234624
                    6          7          8          9         10
     6  C    0.000000
     7  S    1.719996   0.000000
     8  C    4.758243   3.417923   0.000000
     9  N    4.884131   3.479476   2.599833   0.000000
    10  H    5.883089   5.069889   3.313045   2.913910   0.000000
    11  H    3.326636   3.596394   4.222775   4.283097   3.459851
    12  H    2.150621   3.602966   5.835928   5.977759   6.005079
    13  H    1.071973   2.432045   5.639114   5.779805   6.948195
    14  H    5.825219   4.444518   1.083478   2.855902   3.297677
    15  H    4.545033   3.010712   1.082467   2.709973   4.210600
    16  H    4.640184   3.593774   1.083659   3.530238   3.626825
    17  H    5.245210   4.020821   3.542546   1.006574   2.962545
                   11         12         13         14         15
    11  H    0.000000
    12  H    2.635595   0.000000
    13  H    4.328661   2.621818   0.000000
    14  H    5.004562   6.836785   6.712620   0.000000
    15  H    4.768857   5.980480   5.294466   1.775359   0.000000
    16  H    3.985185   5.499998   5.507734   1.785011   1.794292
    17  H    4.415298   6.154091   6.137370   3.744228   3.709600
                   16         17
    16  H    0.000000
    17  H    4.410787   0.000000
 Stoichiometry    C5H8N2S2
 Framework group  C1[X(C5H8N2S2)]
 Deg. of freedom    45
 Full point group                 C1      NOp   1
 Largest Abelian subgroup         C1      NOp   1
 Largest concise Abelian subgroup C1      NOp   1
                         Standard orientation:                         
 ---------------------------------------------------------------------
 Center     Atomic      Atomic             Coordinates (Angstroms)
 Number     Number       Type             X           Y           Z
 ---------------------------------------------------------------------
      1          7           0        1.797585    1.609890    0.088253
      2         16           0        1.422505    0.134127   -0.106851
      3          6           0       -0.362672    0.236214   -0.007368
      4          6           0       -1.112005    1.365707    0.092269
      5          6           0       -2.497729    1.094428    0.092238
      6          6           0       -2.767114   -0.232650   -0.018208
      7         16           0       -1.337021   -1.182223   -0.125582
      8          6           0        1.738476   -0.929149    1.343932
      9          7           0        1.931126   -0.762057   -1.243364
     10          1           0        2.739206    1.831748   -0.189773
     11          1           0       -0.664490    2.338428    0.168974
     12          1           0       -3.255082    1.853462    0.169405
     13          1           0       -3.722862   -0.717381   -0.044791
     14          1           0        2.811596   -1.022117    1.460950
     15          1           0        1.301676   -1.897384    1.135455
     16          1           0        1.293131   -0.464972    2.216013
     17          1           0        2.034370   -0.294387   -2.128697
 ---------------------------------------------------------------------
 Rotational constants (GHZ):           2.3688355           0.9283153           0.7859491
 Standard basis: def2SVP (5D, 7F)
 There are   183 symmetry adapted cartesian basis functions of A   symmetry.
 There are   174 symmetry adapted basis functions of A   symmetry.
   174 basis functions,   305 primitive gaussians,   183 cartesian basis functions
    42 alpha electrons       42 beta electrons
       nuclear repulsion energy       641.8650855080 Hartrees.
 NAtoms=   17 NActive=   17 NUniq=   17 SFac= 1.00D+00 NAtFMM=   60 NAOKFM=F Big=F
 Integral buffers will be    131072 words long.
 Raffenetti 2 integral format.
 Two-electron integral symmetry is turned on.
 Nuclear repulsion after empirical dispersion term =      641.8454412695 Hartrees.
 One-electron integrals computed using PRISM.
   1 Symmetry operations used in ECPInt.
 ECPInt:  NShTT=    3403 NPrTT=   13041 LenC2=    3344 LenP2D=    9780.
 LDataN:  DoStor=T MaxTD1= 4 Len=   56
 NBasis=   174 RedAO= T EigKep=  7.74D-04  NBF=   174
 NBsUse=   174 1.00D-06 EigRej= -1.00D+00 NBFU=   174
 ExpMin= 1.22D-01 ExpMax= 9.18D+03 ExpMxC= 1.38D+03 IAcc=3 IRadAn=         5 AccDes= 0.00D+00
 Harris functional with IExCor= 1009 and IRadAn=       5 diagonalized for initial guess.
 HarFok:  IExCor= 1009 AccDes= 0.00D+00 IRadAn=         5 IDoV= 1 UseB2=F ITyADJ=14
 ICtDFT=  3500011 ScaDFX=  1.000000  1.000000  1.000000  1.000000
 FoFCou: FMM=F IPFlag=           0 FMFlag=      100000 FMFlg1=           0
         NFxFlg=           0 DoJE=T BraDBF=F KetDBF=T FulRan=T
         wScrn=  0.000000 ICntrl=       500 IOpCl=  0 I1Cent=   200000004 NGrid=           0
         NMat0=    1 NMatS0=      1 NMatT0=    0 NMatD0=    1 NMtDS0=    0 NMtDT0=    0
 Petite list used in FoFCou.
 Requested convergence on RMS density matrix=1.00D-08 within 128 cycles.
 Requested convergence on MAX density matrix=1.00D-06.
 Requested convergence on             energy=1.00D-06.
 No special actions if energy rises.
 Integral accuracy reduced to 1.0D-05 until final iterations.
 Initial convergence to 1.0D-05 achieved.  Increase integral accuracy.
 SCF Done:  E(RPBE1PBE) =  -1099.98961977     A.U. after   15 cycles
            NFock= 15  Conv=0.74D-08     -V/T= 2.0040

 **********************************************************************

            Population analysis using the SCF Density.

 **********************************************************************

 Orbital symmetries:
       Occupied  (A) (A) (A) (A) (A) (A) (A) (A) (A) (A) (A) (A)
                 (A) (A) (A) (A) (A) (A) (A) (A) (A) (A) (A) (A)
                 (A) (A) (A) (A) (A) (A) (A) (A) (A) (A) (A) (A)
                 (A) (A) (A) (A) (A) (A)
       Virtual   (A) (A) (A) (A) (A) (A) (A) (A) (A) (A) (A) (A)
                 (A) (A) (A) (A) (A) (A) (A) (A) (A) (A) (A) (A)
                 (A) (A) (A) (A) (A) (A) (A) (A) (A) (A) (A) (A)
                 (A) (A) (A) (A) (A) (A) (A) (A) (A) (A) (A) (A)
                 (A) (A) (A) (A) (A) (A) (A) (A) (A) (A) (A) (A)
                 (A) (A) (A) (A) (A) (A) (A) (A) (A) (A) (A) (A)
                 (A) (A) (A) (A) (A) (A) (A) (A) (A) (A) (A) (A)
                 (A) (A) (A) (A) (A) (A) (A) (A) (A) (A) (A) (A)
                 (A) (A) (A) (A) (A) (A) (A) (A) (A) (A) (A) (A)
                 (A) (A) (A) (A) (A) (A) (A) (A) (A) (A) (A) (A)
                 (A) (A) (A) (A) (A) (A) (A) (A) (A) (A) (A) (A)
 The electronic state is 1-A.
 Alpha  occ. eigenvalues --  -89.18832 -89.05012 -14.34416 -14.34282 -10.27686
 Alpha  occ. eigenvalues --  -10.27371 -10.25817 -10.24984 -10.24907  -8.16145
 Alpha  occ. eigenvalues --   -8.05139  -6.10288  -6.10207  -6.10142  -5.99274
 Alpha  occ. eigenvalues --   -5.98884  -5.98588  -1.00764  -0.92126  -0.85291
 Alpha  occ. eigenvalues --   -0.77927  -0.76806  -0.75145  -0.65742  -0.59069
 Alpha  occ. eigenvalues --   -0.56567  -0.54781  -0.52625  -0.47318  -0.46872
 Alpha  occ. eigenvalues --   -0.44086  -0.43261  -0.42570  -0.41364  -0.40759
 Alpha  occ. eigenvalues --   -0.37317  -0.34661  -0.28023  -0.27737  -0.26814
 Alpha  occ. eigenvalues --   -0.25521  -0.23947
 Alpha virt. eigenvalues --   -0.03526   0.03433   0.04876   0.06373   0.07351
 Alpha virt. eigenvalues --    0.08538   0.09481   0.10146   0.11603   0.12143
 Alpha virt. eigenvalues --    0.13497   0.14364   0.15222   0.16051   0.17979
 Alpha virt. eigenvalues --    0.23512   0.27818   0.30770   0.34204   0.38583
 Alpha virt. eigenvalues --    0.39130   0.39951   0.42240   0.43147   0.43440
 Alpha virt. eigenvalues --    0.46940   0.48866   0.49432   0.50922   0.54104
 Alpha virt. eigenvalues --    0.55287   0.56467   0.57985   0.60203   0.60665
 Alpha virt. eigenvalues --    0.61999   0.62993   0.64845   0.65879   0.66435
 Alpha virt. eigenvalues --    0.67665   0.68186   0.69490   0.71297   0.71906
 Alpha virt. eigenvalues --    0.72833   0.73021   0.73703   0.74657   0.77644
 Alpha virt. eigenvalues --    0.78638   0.81494   0.82875   0.83660   0.85430
 Alpha virt. eigenvalues --    0.86887   0.87607   0.88515   0.90102   0.94326
 Alpha virt. eigenvalues --    0.96653   1.03080   1.04243   1.08238   1.10177
 Alpha virt. eigenvalues --    1.12227   1.14087   1.16559   1.18634   1.21370
 Alpha virt. eigenvalues --    1.21506   1.22649   1.26606   1.27418   1.32861
 Alpha virt. eigenvalues --    1.36364   1.40223   1.45210   1.47162   1.49970
 Alpha virt. eigenvalues --    1.52328   1.55110   1.65753   1.67829   1.68523
 Alpha virt. eigenvalues --    1.71593   1.75736   1.76825   1.77487   1.78488
 Alpha virt. eigenvalues --    1.82009   1.83177   1.87567   1.90392   1.95942
 Alpha virt. eigenvalues --    1.97434   1.98298   2.00059   2.04037   2.04593
 Alpha virt. eigenvalues --    2.13030   2.14815   2.15521   2.18666   2.21714
 Alpha virt. eigenvalues --    2.22211   2.30605   2.34047   2.36552   2.40620
 Alpha virt. eigenvalues --    2.42539   2.43669   2.44428   2.46713   2.53207
 Alpha virt. eigenvalues --    2.55357   2.58033   2.59291   2.61251   2.69899
 Alpha virt. eigenvalues --    2.73575   2.74178   2.75609   2.84890   2.89753
 Alpha virt. eigenvalues --    2.93919   2.95064   2.97181   3.07985   3.27977
 Alpha virt. eigenvalues --    3.31841   3.44199
          Condensed to atoms (all electrons):
               1          2          3          4          5          6
     1  N    6.878993   0.374445  -0.093755  -0.003091   0.001626  -0.000251
     2  S    0.374445  14.616935   0.070080  -0.016028   0.006239   0.002466
     3  C   -0.093755   0.070080   5.823585   0.458057   0.016748  -0.145620
     4  C   -0.003091  -0.016028   0.458057   4.863704   0.323431   0.012715
     5  C    0.001626   0.006239   0.016748   0.323431   4.906765   0.440817
     6  C   -0.000251   0.002466  -0.145620   0.012715   0.440817   5.086640
     7  S    0.002740  -0.037326   0.288399  -0.096643  -0.065476   0.332185
     8  C   -0.049383   0.307912  -0.139350  -0.000941  -0.000160  -0.000413
     9  N   -0.039240   0.341726  -0.043060  -0.000425  -0.000031  -0.000039
    10  H    0.331072  -0.015942   0.010602   0.000267  -0.000037   0.000016
    11  H    0.024025  -0.009850  -0.048366   0.441124  -0.055620   0.009927
    12  H   -0.000008  -0.000106   0.013191  -0.055978   0.449059  -0.064950
    13  H    0.000002  -0.000057   0.003127   0.009422  -0.026964   0.419303
    14  H    0.000251  -0.008089   0.008029  -0.000040   0.000000   0.000006
    15  H    0.003918  -0.007511   0.001026   0.000182  -0.000059   0.000190
    16  H    0.004376  -0.016964   0.007075   0.000583   0.000076   0.000055
    17  H   -0.001555  -0.009351  -0.005396   0.000403  -0.000039  -0.000007
               7          8          9         10         11         12
     1  N    0.002740  -0.049383  -0.039240   0.331072   0.024025  -0.000008
     2  S   -0.037326   0.307912   0.341726  -0.015942  -0.009850  -0.000106
     3  C    0.288399  -0.139350  -0.043060   0.010602  -0.048366   0.013191
     4  C   -0.096643  -0.000941  -0.000425   0.000267   0.441124  -0.055978
     5  C   -0.065476  -0.000160  -0.000031  -0.000037  -0.055620   0.449059
     6  C    0.332185  -0.000413  -0.000039   0.000016   0.009927  -0.064950
     7  S   15.450285   0.003976   0.005742  -0.000192   0.006681   0.007008
     8  C    0.003976   4.957433  -0.101708  -0.004746   0.000746   0.000007
     9  N    0.005742  -0.101708   6.920145  -0.000302   0.000176   0.000002
    10  H   -0.000192  -0.004746  -0.000302   0.553384  -0.000739  -0.000001
    11  H    0.006681   0.000746   0.000176  -0.000739   0.596071  -0.005726
    12  H    0.007008   0.000007   0.000002  -0.000001  -0.005726   0.635760
    13  H   -0.041007   0.000006   0.000000  -0.000000  -0.000206  -0.007833
    14  H   -0.000085   0.365950   0.006685   0.001693  -0.000030  -0.000000
    15  H    0.003850   0.348813   0.007566  -0.000062  -0.000069  -0.000000
    16  H   -0.000947   0.363398   0.006075  -0.000190   0.000003  -0.000004
    17  H   -0.000026   0.009282   0.327569   0.001363   0.000029  -0.000000
              13         14         15         16         17
     1  N    0.000002   0.000251   0.003918   0.004376  -0.001555
     2  S   -0.000057  -0.008089  -0.007511  -0.016964  -0.009351
     3  C    0.003127   0.008029   0.001026   0.007075  -0.005396
     4  C    0.009422  -0.000040   0.000182   0.000583   0.000403
     5  C   -0.026964   0.000000  -0.000059   0.000076  -0.000039
     6  C    0.419303   0.000006   0.000190   0.000055  -0.000007
     7  S   -0.041007  -0.000085   0.003850  -0.000947  -0.000026
     8  C    0.000006   0.365950   0.348813   0.363398   0.009282
     9  N    0.000000   0.006685   0.007566   0.006075   0.327569
    10  H   -0.000000   0.001693  -0.000062  -0.000190   0.001363
    11  H   -0.000206  -0.000030  -0.000069   0.000003   0.000029
    12  H   -0.007833  -0.000000  -0.000000  -0.000004  -0.000000
    13  H    0.580360  -0.000000  -0.000004  -0.000000   0.000000
    14  H   -0.000000   0.556765  -0.005673  -0.010633  -0.000508
    15  H   -0.000004  -0.005673   0.577101  -0.013676  -0.000860
    16  H   -0.000000  -0.010633  -0.013676   0.580994  -0.000408
    17  H    0.000000  -0.000508  -0.000860  -0.000408   0.555569
 Mulliken charges:
               1
     1  N   -0.434166
     2  S    0.401420
     3  C   -0.224370
     4  C    0.063259
     5  C    0.003624
     6  C   -0.093040
     7  S    0.140835
     8  C   -0.060821
     9  N   -0.430882
    10  H    0.123817
    11  H    0.041823
    12  H    0.029580
    13  H    0.063852
    14  H    0.085681
    15  H    0.085267
    16  H    0.080185
    17  H    0.123935
 Sum of Mulliken charges =  -0.00000
 Mulliken charges with hydrogens summed into heavy atoms:
               1
     1  N   -0.310348
     2  S    0.401420
     3  C   -0.224370
     4  C    0.105082
     5  C    0.033204
     6  C   -0.029188
     7  S    0.140835
     8  C    0.190312
     9  N   -0.306947
 Electronic spatial extent (au):  <R**2>=           1535.7755
 Charge=              0.0000 electrons
 Dipole moment (field-independent basis, Debye):
    X=             -1.3089    Y=             -0.0145    Z=              0.9621  Tot=              1.6246
 Quadrupole moment (field-independent basis, Debye-Ang):
   XX=            -58.7502   YY=            -70.0560   ZZ=            -67.2767
   XY=              1.1903   XZ=              1.4749   YZ=             -4.1686
 Traceless Quadrupole moment (field-independent basis, Debye-Ang):
   XX=              6.6108   YY=             -4.6951   ZZ=             -1.9157
   XY=              1.1903   XZ=              1.4749   YZ=             -4.1686
 Octapole moment (field-independent basis, Debye-Ang**2):
  XXX=             -5.0104  YYY=             -0.0455  ZZZ=             -6.4430  XYY=             -9.7332
  XXY=              9.1109  XXZ=              2.7356  XZZ=             14.1423  YZZ=             -0.2524
  YYZ=              2.3646  XYZ=            -10.5758
 Hexadecapole moment (field-independent basis, Debye-Ang**3):
 XXXX=          -1187.5268 YYYY=           -481.6222 ZZZZ=           -212.3315 XXXY=             51.6091
 XXXZ=              7.0582 YYYX=             -3.0251 YYYZ=             -8.0769 ZZZX=            -15.3251
 ZZZY=             -3.3598 XXYY=           -284.1524 XXZZ=           -266.1670 YYZZ=           -130.2888
 XXYZ=            -17.7508 YYXZ=              1.1040 ZZXY=              5.2496
 N-N= 6.418454412695D+02 E-N=-3.880684773597D+03  KE= 1.095577365267D+03
   1 Symmetry operations used in ECPInt.
 ECPInt:  NShTT=    3403 NPrTT=   13041 LenC2=    3344 LenP2D=    9780.
 LDataN:  DoStor=T MaxTD1= 5 Len=  102
 Calling FoFJK, ICntrl=      2127 FMM=F ISym2X=0 I1Cent= 0 IOpClX= 0 NMat=1 NMatS=1 NMatT=0.
 ***** Axes restored to original set *****
 -------------------------------------------------------------------
 Center     Atomic                   Forces (Hartrees/Bohr)
 Number     Number              X              Y              Z
 -------------------------------------------------------------------
      1        7           0.015922192    0.006871791   -0.006789750
      2       16          -0.006500153   -0.000617608   -0.001157294
      3        6          -0.006593412   -0.007551991   -0.000062252
      4        6           0.002264240    0.002703238   -0.000824564
      5        6          -0.003280561    0.001449917    0.000740771
      6        6          -0.008394318   -0.008533078   -0.000247765
      7       16           0.000991105    0.000436807    0.001140065
      8        6           0.003984781    0.007541190    0.013299999
      9        7          -0.004234410   -0.017244211   -0.012561495
     10        1          -0.010892054   -0.004527919    0.002477411
     11        1          -0.006571236    0.010431040   -0.000700115
     12        1           0.008492443    0.007903504   -0.000266380
     13        1           0.012036170   -0.005665555    0.000258545
     14        1          -0.010238557    0.000488197    0.001882003
     15        1           0.004068590   -0.009534385    0.000537400
     16        1           0.004632439    0.005787259   -0.005876374
     17        1           0.004312740    0.010061803    0.008149795
 -------------------------------------------------------------------
 Cartesian Forces:  Max     0.017244211 RMS     0.006984474

 GradGradGradGradGradGradGradGradGradGradGradGradGradGradGradGradGradGrad
 Berny optimization.
 FormGI is forming the generalized inverse of G from B-inverse, IUseBI=4.
 Internal  Forces:  Max     0.013336958 RMS     0.004905356
 Search for a local minimum.
 Step number   1 out of a maximum of   91
 All quantities printed in internal units (Hartrees-Bohrs-Radians)
 Mixed Optimization -- RFO/linear search
 Second derivative matrix not updated -- first step.
 ITU=  0
     Eigenvalues ---    0.00230   0.00491   0.01341   0.01854   0.02135
     Eigenvalues ---    0.02274   0.02331   0.02422   0.03477   0.03491
     Eigenvalues ---    0.05918   0.06077   0.06487   0.08674   0.09333
     Eigenvalues ---    0.15718   0.15999   0.16000   0.16000   0.16000
     Eigenvalues ---    0.16000   0.16000   0.16000   0.16000   0.19245
     Eigenvalues ---    0.22130   0.23796   0.24154   0.24958   0.26850
     Eigenvalues ---    0.32154   0.32693   0.35556   0.35577   0.35698
     Eigenvalues ---    0.36603   0.36795   0.36982   0.42355   0.46551
     Eigenvalues ---    0.46553   0.49184   0.52685   0.66127   0.66404
 RFO step:  Lambda=-7.08394730D-03 EMin= 2.30000000D-03
 Linear search not attempted -- first point.
 Iteration  1 RMS(Cart)=  0.04358941 RMS(Int)=  0.00111473
 Iteration  2 RMS(Cart)=  0.00126917 RMS(Int)=  0.00008887
 Iteration  3 RMS(Cart)=  0.00000154 RMS(Int)=  0.00008886
 Iteration  4 RMS(Cart)=  0.00000000 RMS(Int)=  0.00008886
 Variable       Old X    -DE/DX   Delta X   Delta X   Delta X     New X
                                 (Linear)    (Quad)   (Total)
    R1        2.90098   0.00134   0.00000   0.00200   0.00200   2.90297
    R2        1.90213   0.01007   0.00000   0.02131   0.02131   1.92344
    R3        3.38423  -0.00096   0.00000  -0.00349  -0.00349   3.38074
    R4        3.45110  -0.01080   0.00000  -0.04344  -0.04344   3.40766
    R5        2.89905   0.00125   0.00000   0.00186   0.00186   2.90092
    R6        2.56835   0.01054   0.00000   0.01995   0.01997   2.58832
    R7        3.25960   0.00177   0.00000   0.00386   0.00387   3.26347
    R8        2.66835   0.00886   0.00000   0.02137   0.02138   2.68973
    R9        2.02857   0.01227   0.00000   0.03271   0.03271   2.06128
   R10        2.56746   0.01304   0.00000   0.02468   0.02466   2.59212
   R11        2.03149   0.01158   0.00000   0.03105   0.03105   2.06254
   R12        3.25032  -0.00052   0.00000  -0.00273  -0.00275   3.24757
   R13        2.02573   0.01330   0.00000   0.03530   0.03530   2.06103
   R14        2.04748   0.00984   0.00000   0.02712   0.02712   2.07460
   R15        2.04557   0.01031   0.00000   0.02832   0.02832   2.07388
   R16        2.04782   0.00920   0.00000   0.02537   0.02537   2.07319
   R17        1.90215   0.01111   0.00000   0.02351   0.02351   1.92566
    A1        1.98816  -0.01209   0.00000  -0.07236  -0.07236   1.91580
    A2        1.75351  -0.00186   0.00000  -0.00914  -0.00916   1.74435
    A3        2.00035  -0.00146   0.00000  -0.01033  -0.01027   1.99009
    A4        2.18307   0.00404   0.00000   0.02883   0.02882   2.21188
    A5        1.73303   0.00257   0.00000   0.00640   0.00636   1.73939
    A6        1.98771  -0.00087   0.00000  -0.00496  -0.00498   1.98274
    A7        1.76302  -0.00253   0.00000  -0.01486  -0.01481   1.74821
    A8        2.21560  -0.00008   0.00000  -0.00046  -0.00053   2.21506
    A9        2.10877  -0.00101   0.00000  -0.00403  -0.00410   2.10467
   A10        1.95734   0.00107   0.00000   0.00352   0.00349   1.96083
   A11        1.96211  -0.00325   0.00000  -0.01020  -0.01018   1.95193
   A12        2.12757   0.00022   0.00000  -0.00329  -0.00331   2.12425
   A13        2.19347   0.00303   0.00000   0.01354   0.01352   2.20700
   A14        1.96302  -0.00051   0.00000   0.00215   0.00214   1.96515
   A15        2.16003   0.00093   0.00000   0.00300   0.00300   2.16304
   A16        2.16014  -0.00043   0.00000  -0.00514  -0.00514   2.15499
   A17        1.96002  -0.00083   0.00000  -0.00352  -0.00358   1.95644
   A18        2.24015   0.00027   0.00000   0.00088   0.00088   2.24102
   A19        2.08302   0.00056   0.00000   0.00262   0.00262   2.08563
   A20        1.58219   0.00352   0.00000   0.00803   0.00801   1.59020
   A21        1.88296  -0.00503   0.00000  -0.03213  -0.03227   1.85069
   A22        1.87336   0.00311   0.00000   0.02112   0.02124   1.89459
   A23        1.89527  -0.00283   0.00000  -0.01744  -0.01761   1.87766
   A24        1.92167   0.00099   0.00000   0.00697   0.00716   1.92883
   A25        1.93571   0.00307   0.00000   0.01318   0.01268   1.94839
   A26        1.95228   0.00040   0.00000   0.00654   0.00662   1.95890
   A27        1.99785  -0.01334   0.00000  -0.07982  -0.07982   1.91802
    D1       -2.85250  -0.00060   0.00000  -0.02820  -0.02819  -2.88069
    D2        1.59135  -0.00209   0.00000  -0.02744  -0.02751   1.56385
    D3       -0.59632  -0.00055   0.00000  -0.02171  -0.02165  -0.61796
    D4        0.09013   0.00112   0.00000  -0.02428  -0.02433   0.06580
    D5       -3.11478   0.00071   0.00000  -0.04495  -0.04495   3.12346
    D6        2.13824  -0.00019   0.00000  -0.03586  -0.03588   2.10236
    D7       -1.06667  -0.00060   0.00000  -0.05652  -0.05650  -1.12317
    D8       -2.28597  -0.00202   0.00000  -0.05094  -0.05094  -2.33691
    D9        0.79231  -0.00242   0.00000  -0.07161  -0.07156   0.72075
   D10       -1.21530  -0.00083   0.00000  -0.01219  -0.01242  -1.22772
   D11        2.99747  -0.00100   0.00000  -0.01468  -0.01469   2.98278
   D12        0.88394  -0.00168   0.00000  -0.02489  -0.02476   0.85917
   D13       -3.06728   0.00038   0.00000  -0.00199  -0.00219  -3.06947
   D14        1.14549   0.00022   0.00000  -0.00448  -0.00445   1.14104
   D15       -0.96804  -0.00046   0.00000  -0.01470  -0.01453  -0.98257
   D16        1.17847   0.00124   0.00000   0.00551   0.00535   1.18382
   D17       -0.89194   0.00107   0.00000   0.00301   0.00308  -0.88886
   D18       -3.00547   0.00040   0.00000  -0.00720  -0.00699  -3.01247
   D19       -0.63881  -0.00266   0.00000  -0.05592  -0.05601  -0.69482
   D20        1.51898  -0.00254   0.00000  -0.04719  -0.04718   1.47180
   D21       -2.92399  -0.00119   0.00000  -0.04912  -0.04904  -2.97303
   D22        3.09682  -0.00056   0.00000  -0.02063  -0.02067   3.07615
   D23       -0.05306  -0.00035   0.00000  -0.01462  -0.01469  -0.06775
   D24        0.01393  -0.00012   0.00000  -0.00126  -0.00126   0.01267
   D25       -3.13595   0.00009   0.00000   0.00476   0.00472  -3.13123
   D26       -3.09897   0.00026   0.00000   0.01240   0.01235  -3.08661
   D27       -0.01200  -0.00012   0.00000  -0.00552  -0.00556  -0.01756
   D28       -0.00868   0.00034   0.00000   0.00969   0.00967   0.00100
   D29        3.13453   0.00019   0.00000   0.00525   0.00523   3.13976
   D30        3.14158   0.00014   0.00000   0.00351   0.00346  -3.13815
   D31        0.00160  -0.00001   0.00000  -0.00093  -0.00098   0.00061
   D32       -0.00053  -0.00038   0.00000  -0.01372  -0.01373  -0.01426
   D33       -3.14068  -0.00003   0.00000  -0.00085  -0.00084  -3.14152
   D34        3.13945  -0.00023   0.00000  -0.00926  -0.00930   3.13015
   D35       -0.00070   0.00011   0.00000   0.00361   0.00359   0.00288
   D36        0.00702   0.00028   0.00000   0.01102   0.01102   0.01804
   D37       -3.13587  -0.00003   0.00000  -0.00057  -0.00059  -3.13646
         Item               Value     Threshold  Converged?
 Maximum Force            0.013337     0.000450     NO 
 RMS     Force            0.004905     0.000300     NO 
 Maximum Displacement     0.154454     0.001800     NO 
 RMS     Displacement     0.044013     0.001200     NO 
 Predicted change in Energy=-3.727410D-03
 GradGradGradGradGradGradGradGradGradGradGradGradGradGradGradGradGradGrad

                          Input orientation:                          
 ---------------------------------------------------------------------
 Center     Atomic      Atomic             Coordinates (Angstroms)
 Number     Number       Type             X           Y           Z
 ---------------------------------------------------------------------
      1          7           0       -1.838539    1.584101   -0.059881
      2         16           0       -1.445072    0.105821    0.080641
      3          6           0        0.335985    0.250657   -0.005514
      4          6           0        1.064389    1.407913   -0.084285
      5          6           0        2.464754    1.155392   -0.050943
      6          6           0        2.757033   -0.180954    0.050494
      7         16           0        1.339032   -1.148636    0.129543
      8          6           0       -1.740837   -0.876741   -1.402203
      9          7           0       -1.930615   -0.875157    1.156959
     10          1           0       -2.810768    1.709104    0.214239
     11          1           0        0.583542    2.383722   -0.164202
     12          1           0        3.225990    1.935827   -0.102931
     13          1           0        3.736434   -0.658679    0.096035
     14          1           0       -2.831111   -0.967065   -1.493706
     15          1           0       -1.283391   -1.864617   -1.263483
     16          1           0       -1.307256   -0.333979   -2.251328
     17          1           0       -1.977535   -0.404345    2.059470
 ---------------------------------------------------------------------
                    Distance matrix (angstroms):
                    1          2          3          4          5
     1  N    0.000000
     2  S    1.536188   0.000000
     3  C    2.551389   1.789012   0.000000
     4  C    2.908372   2.831967   1.369678   0.000000
     5  C    4.324604   4.050389   2.313496   1.423341   0.000000
     6  C    4.924112   4.211987   2.459857   2.325448   1.371691
     7  S    4.195318   3.054062   1.726952   2.580134   2.570674
     8  C    2.804838   1.803255   2.744987   3.850434   4.862351
     9  N    2.745383   1.535099   2.785009   3.965241   4.990132
    10  H    1.017840   2.110330   3.475258   3.898291   5.311125
    11  H    2.552793   3.060074   2.153238   1.090781   2.249574
    12  H    5.076910   5.020104   3.346852   2.225210   1.091449
    13  H    6.011214   5.237624   3.521400   3.382772   2.220276
    14  H    3.090227   2.356005   3.705140   4.775135   5.884945
    15  H    3.694659   2.390698   2.946057   4.196669   4.963799
    16  H    2.960360   2.377077   2.843540   3.654445   4.613890
    17  H    2.909448   2.111765   3.169474   4.139235   5.159511
                    6          7          8          9         10
     6  C    0.000000
     7  S    1.718540   0.000000
     8  C    4.777580   3.450474   0.000000
     9  N    4.866232   3.438163   2.566189   0.000000
    10  H    5.882137   5.039315   3.231754   2.888217   0.000000
    11  H    3.368638   3.624169   4.191181   4.322816   3.481331
    12  H    2.173528   3.623336   5.853888   6.006623   6.049335
    13  H    1.090652   2.447185   5.682672   5.769564   6.963206
    14  H    5.850630   4.478617   1.097830   2.800958   3.174803
    15  H    4.570151   3.054547   1.097451   2.693784   4.157888
    16  H    4.673355   3.651720   1.097085   3.506832   3.537479
    17  H    5.148011   3.908734   3.501766   1.019015   2.926743
                   11         12         13         14         15
    11  H    0.000000
    12  H    2.680839   0.000000
    13  H    4.389152   2.651717   0.000000
    14  H    4.965401   6.859265   6.764247   0.000000
    15  H    4.768883   6.010389   5.338654   1.803896   0.000000
    16  H    3.913708   5.506174   5.572644   1.815743   1.821884
    17  H    4.390575   6.101561   6.047248   3.697338   3.695436
                   16         17
    16  H    0.000000
    17  H    4.363165   0.000000
 Stoichiometry    C5H8N2S2
 Framework group  C1[X(C5H8N2S2)]
 Deg. of freedom    45
 Full point group                 C1      NOp   1
 Largest Abelian subgroup         C1      NOp   1
 Largest concise Abelian subgroup C1      NOp   1
                         Standard orientation:                         
 ---------------------------------------------------------------------
 Center     Atomic      Atomic             Coordinates (Angstroms)
 Number     Number       Type             X           Y           Z
 ---------------------------------------------------------------------
      1          7           0        1.787613    1.615521    0.004996
      2         16           0        1.423402    0.128160   -0.117397
      3          6           0       -0.358478    0.235719    0.000501
      4          6           0       -1.109944    1.377785    0.084187
      5          6           0       -2.504954    1.095267    0.078512
      6          6           0       -2.770344   -0.247741   -0.007710
      7         16           0       -1.333621   -1.185607   -0.105775
      8          6           0        1.767185   -0.836391    1.366915
      9          7           0        1.910102   -0.850554   -1.195252
     10          1           0        2.751772    1.759065   -0.287905
     11          1           0       -0.648730    2.364195    0.148065
     12          1           0       -3.281656    1.859703    0.138792
     13          1           0       -3.739956   -0.746540   -0.031686
     14          1           0        2.860634   -0.902781    1.438970
     15          1           0        1.328548   -1.834823    1.243903
     16          1           0        1.337663   -0.296432    2.219880
     17          1           0        1.930431   -0.385842   -2.101906
 ---------------------------------------------------------------------
 Rotational constants (GHZ):           2.3755593           0.9294202           0.7850995
 Standard basis: def2SVP (5D, 7F)
 There are   183 symmetry adapted cartesian basis functions of A   symmetry.
 There are   174 symmetry adapted basis functions of A   symmetry.
   174 basis functions,   305 primitive gaussians,   183 cartesian basis functions
    42 alpha electrons       42 beta electrons
       nuclear repulsion energy       641.6650798613 Hartrees.
 NAtoms=   17 NActive=   17 NUniq=   17 SFac= 1.00D+00 NAtFMM=   60 NAOKFM=F Big=F
 Integral buffers will be    131072 words long.
 Raffenetti 2 integral format.
 Two-electron integral symmetry is turned on.
 Nuclear repulsion after empirical dispersion term =      641.6453693583 Hartrees.
 One-electron integrals computed using PRISM.
   1 Symmetry operations used in ECPInt.
 ECPInt:  NShTT=    3403 NPrTT=   13041 LenC2=    3344 LenP2D=    9775.
 LDataN:  DoStor=T MaxTD1= 4 Len=   56
 NBasis=   174 RedAO= T EigKep=  8.17D-04  NBF=   174
 NBsUse=   174 1.00D-06 EigRej= -1.00D+00 NBFU=   174
 Initial guess from the checkpoint file:  "SDI2635_1.chk"
 B after Tr=     0.000000    0.000000   -0.000000
         Rot=    0.999806    0.019518   -0.002703   -0.000804 Ang=   2.26 deg.
 ExpMin= 1.22D-01 ExpMax= 9.18D+03 ExpMxC= 1.38D+03 IAcc=3 IRadAn=         5 AccDes= 0.00D+00
 Harris functional with IExCor= 1009 and IRadAn=       5 diagonalized for initial guess.
 HarFok:  IExCor= 1009 AccDes= 0.00D+00 IRadAn=         5 IDoV= 1 UseB2=F ITyADJ=14
 ICtDFT=  3500011 ScaDFX=  1.000000  1.000000  1.000000  1.000000
 FoFCou: FMM=F IPFlag=           0 FMFlag=      100000 FMFlg1=           0
         NFxFlg=           0 DoJE=T BraDBF=F KetDBF=T FulRan=T
         wScrn=  0.000000 ICntrl=       500 IOpCl=  0 I1Cent=   200000004 NGrid=           0
         NMat0=    1 NMatS0=      1 NMatT0=    0 NMatD0=    1 NMtDS0=    0 NMtDT0=    0
 Petite list used in FoFCou.
 Requested convergence on RMS density matrix=1.00D-08 within 128 cycles.
 Requested convergence on MAX density matrix=1.00D-06.
 Requested convergence on             energy=1.00D-06.
 No special actions if energy rises.
 Integral accuracy reduced to 1.0D-05 until final iterations.
 Initial convergence to 1.0D-05 achieved.  Increase integral accuracy.
 SCF Done:  E(RPBE1PBE) =  -1099.99368357     A.U. after   12 cycles
            NFock= 12  Conv=0.95D-08     -V/T= 2.0042
   1 Symmetry operations used in ECPInt.
 ECPInt:  NShTT=    3403 NPrTT=   13041 LenC2=    3344 LenP2D=    9775.
 LDataN:  DoStor=T MaxTD1= 5 Len=  102
 Calling FoFJK, ICntrl=      2127 FMM=F ISym2X=0 I1Cent= 0 IOpClX= 0 NMat=1 NMatS=1 NMatT=0.
 ***** Axes restored to original set *****
 -------------------------------------------------------------------
 Center     Atomic                   Forces (Hartrees/Bohr)
 Number     Number              X              Y              Z
 -------------------------------------------------------------------
      1        7           0.000672896    0.007955937    0.000450707
      2       16           0.006118552   -0.004567706   -0.007899187
      3        6           0.000285861    0.000012378    0.001171207
      4        6           0.002351459    0.000509457   -0.000257708
      5        6          -0.000721916    0.000662287   -0.000594749
      6        6          -0.001302352   -0.000791131    0.000462522
      7       16          -0.000087887    0.001399051    0.000326260
      8        6           0.000877309    0.001673101    0.001894441
      9        7          -0.006859396   -0.006239610    0.003487060
     10        1          -0.003051663   -0.001637328   -0.000664356
     11        1          -0.000131505   -0.000883599    0.000141734
     12        1          -0.000031588   -0.000506355    0.000018880
     13        1          -0.000482872    0.000643684   -0.000032584
     14        1           0.000006747   -0.000085671    0.000126464
     15        1          -0.000520688    0.000160005   -0.001102701
     16        1          -0.000465290   -0.000266252   -0.000049209
     17        1           0.003342333    0.001961753    0.002521220
 -------------------------------------------------------------------
 Cartesian Forces:  Max     0.007955937 RMS     0.002584051

 GradGradGradGradGradGradGradGradGradGradGradGradGradGradGradGradGradGrad
 Berny optimization.
 Using GEDIIS/GDIIS optimizer.
 FormGI is forming the generalized inverse of G from B-inverse, IUseBI=4.
 Internal  Forces:  Max     0.008057953 RMS     0.001561262
 Search for a local minimum.
 Step number   2 out of a maximum of   91
 All quantities printed in internal units (Hartrees-Bohrs-Radians)
 Mixed Optimization -- RFO/linear search
 Update second derivatives using D2CorX and points    1    2
 DE= -4.06D-03 DEPred=-3.73D-03 R= 1.09D+00
 TightC=F SS=  1.41D+00  RLast= 2.29D-01 DXNew= 5.0454D-01 6.8790D-01
 Trust test= 1.09D+00 RLast= 2.29D-01 DXMaxT set to 5.05D-01
 ITU=  1  0
 Use linear search instead of GDIIS.
     Eigenvalues ---    0.00230   0.00486   0.01350   0.01851   0.02135
     Eigenvalues ---    0.02279   0.02335   0.02420   0.03142   0.03481
     Eigenvalues ---    0.05949   0.06223   0.06469   0.08948   0.09419
     Eigenvalues ---    0.13879   0.15796   0.15999   0.16000   0.16000
     Eigenvalues ---    0.16000   0.16000   0.16000   0.16246   0.19389
     Eigenvalues ---    0.22208   0.23761   0.23949   0.24961   0.26850
     Eigenvalues ---    0.32151   0.32619   0.35564   0.35615   0.35905
     Eigenvalues ---    0.36655   0.36889   0.38342   0.43368   0.45386
     Eigenvalues ---    0.46553   0.49252   0.52886   0.66231   0.69449
 RFO step:  Lambda=-1.32191828D-03 EMin= 2.29729698D-03
 Quartic linear search produced a step of  0.16886.
 Iteration  1 RMS(Cart)=  0.06102061 RMS(Int)=  0.00151446
 Iteration  2 RMS(Cart)=  0.00183849 RMS(Int)=  0.00003786
 Iteration  3 RMS(Cart)=  0.00000138 RMS(Int)=  0.00003784
 Iteration  4 RMS(Cart)=  0.00000000 RMS(Int)=  0.00003784
 Variable       Old X    -DE/DX   Delta X   Delta X   Delta X     New X
                                 (Linear)    (Quad)   (Total)
    R1        2.90297   0.00671   0.00034   0.01173   0.01207   2.91504
    R2        1.92344   0.00253   0.00360   0.00603   0.00963   1.93306
    R3        3.38074  -0.00009  -0.00059  -0.00036  -0.00094   3.37980
    R4        3.40766  -0.00151  -0.00734  -0.00652  -0.01386   3.39380
    R5        2.90092   0.00806   0.00031   0.01404   0.01435   2.91527
    R6        2.58832   0.00049   0.00337   0.00092   0.00429   2.59261
    R7        3.26347  -0.00143   0.00065  -0.00492  -0.00426   3.25921
    R8        2.68973  -0.00151   0.00361  -0.00430  -0.00069   2.68904
    R9        2.06128  -0.00074   0.00552  -0.00278   0.00274   2.06402
   R10        2.59212  -0.00041   0.00416  -0.00130   0.00286   2.59498
   R11        2.06254  -0.00039   0.00524  -0.00164   0.00360   2.06614
   R12        3.24757  -0.00115  -0.00046  -0.00403  -0.00450   3.24307
   R13        2.06103  -0.00072   0.00596  -0.00272   0.00324   2.06427
   R14        2.07460  -0.00001   0.00458  -0.00041   0.00417   2.07877
   R15        2.07388  -0.00050   0.00478  -0.00201   0.00277   2.07665
   R16        2.07319  -0.00028   0.00428  -0.00125   0.00303   2.07622
   R17        1.92566   0.00299   0.00397   0.00712   0.01109   1.93675
    A1        1.91580  -0.00325  -0.01222  -0.02207  -0.03429   1.88151
    A2        1.74435   0.00074  -0.00155   0.00616   0.00466   1.74900
    A3        1.99009  -0.00122  -0.00173  -0.00838  -0.01015   1.97994
    A4        2.21188  -0.00111   0.00487  -0.01623  -0.01138   2.20051
    A5        1.73939   0.00113   0.00107   0.01536   0.01644   1.75584
    A6        1.98274  -0.00069  -0.00084  -0.00336  -0.00435   1.97839
    A7        1.74821   0.00154  -0.00250   0.01307   0.01054   1.75875
    A8        2.21506   0.00111  -0.00009   0.00486   0.00475   2.21982
    A9        2.10467  -0.00117  -0.00069  -0.00561  -0.00632   2.09835
   A10        1.96083   0.00005   0.00059   0.00042   0.00099   1.96182
   A11        1.95193   0.00004  -0.00172   0.00056  -0.00116   1.95077
   A12        2.12425  -0.00055  -0.00056  -0.00392  -0.00448   2.11978
   A13        2.20700   0.00051   0.00228   0.00335   0.00563   2.21262
   A14        1.96515  -0.00044   0.00036  -0.00256  -0.00222   1.96293
   A15        2.16304   0.00056   0.00051   0.00367   0.00418   2.16721
   A16        2.15499  -0.00012  -0.00087  -0.00109  -0.00196   2.15303
   A17        1.95644   0.00061  -0.00060   0.00293   0.00231   1.95875
   A18        2.24102  -0.00068   0.00015  -0.00412  -0.00397   2.23705
   A19        2.08563   0.00007   0.00044   0.00127   0.00171   2.08735
   A20        1.59020  -0.00026   0.00135  -0.00126   0.00009   1.59028
   A21        1.85069  -0.00047  -0.00545  -0.00405  -0.00952   1.84118
   A22        1.89459   0.00174   0.00359   0.01338   0.01698   1.91157
   A23        1.87766   0.00031  -0.00297   0.00265  -0.00040   1.87726
   A24        1.92883  -0.00055   0.00121  -0.00419  -0.00291   1.92592
   A25        1.94839  -0.00021   0.00214  -0.00437  -0.00234   1.94605
   A26        1.95890  -0.00071   0.00112  -0.00264  -0.00156   1.95734
   A27        1.91802  -0.00319  -0.01348  -0.02154  -0.03502   1.88301
    D1       -2.88069  -0.00026  -0.00476  -0.02330  -0.02805  -2.90875
    D2        1.56385  -0.00155  -0.00464  -0.04135  -0.04594   1.51790
    D3       -0.61796  -0.00141  -0.00366  -0.03523  -0.03894  -0.65690
    D4        0.06580  -0.00060  -0.00411  -0.07585  -0.08000  -0.01420
    D5        3.12346  -0.00069  -0.00759  -0.08121  -0.08883   3.03462
    D6        2.10236  -0.00136  -0.00606  -0.07862  -0.08464   2.01773
    D7       -1.12317  -0.00144  -0.00954  -0.08398  -0.09347  -1.21664
    D8       -2.33691   0.00075  -0.00860  -0.05714  -0.06575  -2.40266
    D9        0.72075   0.00066  -0.01208  -0.06250  -0.07459   0.64616
   D10       -1.22772   0.00072  -0.00210  -0.01879  -0.02096  -1.24869
   D11        2.98278   0.00072  -0.00248  -0.01854  -0.02101   2.96178
   D12        0.85917   0.00039  -0.00418  -0.02467  -0.02885   0.83032
   D13       -3.06947  -0.00034  -0.00037  -0.03110  -0.03145  -3.10092
   D14        1.14104  -0.00033  -0.00075  -0.03084  -0.03149   1.10955
   D15       -0.98257  -0.00067  -0.00245  -0.03698  -0.03934  -1.02191
   D16        1.18382  -0.00037   0.00090  -0.03556  -0.03477   1.14906
   D17       -0.88886  -0.00036   0.00052  -0.03531  -0.03481  -0.92366
   D18       -3.01247  -0.00070  -0.00118  -0.04144  -0.04265  -3.05512
   D19       -0.69482  -0.00198  -0.00946  -0.05839  -0.06791  -0.76273
   D20        1.47180  -0.00275  -0.00797  -0.06922  -0.07715   1.39465
   D21       -2.97303  -0.00091  -0.00828  -0.04628  -0.05454  -3.02757
   D22        3.07615   0.00000  -0.00349   0.00180  -0.00172   3.07444
   D23       -0.06775  -0.00007  -0.00248  -0.00233  -0.00482  -0.07258
   D24        0.01267   0.00014  -0.00021   0.00706   0.00686   0.01953
   D25       -3.13123   0.00006   0.00080   0.00293   0.00375  -3.12748
   D26       -3.08661   0.00001   0.00209   0.00403   0.00608  -3.08053
   D27       -0.01756  -0.00000  -0.00094  -0.00035  -0.00129  -0.01886
   D28        0.00100  -0.00024   0.00163  -0.01223  -0.01059  -0.00959
   D29        3.13976  -0.00007   0.00088  -0.00369  -0.00279   3.13697
   D30       -3.13815  -0.00015   0.00058  -0.00784  -0.00726   3.13778
   D31        0.00061   0.00002  -0.00017   0.00069   0.00054   0.00116
   D32       -0.01426   0.00023  -0.00232   0.01191   0.00960  -0.00466
   D33       -3.14152   0.00010  -0.00014   0.00482   0.00467  -3.13685
   D34        3.13015   0.00006  -0.00157   0.00341   0.00187   3.13201
   D35        0.00288  -0.00007   0.00061  -0.00368  -0.00306  -0.00018
   D36        0.01804  -0.00012   0.00186  -0.00667  -0.00482   0.01322
   D37       -3.13646  -0.00001  -0.00010  -0.00033  -0.00041  -3.13687
         Item               Value     Threshold  Converged?
 Maximum Force            0.008058     0.000450     NO 
 RMS     Force            0.001561     0.000300     NO 
 Maximum Displacement     0.210401     0.001800     NO 
 RMS     Displacement     0.061153     0.001200     NO 
 Predicted change in Energy=-7.927290D-04
 GradGradGradGradGradGradGradGradGradGradGradGradGradGradGradGradGradGrad

                          Input orientation:                          
 ---------------------------------------------------------------------
 Center     Atomic      Atomic             Coordinates (Angstroms)
 Number     Number       Type             X           Y           Z
 ---------------------------------------------------------------------
      1          7           0       -1.845041    1.578318   -0.023166
      2         16           0       -1.439858    0.093469    0.079730
      3          6           0        0.340521    0.244458    0.000787
      4          6           0        1.069651    1.398771   -0.134032
      5          6           0        2.469219    1.149207   -0.072414
      6          6           0        2.757400   -0.179764    0.118591
      7         16           0        1.340568   -1.141360    0.233160
      8          6           0       -1.759178   -0.839895   -1.421002
      9          7           0       -1.921811   -0.907715    1.149895
     10          1           0       -2.832477    1.651580    0.233731
     11          1           0        0.583642    2.366696   -0.275059
     12          1           0        3.235655    1.923865   -0.161326
     13          1           0        3.738472   -0.651866    0.207374
     14          1           0       -2.852959   -0.943705   -1.475320
     15          1           0       -1.284770   -1.828348   -1.346709
     16          1           0       -1.367809   -0.254993   -2.264707
     17          1           0       -1.889190   -0.436355    2.059370
 ---------------------------------------------------------------------
                    Distance matrix (angstroms):
                    1          2          3          4          5
     1  N    0.000000
     2  S    1.542575   0.000000
     3  C    2.560554   1.788512   0.000000
     4  C    2.922321   2.836749   1.371950   0.000000
     5  C    4.335827   4.051988   2.314149   1.422979   0.000000
     6  C    4.928835   4.206322   2.456654   2.324670   1.373206
     7  S    4.196481   3.046163   1.724698   2.580793   2.571755
     8  C    2.794473   1.795921   2.757906   3.830169   4.863595
     9  N    2.749968   1.542693   2.786772   3.989636   5.000611
    10  H    1.022933   2.095426   3.478816   3.927565   5.334236
    11  H    2.565831   3.063982   2.153855   1.092232   2.253607
    12  H    5.094307   5.026816   3.350894   2.228911   1.093355
    13  H    6.016850   5.233251   3.520248   3.382938   2.221069
    14  H    3.079814   2.343238   3.713346   4.761630   5.888464
    15  H    3.697438   2.398366   2.958690   4.174708   4.958034
    16  H    2.934840   2.371286   2.881025   3.635372   4.636886
    17  H    2.897898   2.097996   3.110125   4.115026   5.104335
                    6          7          8          9         10
     6  C    0.000000
     7  S    1.716161   0.000000
     8  C    4.817219   3.526408   0.000000
     9  N    4.846496   3.396779   2.576929   0.000000
    10  H    5.883349   5.021435   3.177666   2.866820   0.000000
    11  H    3.371149   3.624593   4.133306   4.362287   3.527056
    12  H    2.175393   3.625270   5.845812   6.027985   6.087071
    13  H    1.092366   2.447491   5.736821   5.743919   6.963039
    14  H    5.882201   4.532509   1.100038   2.785693   3.107536
    15  H    4.604789   3.140118   1.098918   2.736132   4.123479
    16  H    4.764779   3.789497   1.098689   3.520294   3.467342
    17  H    5.042149   3.776693   3.506100   1.024884   2.929542
                   11         12         13         14         15
    11  H    0.000000
    12  H    2.691136   0.000000
    13  H    4.392881   2.650123   0.000000
    14  H    4.920326   6.857169   6.809081   0.000000
    15  H    4.715696   5.993204   5.388158   1.805090   0.000000
    16  H    3.826240   5.510311   5.687073   1.817450   1.823476
    17  H    4.406989   6.063512   5.928483   3.698687   3.728852
                   16         17
    16  H    0.000000
    17  H    4.359170   0.000000
 Stoichiometry    C5H8N2S2
 Framework group  C1[X(C5H8N2S2)]
 Deg. of freedom    45
 Full point group                 C1      NOp   1
 Largest Abelian subgroup         C1      NOp   1
 Largest concise Abelian subgroup C1      NOp   1
                         Standard orientation:                         
 ---------------------------------------------------------------------
 Center     Atomic      Atomic             Coordinates (Angstroms)
 Number     Number       Type             X           Y           Z
 ---------------------------------------------------------------------
      1          7           0        1.792457    1.608984   -0.142930
      2         16           0        1.418241    0.112601   -0.124535
      3          6           0       -0.361631    0.232462    0.003792
      4          6           0       -1.112234    1.378362    0.079646
      5          6           0       -2.506985    1.096368    0.083827
      6          6           0       -2.770717   -0.248613   -0.000836
      7         16           0       -1.336707   -1.186793   -0.093800
      8          6           0        1.807334   -0.702130    1.427931
      9          7           0        1.888028   -0.953864   -1.135403
     10          1           0        2.769108    1.683522   -0.437870
     11          1           0       -0.644188    2.363739    0.133828
     12          1           0       -3.287665    1.859592    0.142595
     13          1           0       -3.743089   -0.745918   -0.021900
     14          1           0        2.904390   -0.779289    1.452379
     15          1           0        1.353514   -1.702874    1.441357
     16          1           0        1.430245   -0.065408    2.240030
     17          1           0        1.815154   -0.550833   -2.074894
 ---------------------------------------------------------------------
 Rotational constants (GHZ):           2.3758138           0.9257600           0.7850328
 Standard basis: def2SVP (5D, 7F)
 There are   183 symmetry adapted cartesian basis functions of A   symmetry.
 There are   174 symmetry adapted basis functions of A   symmetry.
   174 basis functions,   305 primitive gaussians,   183 cartesian basis functions
    42 alpha electrons       42 beta electrons
       nuclear repulsion energy       641.1970367433 Hartrees.
 NAtoms=   17 NActive=   17 NUniq=   17 SFac= 1.00D+00 NAtFMM=   60 NAOKFM=F Big=F
 Integral buffers will be    131072 words long.
 Raffenetti 2 integral format.
 Two-electron integral symmetry is turned on.
 Nuclear repulsion after empirical dispersion term =      641.1773393511 Hartrees.
 One-electron integrals computed using PRISM.
   1 Symmetry operations used in ECPInt.
 ECPInt:  NShTT=    3403 NPrTT=   13041 LenC2=    3343 LenP2D=    9774.
 LDataN:  DoStor=T MaxTD1= 4 Len=   56
 NBasis=   174 RedAO= T EigKep=  8.20D-04  NBF=   174
 NBsUse=   174 1.00D-06 EigRej= -1.00D+00 NBFU=   174
 Initial guess from the checkpoint file:  "SDI2635_1.chk"
 B after Tr=     0.000000    0.000000    0.000000
         Rot=    0.999635    0.026780   -0.003516    0.000026 Ang=   3.10 deg.
 ExpMin= 1.22D-01 ExpMax= 9.18D+03 ExpMxC= 1.38D+03 IAcc=3 IRadAn=         5 AccDes= 0.00D+00
 Harris functional with IExCor= 1009 and IRadAn=       5 diagonalized for initial guess.
 HarFok:  IExCor= 1009 AccDes= 0.00D+00 IRadAn=         5 IDoV= 1 UseB2=F ITyADJ=14
 ICtDFT=  3500011 ScaDFX=  1.000000  1.000000  1.000000  1.000000
 FoFCou: FMM=F IPFlag=           0 FMFlag=      100000 FMFlg1=           0
         NFxFlg=           0 DoJE=T BraDBF=F KetDBF=T FulRan=T
         wScrn=  0.000000 ICntrl=       500 IOpCl=  0 I1Cent=   200000004 NGrid=           0
         NMat0=    1 NMatS0=      1 NMatT0=    0 NMatD0=    1 NMtDS0=    0 NMtDT0=    0
 Petite list used in FoFCou.
 Requested convergence on RMS density matrix=1.00D-08 within 128 cycles.
 Requested convergence on MAX density matrix=1.00D-06.
 Requested convergence on             energy=1.00D-06.
 No special actions if energy rises.
 Integral accuracy reduced to 1.0D-05 until final iterations.
 Initial convergence to 1.0D-05 achieved.  Increase integral accuracy.
 SCF Done:  E(RPBE1PBE) =  -1099.99470713     A.U. after   13 cycles
            NFock= 13  Conv=0.32D-08     -V/T= 2.0042
   1 Symmetry operations used in ECPInt.
 ECPInt:  NShTT=    3403 NPrTT=   13041 LenC2=    3343 LenP2D=    9774.
 LDataN:  DoStor=T MaxTD1= 5 Len=  102
 Calling FoFJK, ICntrl=      2127 FMM=F ISym2X=0 I1Cent= 0 IOpClX= 0 NMat=1 NMatS=1 NMatT=0.
 ***** Axes restored to original set *****
 -------------------------------------------------------------------
 Center     Atomic                   Forces (Hartrees/Bohr)
 Number     Number              X              Y              Z
 -------------------------------------------------------------------
      1        7          -0.001393112    0.003492298    0.001611578
      2       16           0.004617969   -0.001372858   -0.002633770
      3        6          -0.000258858    0.001802419    0.001040122
      4        6           0.000524933   -0.000089108   -0.001345480
      5        6          -0.000085030    0.000542655    0.000246242
      6        6           0.000562939    0.000046058   -0.000372728
      7       16          -0.000478374    0.000205524    0.000440222
      8        6          -0.000377183   -0.000836616   -0.000110995
      9        7          -0.003081671   -0.001161857    0.002364154
     10        1           0.000238331   -0.000358065   -0.001544334
     11        1           0.000727909   -0.001451627    0.000566345
     12        1          -0.001195662   -0.001268507    0.000208794
     13        1          -0.001623861    0.000975707   -0.000204824
     14        1           0.001330718   -0.000093454   -0.000300497
     15        1          -0.000679232    0.001121993   -0.000535898
     16        1          -0.000664291   -0.000732189    0.001129512
     17        1           0.001834476   -0.000822374   -0.000558443
 -------------------------------------------------------------------
 Cartesian Forces:  Max     0.004617969 RMS     0.001362473

 GradGradGradGradGradGradGradGradGradGradGradGradGradGradGradGradGradGrad
 Berny optimization.
 Using GEDIIS/GDIIS optimizer.
 FormGI is forming the generalized inverse of G from B-inverse, IUseBI=4.
 Internal  Forces:  Max     0.003315716 RMS     0.000852670
 Search for a local minimum.
 Step number   3 out of a maximum of   91
 All quantities printed in internal units (Hartrees-Bohrs-Radians)
 Mixed Optimization -- En-DIIS/RFO-DIIS
 Update second derivatives using D2CorX and points    1    2    3
 DE= -1.02D-03 DEPred=-7.93D-04 R= 1.29D+00
 TightC=F SS=  1.41D+00  RLast= 2.69D-01 DXNew= 8.4853D-01 8.0761D-01
 Trust test= 1.29D+00 RLast= 2.69D-01 DXMaxT set to 8.08D-01
 ITU=  1  1  0
 Use linear search instead of GDIIS.
     Eigenvalues ---    0.00229   0.00426   0.01369   0.01854   0.02094
     Eigenvalues ---    0.02134   0.02326   0.02338   0.02446   0.03493
     Eigenvalues ---    0.05872   0.06251   0.06596   0.09050   0.09391
     Eigenvalues ---    0.14334   0.15954   0.15999   0.16000   0.16000
     Eigenvalues ---    0.16000   0.16000   0.16162   0.16308   0.19475
     Eigenvalues ---    0.22211   0.23636   0.24028   0.24992   0.27135
     Eigenvalues ---    0.32146   0.32658   0.35562   0.35657   0.35997
     Eigenvalues ---    0.36691   0.36894   0.39943   0.44063   0.46552
     Eigenvalues ---    0.48058   0.49252   0.54652   0.66204   0.66583
 RFO step:  Lambda=-4.09934900D-04 EMin= 2.29370560D-03
 Quartic linear search produced a step of  0.56501.
 Iteration  1 RMS(Cart)=  0.05377240 RMS(Int)=  0.00130031
 Iteration  2 RMS(Cart)=  0.00151774 RMS(Int)=  0.00002458
 Iteration  3 RMS(Cart)=  0.00000145 RMS(Int)=  0.00002456
 Iteration  4 RMS(Cart)=  0.00000000 RMS(Int)=  0.00002456
 Variable       Old X    -DE/DX   Delta X   Delta X   Delta X     New X
                                 (Linear)    (Quad)   (Total)
    R1        2.91504   0.00332   0.00682   0.00392   0.01074   2.92578
    R2        1.93306  -0.00064   0.00544  -0.00241   0.00303   1.93609
    R3        3.37980  -0.00178  -0.00053  -0.00993  -0.01046   3.36934
    R4        3.39380   0.00020  -0.00783   0.00018  -0.00766   3.38614
    R5        2.91527   0.00293   0.00811   0.00231   0.01041   2.92568
    R6        2.59261  -0.00122   0.00243  -0.00234   0.00009   2.59270
    R7        3.25921  -0.00073  -0.00241  -0.00129  -0.00369   3.25552
    R8        2.68904  -0.00177  -0.00039  -0.00337  -0.00376   2.68528
    R9        2.06402  -0.00168   0.00155  -0.00358  -0.00203   2.06199
   R10        2.59498  -0.00117   0.00162  -0.00114   0.00046   2.59545
   R11        2.06614  -0.00175   0.00203  -0.00438  -0.00234   2.06380
   R12        3.24307  -0.00049  -0.00254  -0.00089  -0.00343   3.23964
   R13        2.06427  -0.00190   0.00183  -0.00424  -0.00241   2.06186
   R14        2.07877  -0.00130   0.00236  -0.00335  -0.00100   2.07777
   R15        2.07665  -0.00134   0.00157  -0.00291  -0.00135   2.07531
   R16        2.07622  -0.00149   0.00171  -0.00403  -0.00231   2.07391
   R17        1.93675  -0.00082   0.00627  -0.00314   0.00313   1.93988
    A1        1.88151  -0.00022  -0.01937  -0.00020  -0.01958   1.86193
    A2        1.74900  -0.00003   0.00263  -0.00082   0.00184   1.75085
    A3        1.97994   0.00002  -0.00573   0.00216  -0.00362   1.97632
    A4        2.20051   0.00009  -0.00643   0.00670   0.00026   2.20077
    A5        1.75584   0.00042   0.00929   0.00001   0.00932   1.76515
    A6        1.97839  -0.00010  -0.00246  -0.00034  -0.00288   1.97550
    A7        1.75875  -0.00031   0.00595  -0.00861  -0.00267   1.75607
    A8        2.21982   0.00095   0.00268   0.00458   0.00723   2.22705
    A9        2.09835  -0.00138  -0.00357  -0.00630  -0.00990   2.08845
   A10        1.96182   0.00044   0.00056   0.00302   0.00356   1.96538
   A11        1.95077  -0.00001  -0.00066  -0.00174  -0.00242   1.94835
   A12        2.11978  -0.00001  -0.00253   0.00132  -0.00124   2.11854
   A13        2.21262   0.00002   0.00318   0.00050   0.00365   2.21628
   A14        1.96293   0.00002  -0.00126   0.00044  -0.00084   1.96209
   A15        2.16721   0.00004   0.00236  -0.00019   0.00217   2.16938
   A16        2.15303  -0.00006  -0.00111  -0.00021  -0.00132   2.15171
   A17        1.95875   0.00033   0.00130   0.00109   0.00235   1.96110
   A18        2.23705  -0.00035  -0.00224  -0.00153  -0.00378   2.23327
   A19        2.08735   0.00002   0.00097   0.00033   0.00129   2.08864
   A20        1.59028  -0.00078   0.00005  -0.00284  -0.00280   1.58749
   A21        1.84118   0.00056  -0.00538   0.00435  -0.00104   1.84014
   A22        1.91157   0.00066   0.00959   0.00391   0.01349   1.92506
   A23        1.87726  -0.00022  -0.00023  -0.00478  -0.00503   1.87223
   A24        1.92592  -0.00043  -0.00164  -0.00057  -0.00221   1.92371
   A25        1.94605  -0.00027  -0.00132  -0.00150  -0.00285   1.94320
   A26        1.95734  -0.00023  -0.00088  -0.00106  -0.00196   1.95537
   A27        1.88301  -0.00036  -0.01979  -0.00220  -0.02198   1.86102
    D1       -2.90875  -0.00071  -0.01585  -0.02990  -0.04575  -2.95450
    D2        1.51790  -0.00118  -0.02596  -0.03018  -0.05610   1.46180
    D3       -0.65690  -0.00081  -0.02200  -0.02578  -0.04782  -0.70472
    D4       -0.01420  -0.00038  -0.04520  -0.04683  -0.09205  -0.10625
    D5        3.03462  -0.00018  -0.05019  -0.02784  -0.07807   2.95655
    D6        2.01773  -0.00025  -0.04782  -0.04478  -0.09255   1.92517
    D7       -1.21664  -0.00005  -0.05281  -0.02579  -0.07857  -1.29521
    D8       -2.40266  -0.00041  -0.03715  -0.05467  -0.09182  -2.49448
    D9        0.64616  -0.00021  -0.04214  -0.03568  -0.07784   0.56832
   D10       -1.24869   0.00015  -0.01185  -0.00750  -0.01937  -1.26806
   D11        2.96178   0.00000  -0.01187  -0.01125  -0.02312   2.93865
   D12        0.83032   0.00002  -0.01630  -0.00934  -0.02566   0.80466
   D13       -3.10092  -0.00004  -0.01777  -0.00726  -0.02500  -3.12591
   D14        1.10955  -0.00019  -0.01779  -0.01101  -0.02875   1.08080
   D15       -1.02191  -0.00017  -0.02223  -0.00910  -0.03128  -1.05319
   D16        1.14906   0.00003  -0.01964  -0.00428  -0.02396   1.12509
   D17       -0.92366  -0.00012  -0.01967  -0.00803  -0.02772  -0.95138
   D18       -3.05512  -0.00010  -0.02410  -0.00613  -0.03025  -3.08537
   D19       -0.76273  -0.00123  -0.03837  -0.03552  -0.07392  -0.83665
   D20        1.39465  -0.00129  -0.04359  -0.03050  -0.07407   1.32059
   D21       -3.02757  -0.00100  -0.03081  -0.03497  -0.06577  -3.09334
   D22        3.07444   0.00006  -0.00097   0.00976   0.00885   3.08328
   D23       -0.07258   0.00027  -0.00273   0.02309   0.02039  -0.05219
   D24        0.01953  -0.00004   0.00388  -0.00755  -0.00368   0.01585
   D25       -3.12748   0.00017   0.00212   0.00578   0.00786  -3.11962
   D26       -3.08053  -0.00028   0.00344  -0.01951  -0.01602  -3.09655
   D27       -0.01886  -0.00006  -0.00073  -0.00298  -0.00371  -0.02257
   D28       -0.00959   0.00016  -0.00598   0.01763   0.01164   0.00205
   D29        3.13697   0.00010  -0.00157   0.00766   0.00608  -3.14013
   D30        3.13778  -0.00005  -0.00410   0.00343  -0.00067   3.13710
   D31        0.00116  -0.00012   0.00031  -0.00654  -0.00624  -0.00508
   D32       -0.00466  -0.00021   0.00543  -0.01986  -0.01445  -0.01911
   D33       -3.13685  -0.00005   0.00264  -0.00620  -0.00358  -3.14043
   D34        3.13201  -0.00015   0.00105  -0.00998  -0.00894   3.12307
   D35       -0.00018   0.00001  -0.00173   0.00367   0.00193   0.00175
   D36        0.01322   0.00016  -0.00272   0.01314   0.01041   0.02364
   D37       -3.13687   0.00001  -0.00023   0.00078   0.00052  -3.13635
         Item               Value     Threshold  Converged?
 Maximum Force            0.003316     0.000450     NO 
 RMS     Force            0.000853     0.000300     NO 
 Maximum Displacement     0.204519     0.001800     NO 
 RMS     Displacement     0.053918     0.001200     NO 
 Predicted change in Energy=-3.739786D-04
 GradGradGradGradGradGradGradGradGradGradGradGradGradGradGradGradGradGrad

                          Input orientation:                          
 ---------------------------------------------------------------------
 Center     Atomic      Atomic             Coordinates (Angstroms)
 Number     Number       Type             X           Y           Z
 ---------------------------------------------------------------------
      1          7           0       -1.849728    1.580711    0.018701
      2         16           0       -1.436615    0.090209    0.088288
      3          6           0        0.338161    0.247315    0.021277
      4          6           0        1.070360    1.389657   -0.181993
      5          6           0        2.466462    1.139313   -0.095743
      6          6           0        2.746953   -0.179387    0.166408
      7         16           0        1.328210   -1.125708    0.341386
      8          6           0       -1.762324   -0.805201   -1.429260
      9          7           0       -1.918086   -0.941687    1.137245
     10          1           0       -2.851017    1.618644    0.232379
     11          1           0        0.586075    2.347988   -0.376138
     12          1           0        3.237469    1.902312   -0.222616
     13          1           0        3.725830   -0.646718    0.284225
     14          1           0       -2.854278   -0.927944   -1.467940
     15          1           0       -1.270621   -1.786889   -1.405394
     16          1           0       -1.400741   -0.183648   -2.258329
     17          1           0       -1.814076   -0.496602    2.056410
 ---------------------------------------------------------------------
                    Distance matrix (angstroms):
                    1          2          3          4          5
     1  N    0.000000
     2  S    1.548258   0.000000
     3  C    2.562189   1.782976   0.000000
     4  C    2.933205   2.836642   1.371998   0.000000
     5  C    4.340210   4.045799   2.310631   1.420990   0.000000
     6  C    4.924352   4.192973   2.450595   2.322552   1.373451
     7  S    4.186660   3.030968   1.722748   2.582146   2.572357
     8  C    2.792277   1.791870   2.761139   3.794361   4.841697
     9  N    2.760128   1.548204   2.783839   4.013273   5.007502
    10  H    1.024537   2.087441   3.477925   3.949852   5.349112
    11  H    2.584134   3.066681   2.152261   1.091156   2.252858
    12  H    5.103062   5.022692   3.347310   2.227292   1.092116
[...]
   XX=    27.8466   YX=    -0.2703   ZX=     0.5899
   XY=    -0.6361   YY=    27.8354   ZY=     0.6419
   XZ=     1.5464   YZ=     2.9669   ZZ=    31.7135
   Eigenvalues:    26.5607    28.2627    32.5721
     17  H    Isotropic =    29.9145   Anisotropy =     9.1447
   XX=    27.4026   YX=    -0.0518   ZX=    -0.4332
   XY=    -0.5029   YY=    27.4416   ZY=     2.5499
   XZ=    -1.6936   YZ=     3.1753   ZZ=    34.8994
   Eigenvalues:    26.4618    27.2708    36.0110
 End of Minotr F.D. properties file   721 does not exist.
 End of Minotr F.D. properties file   722 does not exist.
 End of Minotr F.D. properties file   788 does not exist.

 **********************************************************************

            Population analysis using the SCF Density.

 **********************************************************************

 Orbital symmetries:
       Occupied  (A) (A) (A) (A) (A) (A) (A) (A) (A) (A) (A) (A)
                 (A) (A) (A) (A) (A) (A) (A) (A) (A) (A) (A) (A)
                 (A) (A) (A) (A) (A) (A) (A) (A) (A) (A) (A) (A)
                 (A) (A) (A) (A) (A) (A)
       Virtual   (A) (A) (A) (A) (A) (A) (A) (A) (A) (A) (A) (A)
                 (A) (A) (A) (A) (A) (A) (A) (A) (A) (A) (A) (A)
                 (A) (A) (A) (A) (A) (A) (A) (A) (A) (A) (A) (A)
                 (A) (A) (A) (A) (A) (A) (A) (A) (A) (A) (A) (A)
                 (A) (A) (A) (A) (A) (A) (A) (A) (A) (A) (A) (A)
                 (A) (A) (A) (A) (A) (A) (A) (A) (A) (A) (A) (A)
                 (A) (A) (A) (A) (A) (A) (A) (A) (A) (A) (A) (A)
                 (A) (A) (A) (A) (A) (A) (A) (A) (A) (A) (A) (A)
                 (A) (A) (A) (A) (A) (A) (A) (A) (A) (A) (A) (A)
                 (A) (A) (A) (A) (A) (A) (A) (A) (A) (A) (A) (A)
                 (A) (A) (A) (A) (A) (A) (A) (A) (A) (A) (A) (A)
                 (A) (A) (A) (A) (A) (A) (A) (A) (A) (A) (A) (A)
                 (A) (A) (A) (A) (A) (A) (A) (A) (A) (A) (A) (A)
                 (A) (A) (A) (A) (A) (A) (A) (A) (A) (A) (A) (A)
                 (A) (A) (A) (A) (A) (A) (A) (A) (A) (A) (A) (A)
                 (A) (A) (A) (A) (A) (A) (A) (A) (A) (A) (A) (A)
                 (A) (A) (A) (A) (A) (A) (A) (A) (A) (A) (A) (A)
                 (A) (A) (A) (A) (A) (A) (A) (A) (A) (A) (A) (A)
                 (A) (A) (A) (A) (A) (A) (A) (A) (A) (A) (A) (A)
                 (A) (A) (A) (A) (A) (A) (A) (A) (A) (A) (A) (A)
                 (A) (A) (A) (A) (A) (A) (A) (A) (A) (A) (A) (A)
                 (A) (A) (A) (A) (A) (A) (A) (A) (A) (A) (A) (A)
                 (A) (A) (A) (A) (A) (A) (A) (A) (A) (A) (A) (A)
                 (A) (A) (A) (A) (A) (A) (A) (A) (A) (A) (A) (A)
                 (A) (A) (A) (A) (A) (A) (A) (A) (A)
 The electronic state is 1-A.
 Alpha  occ. eigenvalues --  -89.17977 -89.06970 -14.34843 -14.34838 -10.27816
 Alpha  occ. eigenvalues --  -10.27020 -10.25419 -10.24847 -10.24602  -8.13493
 Alpha  occ. eigenvalues --   -8.04727  -6.07149  -6.07006  -6.06921  -5.98316
 Alpha  occ. eigenvalues --   -5.97955  -5.97762  -1.00820  -0.92123  -0.86461
 Alpha  occ. eigenvalues --   -0.78257  -0.77253  -0.75919  -0.65780  -0.59214
 Alpha  occ. eigenvalues --   -0.56631  -0.54646  -0.51708  -0.47302  -0.46819
 Alpha  occ. eigenvalues --   -0.43667  -0.43064  -0.42472  -0.41175  -0.40652
 Alpha  occ. eigenvalues --   -0.37473  -0.35932  -0.29686  -0.28315  -0.27229
 Alpha  occ. eigenvalues --   -0.26883  -0.24887
 Alpha virt. eigenvalues --   -0.04436   0.01811   0.02849   0.04584   0.05050
 Alpha virt. eigenvalues --    0.06747   0.07650   0.08178   0.08836   0.09041
 Alpha virt. eigenvalues --    0.10636   0.11066   0.11821   0.12434   0.13053
 Alpha virt. eigenvalues --    0.14897   0.16765   0.19104   0.20256   0.21283
 Alpha virt. eigenvalues --    0.22625   0.23030   0.23557   0.24197   0.26068
 Alpha virt. eigenvalues --    0.26913   0.27374   0.29680   0.30366   0.31123
 Alpha virt. eigenvalues --    0.32171   0.33165   0.34313   0.35125   0.36045
 Alpha virt. eigenvalues --    0.36273   0.38215   0.39003   0.40383   0.40675
 Alpha virt. eigenvalues --    0.40810   0.41077   0.42998   0.43510   0.44446
 Alpha virt. eigenvalues --    0.45414   0.45880   0.46755   0.47041   0.49195
 Alpha virt. eigenvalues --    0.50437   0.51086   0.52874   0.54051   0.54352
 Alpha virt. eigenvalues --    0.55384   0.56569   0.58257   0.61448   0.61904
 Alpha virt. eigenvalues --    0.63305   0.64946   0.66522   0.67739   0.68281
 Alpha virt. eigenvalues --    0.69508   0.71077   0.73743   0.75475   0.77444
 Alpha virt. eigenvalues --    0.78373   0.78932   0.82028   0.82749   0.86102
 Alpha virt. eigenvalues --    0.88936   0.90981   0.92420   0.93096   0.93985
 Alpha virt. eigenvalues --    0.95777   0.98569   0.99257   1.01174   1.03842
 Alpha virt. eigenvalues --    1.04609   1.06639   1.07023   1.07598   1.08183
 Alpha virt. eigenvalues --    1.10148   1.12547   1.15353   1.17990   1.21394
 Alpha virt. eigenvalues --    1.24349   1.25724   1.27780   1.28999   1.30725
 Alpha virt. eigenvalues --    1.32317   1.37164   1.37363   1.39579   1.41971
 Alpha virt. eigenvalues --    1.45170   1.45911   1.46784   1.48174   1.49622
 Alpha virt. eigenvalues --    1.50296   1.50748   1.52148   1.52673   1.53556
 Alpha virt. eigenvalues --    1.55439   1.56916   1.57959   1.58634   1.59309
 Alpha virt. eigenvalues --    1.60451   1.62238   1.63828   1.64194   1.66108
 Alpha virt. eigenvalues --    1.68368   1.69434   1.70730   1.72564   1.74489
 Alpha virt. eigenvalues --    1.75072   1.77086   1.81109   1.82048   1.83282
 Alpha virt. eigenvalues --    1.83851   1.87296   1.89043   1.92627   1.93078
 Alpha virt. eigenvalues --    1.93917   1.96252   1.97692   1.99472   2.00342
 Alpha virt. eigenvalues --    2.01543   2.02987   2.04306   2.05672   2.06245
 Alpha virt. eigenvalues --    2.06940   2.09493   2.12198   2.12636   2.13677
 Alpha virt. eigenvalues --    2.15947   2.16723   2.18618   2.21001   2.22521
 Alpha virt. eigenvalues --    2.25304   2.26271   2.27851   2.30204   2.31954
 Alpha virt. eigenvalues --    2.32407   2.35827   2.40273   2.41955   2.48083
 Alpha virt. eigenvalues --    2.49106   2.50034   2.50827   2.51879   2.54634
 Alpha virt. eigenvalues --    2.55449   2.56340   2.59651   2.60463   2.62793
 Alpha virt. eigenvalues --    2.64499   2.65524   2.67196   2.68972   2.69861
 Alpha virt. eigenvalues --    2.72578   2.75201   2.75714   2.76646   2.76960
 Alpha virt. eigenvalues --    2.79465   2.81831   2.84083   2.85371   2.86994
 Alpha virt. eigenvalues --    2.88474   2.95804   2.96589   3.02253   3.03499
 Alpha virt. eigenvalues --    3.05464   3.06449   3.08092   3.08820   3.11762
 Alpha virt. eigenvalues --    3.13519   3.15213   3.15779   3.20720   3.22625
 Alpha virt. eigenvalues --    3.23587   3.23903   3.27307   3.28272   3.30323
 Alpha virt. eigenvalues --    3.34358   3.34916   3.37503   3.38319   3.38664
 Alpha virt. eigenvalues --    3.42277   3.43508   3.46404   3.47522   3.50056
 Alpha virt. eigenvalues --    3.51922   3.54131   3.54654   3.57477   3.60259
 Alpha virt. eigenvalues --    3.63368   3.66223   3.68487   3.69908   3.74138
 Alpha virt. eigenvalues --    3.77218   3.79672   3.84703   3.88967   3.99420
 Alpha virt. eigenvalues --    4.01879   4.04081   4.07250   4.08789   4.10634
 Alpha virt. eigenvalues --    4.15480   4.18019   4.19153   4.22267   4.23551
 Alpha virt. eigenvalues --    4.24182   4.26840   4.28626   4.32226   4.33703
 Alpha virt. eigenvalues --    4.38135   4.39756   4.42791   4.44285   4.45610
 Alpha virt. eigenvalues --    4.51823   4.59917   4.64275   4.66446   4.69804
 Alpha virt. eigenvalues --    4.72141   4.72920   4.76116   4.77673   4.85314
 Alpha virt. eigenvalues --    4.91679   4.93344   5.02194   5.05983   5.09765
 Alpha virt. eigenvalues --    5.14168   5.17191   5.19731   5.21301   5.23441
 Alpha virt. eigenvalues --    5.55118   5.58805   8.91681   9.38961   9.46041
 Alpha virt. eigenvalues --    9.48942   9.53805   9.63699  20.26788  21.65906
 Alpha virt. eigenvalues --   21.99836  22.31328  22.49895  22.68957  22.86528
 Alpha virt. eigenvalues --   31.87569  31.88266
          Condensed to atoms (all electrons):
               1          2          3          4          5          6
     1  N    6.918828   0.519498  -0.121656   0.019413  -0.001271   0.000643
     2  S    0.519498  14.084180   0.259836  -0.012299   0.009117   0.000060
     3  C   -0.121656   0.259836   5.259732   0.415045  -0.053348  -0.102473
     4  C    0.019413  -0.012299   0.415045   5.095832   0.415328  -0.017756
     5  C   -0.001271   0.009117  -0.053348   0.415328   4.879645   0.583996
     6  C    0.000643   0.000060  -0.102473  -0.017756   0.583996   4.917678
     7  S    0.004303  -0.033341   0.455780  -0.127714  -0.025769   0.403760
     8  C   -0.052100   0.287228  -0.080616   0.014575  -0.001574  -0.000382
     9  N   -0.076760   0.538959  -0.071843   0.012127  -0.000482   0.000821
    10  H    0.311567  -0.019818   0.017533  -0.002940   0.000081   0.000004
    11  H    0.015101  -0.001853  -0.033726   0.411537  -0.044394   0.005412
    12  H   -0.000080  -0.000152   0.010430  -0.046025   0.416104  -0.046632
    13  H    0.000009  -0.000112   0.002743   0.008448  -0.028996   0.402646
    14  H    0.000772  -0.014590   0.007732  -0.000729   0.000043  -0.000025
    15  H    0.004914  -0.011494   0.003134   0.000434   0.000162   0.000094
    16  H    0.003536  -0.021426   0.006866  -0.004408   0.000078   0.000183
    17  H   -0.002409  -0.025555  -0.003549   0.002210  -0.000056  -0.000179
               7          8          9         10         11         12
     1  N    0.004303  -0.052100  -0.076760   0.311567   0.015101  -0.000080
     2  S   -0.033341   0.287228   0.538959  -0.019818  -0.001853  -0.000152
     3  C    0.455780  -0.080616  -0.071843   0.017533  -0.033726   0.010430
     4  C   -0.127714   0.014575   0.012127  -0.002940   0.411537  -0.046025
     5  C   -0.025769  -0.001574  -0.000482   0.000081  -0.044394   0.416104
     6  C    0.403760  -0.000382   0.000821   0.000004   0.005412  -0.046632
     7  S   15.248492   0.000070   0.006898  -0.000376   0.007457   0.008733
     8  C    0.000070   5.142388  -0.084852  -0.008974   0.001033   0.000007
     9  N    0.006898  -0.084852   6.897378  -0.001666   0.000432   0.000012
    10  H   -0.000376  -0.008974  -0.001666   0.487351  -0.000749  -0.000001
    11  H    0.007457   0.001033   0.000432  -0.000749   0.479443  -0.002390
    12  H    0.008733   0.000007   0.000012  -0.000001  -0.002390   0.529146
    13  H   -0.037800   0.000018   0.000006  -0.000000  -0.000094  -0.004692
    14  H    0.000105   0.372824   0.004576   0.001863  -0.000046  -0.000001
    15  H    0.000499   0.361206   0.002551   0.000206  -0.000129   0.000002
    16  H   -0.000305   0.377433   0.005748  -0.000054   0.000194  -0.000010
    17  H   -0.000872   0.013314   0.312354  -0.000309   0.000013  -0.000000
              13         14         15         16         17
     1  N    0.000009   0.000772   0.004914   0.003536  -0.002409
     2  S   -0.000112  -0.014590  -0.011494  -0.021426  -0.025555
     3  C    0.002743   0.007732   0.003134   0.006866  -0.003549
     4  C    0.008448  -0.000729   0.000434  -0.004408   0.002210
     5  C   -0.028996   0.000043   0.000162   0.000078  -0.000056
     6  C    0.402646  -0.000025   0.000094   0.000183  -0.000179
     7  S   -0.037800   0.000105   0.000499  -0.000305  -0.000872
     8  C    0.000018   0.372824   0.361206   0.377433   0.013314
     9  N    0.000006   0.004576   0.002551   0.005748   0.312354
    10  H   -0.000000   0.001863   0.000206  -0.000054  -0.000309
    11  H   -0.000094  -0.000046  -0.000129   0.000194   0.000013
    12  H   -0.004692  -0.000001   0.000002  -0.000010  -0.000000
    13  H    0.500137  -0.000000  -0.000003   0.000001   0.000000
    14  H   -0.000000   0.503423  -0.011059  -0.014851  -0.000645
    15  H   -0.000003  -0.011059   0.510906  -0.016718  -0.000873
    16  H    0.000001  -0.014851  -0.016718   0.509912  -0.000573
    17  H    0.000000  -0.000645  -0.000873  -0.000573   0.489055
 Mulliken charges:
               1
     1  N   -0.544308
     2  S    0.441763
     3  C    0.028380
     4  C   -0.183077
     5  C   -0.148662
     6  C   -0.147848
     7  S    0.090082
     8  C   -0.341598
     9  N   -0.546258
    10  H    0.216284
    11  H    0.162758
    12  H    0.135550
    13  H    0.157690
    14  H    0.150608
    15  H    0.156167
    16  H    0.154394
    17  H    0.218074
 Sum of Mulliken charges =  -0.00000
 Mulliken charges with hydrogens summed into heavy atoms:
               1
     1  N   -0.328024
     2  S    0.441763
     3  C    0.028380
     4  C   -0.020320
     5  C   -0.013112
     6  C    0.009842
     7  S    0.090082
     8  C    0.119571
     9  N   -0.328184
 Electronic spatial extent (au):  <R**2>=           1528.9436
 Charge=             -0.0000 electrons
 Dipole moment (field-independent basis, Debye):
    X=             -1.6720    Y=              0.2647    Z=              1.6864  Tot=              2.3895
 Quadrupole moment (field-independent basis, Debye-Ang):
   XX=            -59.3216   YY=            -72.1010   ZZ=            -66.5196
   XY=              1.6804   XZ=              2.8071   YZ=              0.2482
 Traceless Quadrupole moment (field-independent basis, Debye-Ang):
   XX=              6.6591   YY=             -6.1202   ZZ=             -0.5389
   XY=              1.6804   XZ=              2.8071   YZ=              0.2482
 Octapole moment (field-independent basis, Debye-Ang**2):
  XXX=             -9.4317  YYY=              2.6066  ZZZ=             -3.8422  XYY=            -16.2476
  XXY=              9.2436  XXZ=              5.6987  XZZ=             14.9864  YZZ=             -6.4122
  YYZ=              5.0309  XYZ=             -2.8220
 Hexadecapole moment (field-independent basis, Debye-Ang**3):
 XXXX=          -1184.1787 YYYY=           -495.1623 ZZZZ=           -235.4529 XXXY=             54.0465
 XXXZ=              6.6827 YYYX=             -1.0250 YYYZ=             -0.2839 ZZZX=             -5.4947
 ZZZY=             11.2894 XXYY=           -298.0942 XXZZ=           -271.4100 YYZZ=           -125.5936
 XXYZ=             -9.4146 YYXZ=              3.9389 ZZXY=             -2.4718
 N-N= 6.423941140601D+02 E-N=-3.885367177677D+03  KE= 1.097710351552D+03
 Breneman (CHELPG) radii used.
 Read replacement radii for each type of atom:
 Atom Element Radius
    1     7    1.70
    2    16    2.00
    3     6    1.50
    4     6    1.50
    5     6    1.50
    6     6    1.50
    7    16    2.00
    8     6    1.50
    9     7    1.70
   10     1    1.45
   11     1    1.45
   12     1    1.45
   13     1    1.45
   14     1    1.45
   15     1    1.45
   16     1    1.45
   17     1    1.45
 Generate Potential Derived Charges using the Breneman model, NDens= 1.
 Grid spacing= 0.300 Box extension= 2.800
 NStep X,Y,Z=   42     31     34   Total possible points=       44268
 Number of Points to Fit=   12508

 **********************************************************************

            Electrostatic Properties Using The SCF Density.

 **********************************************************************

       Atomic Center    1 is at   1.794864  1.535324 -0.509926
       Atomic Center    2 is at   1.407956  0.083540 -0.143023
       Atomic Center    3 is at  -0.358685  0.245172 -0.044154
       Atomic Center    4 is at  -1.112578  1.386748  0.041887
       Atomic Center    5 is at  -2.501799  1.094171  0.089854
       Atomic Center    6 is at  -2.755020 -0.254247  0.038265
       Atomic Center    7 is at  -1.319583 -1.184779 -0.082453
       Atomic Center    8 is at   1.818486 -0.364638  1.548441
       Atomic Center    9 is at   1.843937 -1.203373 -0.883406
       Atomic Center   10 is at   2.810681  1.566410 -0.629607
       Atomic Center   11 is at  -0.655328  2.376035  0.052893
       Atomic Center   12 is at  -3.286224  1.849683  0.153496
       Atomic Center   13 is at  -3.723447 -0.753898  0.050029
       Atomic Center   14 is at   2.910493 -0.480087  1.570537
       Atomic Center   15 is at   1.332274 -1.313070  1.806599
       Atomic Center   16 is at   1.489606  0.456696  2.196298
       Atomic Center   17 is at   1.693940 -1.048846 -1.885046
   12508 points will be used for fitting atomic charges
 Fitting point charges to electrostatic potential
 Charges from ESP fit, RMS=   0.00322 RRMS=   0.21558:
 ESP charges:
               1
     1  N   -0.783768
     2  S    0.714217
     3  C   -0.029493
     4  C   -0.043970
     5  C   -0.146348
     6  C   -0.179218
     7  S    0.043303
     8  C   -0.248516
     9  N   -0.744328
    10  H    0.341954
    11  H    0.131938
    12  H    0.123969
    13  H    0.177233
    14  H    0.132778
    15  H    0.109141
    16  H    0.081889
    17  H    0.319218
 Sum of ESP charges =   0.00000
 ESP charges with hydrogens summed into heavy atoms:
               1
     1  N   -0.441813
     2  S    0.714217
     3  C   -0.029493
     4  C    0.087968
     5  C   -0.022379
     6  C   -0.001985
     7  S    0.043303
     8  C    0.075293
     9  N   -0.425110
 Charge=   0.00000 Dipole=    -1.7360     0.2350     1.6788 Tot=     2.4264
 -----------------------------------------------------------------

              Electrostatic Properties (Atomic Units)

 -----------------------------------------------------------------
    Center     Electric         -------- Electric Field --------
               Potential          X             Y             Z
 -----------------------------------------------------------------
    1 Atom    -18.424471
    2 Atom    -59.068024
    3 Atom    -14.714274
    4 Atom    -14.744284
    5 Atom    -14.745828
    6 Atom    -14.721874
    7 Atom    -59.186427
    8 Atom    -14.735442
    9 Atom    -18.425053
   10 Atom     -1.046553
   11 Atom     -1.082293
   12 Atom     -1.080142
   13 Atom     -1.062021
   14 Atom     -1.074587
   15 Atom     -1.076949
   16 Atom     -1.078015
   17 Atom     -1.050700
 -----------------------------------------------------------------
 Unable to Open any file for archive entry.
 1\1\GINC-NOTCH321\SP\RPBE1PBE\def2TZVP\C5H8N2S2\U1414944\10-Feb-2025\0
 \\#N Guess=Read Geom=Check Integral(Ultrafine) Density Pop=(ChelpG,Rea
 dRadii) NMR pbe1pbe EmpiricalDispersion=GD3BJ def2TZVP\\SDI2635_1\\0,1
 \N,0,-1.863892846,1.5731136942,0.1239985216\S,0,-1.4373194734,0.086498
 6695,0.1223720688\C,0,0.3295247226,0.2671920353,0.0720467962\C,0,1.070
 1253406,1.3774289183,-0.2407445756\C,0,2.4640856338,1.1182008691,-0.15
 40710442\C,0,2.7339412076,-0.1747718459,0.2206459318\S,0,1.3079079688,
 -1.0895992968,0.4860908869\C,0,-1.7529375369,-0.7506538267,-1.43647656
 06\N,0,-1.8923046721,-1.0057087506,1.1195997946\H,0,-2.8848964209,1.60
 43502967,0.1852244522\H,0,0.5996724501,2.3251185878,-0.5023683145\H,0,
 3.2396458115,1.858909034,-0.3541426431\H,0,3.708863388,-0.6380808185,0
 .3706887069\H,0,-2.8405248649,-0.8966689964,-1.4826128333\H,0,-1.24019
 36748,-1.7199839407,-1.4444829838\H,0,-1.4029038002,-0.092732483,-2.24
 08944598\H,0,-1.7967580092,-0.6202485435,2.0640313409\\Version=ES64L-G
 16RevC.01\State=1-A\HF=-1100.6501676\RMSD=3.951e-09\Dipole=0.6897624,-
 0.0346276,-0.637817\Quadrupole=4.7543141,-4.4438905,-0.3104236,-0.5257
 343,2.5478834,0.804179\PG=C01 [X(C5H8N2S2)]\\@
 The archive entry for this job was punched.


 Where a calculator on the ENIAC is equipped with 18,000
 vacuum tubes and weighs 30 tons, computers inthe future
 may  have only 1,000 vacuum tubes and weigh only 1 1/2 tons.
              ---Popular Mechanics, March 1949
 Job cpu time:       0 days  0 hours  8 minutes 58.3 seconds.
 Elapsed time:       0 days  0 hours  0 minutes 36.7 seconds.
 File lengths (MBytes):  RWF=     83 Int=      0 D2E=      0 Chk=     12 Scr=      2
 Normal termination of Gaussian 16 at Mon Feb 10 19:44:14 2025.
