 Entering Gaussian System, Link 0=g16
 Input=SDI0028_2.com
 Output=SDI0028_2.log
 Initial command:
 /uufs/chpc.utah.edu/sys/installdir/gaussian16/C01/AVX/g16/l1.exe "/scratch/general/vast/u1414944/4692923-notchpeak.peaks/Gau-4186066.inp" -scrdir="/scratch/general/vast/u1414944/4692923-notchpeak.peaks/"
 Entering Link 1 = /uufs/chpc.utah.edu/sys/installdir/gaussian16/C01/AVX/g16/l1.exe PID=   4186067.
  
 Copyright (c) 1988-2019, Gaussian, Inc.  All Rights Reserved.
  
 This is part of the Gaussian(R) 16 program.  It is based on
 the Gaussian(R) 09 system (copyright 2009, Gaussian, Inc.),
 the Gaussian(R) 03 system (copyright 2003, Gaussian, Inc.),
 the Gaussian(R) 98 system (copyright 1998, Gaussian, Inc.),
 the Gaussian(R) 94 system (copyright 1995, Gaussian, Inc.),
 the Gaussian 92(TM) system (copyright 1992, Gaussian, Inc.),
 the Gaussian 90(TM) system (copyright 1990, Gaussian, Inc.),
 the Gaussian 88(TM) system (copyright 1988, Gaussian, Inc.),
 the Gaussian 86(TM) system (copyright 1986, Carnegie Mellon
 University), and the Gaussian 82(TM) system (copyright 1983,
 Carnegie Mellon University). Gaussian is a federally registered
 trademark of Gaussian, Inc.
  
 This software contains proprietary and confidential information,
 including trade secrets, belonging to Gaussian, Inc.
  
 This software is provided under written license and may be
 used, copied, transmitted, or stored only in accord with that
 written license.
  
 The following legend is applicable only to US Government
 contracts under FAR:
  
                    RESTRICTED RIGHTS LEGEND
  
 Use, reproduction and disclosure by the US Government is
 subject to restrictions as set forth in subparagraphs (a)
 and (c) of the Commercial Computer Software - Restricted
 Rights clause in FAR 52.227-19.
  
 Gaussian, Inc.
 340 Quinnipiac St., Bldg. 40, Wallingford CT 06492
  
  
 ---------------------------------------------------------------
 Warning -- This program may not be used in any manner that
 competes with the business of Gaussian, Inc. or will provide
 assistance to any competitor of Gaussian, Inc.  The licensee
 of this program is prohibited from giving any competitor of
 Gaussian, Inc. access to this program.  By using this program,
 the user acknowledges that Gaussian, Inc. is engaged in the
 business of creating and licensing software in the field of
 computational chemistry and represents and warrants to the
 licensee that it is not a competitor of Gaussian, Inc. and that
 it will not use this program in any manner prohibited above.
 ---------------------------------------------------------------
  

 Cite this work as:
 Gaussian 16, Revision C.01,
 M. J. Frisch, G. W. Trucks, H. B. Schlegel, G. E. Scuseria, 
 M. A. Robb, J. R. Cheeseman, G. Scalmani, V. Barone, 
 G. A. Petersson, H. Nakatsuji, X. Li, M. Caricato, A. V. Marenich, 
 J. Bloino, B. G. Janesko, R. Gomperts, B. Mennucci, H. P. Hratchian, 
 J. V. Ortiz, A. F. Izmaylov, J. L. Sonnenberg, D. Williams-Young, 
 F. Ding, F. Lipparini, F. Egidi, J. Goings, B. Peng, A. Petrone, 
 T. Henderson, D. Ranasinghe, V. G. Zakrzewski, J. Gao, N. Rega, 
 G. Zheng, W. Liang, M. Hada, M. Ehara, K. Toyota, R. Fukuda, 
 J. Hasegawa, M. Ishida, T. Nakajima, Y. Honda, O. Kitao, H. Nakai, 
 T. Vreven, K. Throssell, J. A. Montgomery, Jr., J. E. Peralta, 
 F. Ogliaro, M. J. Bearpark, J. J. Heyd, E. N. Brothers, K. N. Kudin, 
 V. N. Staroverov, T. A. Keith, R. Kobayashi, J. Normand, 
 K. Raghavachari, A. P. Rendell, J. C. Burant, S. S. Iyengar, 
 J. Tomasi, M. Cossi, J. M. Millam, M. Klene, C. Adamo, R. Cammi, 
 J. W. Ochterski, R. L. Martin, K. Morokuma, O. Farkas, 
 J. B. Foresman, and D. J. Fox, Gaussian, Inc., Wallingford CT, 2019.
 
 ******************************************
 Gaussian 16:  ES64L-G16RevC.01  3-Jul-2019
                 7-Jun-2025 
 ******************************************
 %NProcShared=16
 Will use up to   16 processors via shared memory.
 %Mem=40GB
 %chk=SDI0028_2.chk
 ----------------------------------------------------------------------
 #N OPT=(CalcAll,Tight) FREQ=NORAMAN Integral(Ultrafine) pbe1pbe Empiri
 calDispersion=GD3BJ def2SVP
 ----------------------------------------------------------------------
 1/7=10,10=4,18=20,19=15,26=4,38=1/1,3;
 2/9=110,12=2,17=6,18=5,40=1/2;
 3/5=43,7=101,11=2,25=1,30=1,71=2,74=-13,75=-5,124=41,140=1/1,2,3;
 4//1;
 5/5=2,38=5/2;
 8/6=4,10=90,11=11/1;
 11/6=1,8=1,9=11,15=111,16=1/1,2,10;
 10/6=1/2;
 6/7=2,8=2,9=2,10=2,18=1,28=1/1;
 7/10=1,25=1/1,2,3,16;
 1/7=10,10=4,18=20,19=15,26=4/3(3);
 2/9=110/2;
 7/8=1,9=1,25=1,44=-1/16;
 99//99;
 2/9=110/2;
 3/5=43,7=101,11=2,25=1,30=1,71=2,74=-13,75=-5,124=41,140=1/1,2,3;
 4/5=5,16=3,69=1/1;
 5/5=2,38=5/2;
 8/6=4,10=90,11=11/1;
 11/6=1,8=1,9=11,15=111,16=1/1,2,10;
 10/6=1/2;
 7/10=1,25=1/1,2,3,16;
 1/7=10,10=4,18=20,19=15,26=4/3(-8);
 2/9=110/2;
 6/7=2,8=2,9=2,10=2,18=1,19=2,28=1/1;
 7/8=1,9=1,25=1,44=-1/16;
 99//99;
 ---------
 SDI0028_2
 ---------
 Symbolic Z-matrix:
 Charge =  0 Multiplicity = 1
 N                    -2.91851   0.73862   1.33512 
 S                    -2.59314  -0.07683   0.07592 
 C                    -0.77743  -0.02064   0.0607 
 C                    -0.10716   0.89284   0.85379 
 C                     1.27516   0.91494   0.83861 
 C                     1.95535   0.01341   0.02698 
 N                     3.40083   0.03677   0.00318 
 O                     3.96271  -0.76638  -0.70871 
 O                     3.95986   0.85914   0.69469 
 C                     1.28057  -0.91459  -0.75944 
 C                    -0.10102  -0.92888  -0.73596 
 C                    -2.89882   0.81536  -1.48973 
 N                    -3.14821  -1.46833  -0.25563 
 H                    -3.85343   0.61342   1.68452 
 H                    -0.68721   1.55709   1.47344 
 H                     1.83763   1.61274   1.44011 
 H                     1.84623  -1.60333  -1.36827 
 H                    -0.66902  -1.64099  -1.31517 
 H                    -2.48845   0.21716  -2.29231 
 H                    -3.97047   0.91723  -1.6129 
 H                    -2.42337   1.78706  -1.43049 
 H                    -3.29057  -2.06417   0.54302 
 

 GradGradGradGradGradGradGradGradGradGradGradGradGradGradGradGradGradGrad
 Berny optimization.
 Initialization pass.
                           ----------------------------
                           !    Initial Parameters    !
                           ! (Angstroms and Degrees)  !
 --------------------------                            --------------------------
 ! Name  Definition              Value          Derivative Info.                !
 --------------------------------------------------------------------------------
 ! R1    R(1,2)                  1.5351         calculate D2E/DX2 analytically  !
 ! R2    R(1,14)                 1.0059         calculate D2E/DX2 analytically  !
 ! R3    R(2,3)                  1.8166         calculate D2E/DX2 analytically  !
 ! R4    R(2,12)                 1.8278         calculate D2E/DX2 analytically  !
 ! R5    R(2,13)                 1.5344         calculate D2E/DX2 analytically  !
 ! R6    R(3,4)                  1.383          calculate D2E/DX2 analytically  !
 ! R7    R(3,11)                 1.3846         calculate D2E/DX2 analytically  !
 ! R8    R(4,5)                  1.3826         calculate D2E/DX2 analytically  !
 ! R9    R(4,15)                 1.0778         calculate D2E/DX2 analytically  !
 ! R10   R(5,6)                  1.3907         calculate D2E/DX2 analytically  !
 ! R11   R(5,16)                 1.0794         calculate D2E/DX2 analytically  !
 ! R12   R(6,7)                  1.4459         calculate D2E/DX2 analytically  !
 ! R13   R(6,10)                 1.391          calculate D2E/DX2 analytically  !
 ! R14   R(7,8)                  1.2114         calculate D2E/DX2 analytically  !
 ! R15   R(7,9)                  1.2112         calculate D2E/DX2 analytically  !
 ! R16   R(10,11)                1.3819         calculate D2E/DX2 analytically  !
 ! R17   R(10,17)                1.0794         calculate D2E/DX2 analytically  !
 ! R18   R(11,18)                1.0794         calculate D2E/DX2 analytically  !
 ! R19   R(12,19)                1.0818         calculate D2E/DX2 analytically  !
 ! R20   R(12,20)                1.0835         calculate D2E/DX2 analytically  !
 ! R21   R(12,21)                1.0834         calculate D2E/DX2 analytically  !
 ! R22   R(13,22)                1.0065         calculate D2E/DX2 analytically  !
 ! A1    A(2,1,14)             114.5709         calculate D2E/DX2 analytically  !
 ! A2    A(1,2,3)              101.6711         calculate D2E/DX2 analytically  !
 ! A3    A(1,2,12)             114.0733         calculate D2E/DX2 analytically  !
 ! A4    A(1,2,13)             125.6144         calculate D2E/DX2 analytically  !
 ! A5    A(3,2,12)              98.3304         calculate D2E/DX2 analytically  !
 ! A6    A(3,2,13)             112.8185         calculate D2E/DX2 analytically  !
 ! A7    A(12,2,13)            101.3664         calculate D2E/DX2 analytically  !
 ! A8    A(2,3,4)              120.0017         calculate D2E/DX2 analytically  !
 ! A9    A(2,3,11)             118.2166         calculate D2E/DX2 analytically  !
 ! A10   A(4,3,11)             121.7661         calculate D2E/DX2 analytically  !
 ! A11   A(3,4,5)              119.2631         calculate D2E/DX2 analytically  !
 ! A12   A(3,4,15)             118.4203         calculate D2E/DX2 analytically  !
 ! A13   A(5,4,15)             122.3124         calculate D2E/DX2 analytically  !
 ! A14   A(4,5,6)              119.0149         calculate D2E/DX2 analytically  !
 ! A15   A(4,5,16)             121.6828         calculate D2E/DX2 analytically  !
 ! A16   A(6,5,16)             119.3022         calculate D2E/DX2 analytically  !
 ! A17   A(5,6,7)              119.2148         calculate D2E/DX2 analytically  !
 ! A18   A(5,6,10)             121.6777         calculate D2E/DX2 analytically  !
 ! A19   A(7,6,10)             119.107          calculate D2E/DX2 analytically  !
 ! A20   A(6,7,8)              117.5583         calculate D2E/DX2 analytically  !
 ! A21   A(6,7,9)              117.5813         calculate D2E/DX2 analytically  !
 ! A22   A(8,7,9)              124.8603         calculate D2E/DX2 analytically  !
 ! A23   A(6,10,11)            118.8356         calculate D2E/DX2 analytically  !
 ! A24   A(6,10,17)            119.3645         calculate D2E/DX2 analytically  !
 ! A25   A(11,10,17)           121.7998         calculate D2E/DX2 analytically  !
 ! A26   A(3,11,10)            119.4339         calculate D2E/DX2 analytically  !
 ! A27   A(3,11,18)            118.9737         calculate D2E/DX2 analytically  !
 ! A28   A(10,11,18)           121.5876         calculate D2E/DX2 analytically  !
 ! A29   A(2,12,19)            107.5853         calculate D2E/DX2 analytically  !
 ! A30   A(2,12,20)            107.98           calculate D2E/DX2 analytically  !
 ! A31   A(2,12,21)            108.5162         calculate D2E/DX2 analytically  !
 ! A32   A(19,12,20)           110.0495         calculate D2E/DX2 analytically  !
 ! A33   A(19,12,21)           111.7176         calculate D2E/DX2 analytically  !
 ! A34   A(20,12,21)           110.8507         calculate D2E/DX2 analytically  !
 ! A35   A(2,13,22)            114.6176         calculate D2E/DX2 analytically  !
 ! D1    D(14,1,2,3)          -162.9728         calculate D2E/DX2 analytically  !
 ! D2    D(14,1,2,12)           92.294          calculate D2E/DX2 analytically  !
 ! D3    D(14,1,2,13)          -33.5473         calculate D2E/DX2 analytically  !
 ! D4    D(1,2,3,4)            -14.8717         calculate D2E/DX2 analytically  !
 ! D5    D(1,2,3,11)           163.7179         calculate D2E/DX2 analytically  !
 ! D6    D(12,2,3,4)           101.9493         calculate D2E/DX2 analytically  !
 ! D7    D(12,2,3,11)          -79.4611         calculate D2E/DX2 analytically  !
 ! D8    D(13,2,3,4)          -151.9275         calculate D2E/DX2 analytically  !
 ! D9    D(13,2,3,11)           26.6621         calculate D2E/DX2 analytically  !
 ! D10   D(1,2,12,19)          170.9172         calculate D2E/DX2 analytically  !
 ! D11   D(1,2,12,20)          -70.3346         calculate D2E/DX2 analytically  !
 ! D12   D(1,2,12,21)           49.8858         calculate D2E/DX2 analytically  !
 ! D13   D(3,2,12,19)           64.0986         calculate D2E/DX2 analytically  !
 ! D14   D(3,2,12,20)         -177.1533         calculate D2E/DX2 analytically  !
 ! D15   D(3,2,12,21)          -56.9329         calculate D2E/DX2 analytically  !
 ! D16   D(13,2,12,19)         -51.3198         calculate D2E/DX2 analytically  !
 ! D17   D(13,2,12,20)          67.4283         calculate D2E/DX2 analytically  !
 ! D18   D(13,2,12,21)        -172.3512         calculate D2E/DX2 analytically  !
 ! D19   D(1,2,13,22)          -34.5174         calculate D2E/DX2 analytically  !
 ! D20   D(3,2,13,22)           90.3267         calculate D2E/DX2 analytically  !
 ! D21   D(12,2,13,22)        -165.497          calculate D2E/DX2 analytically  !
 ! D22   D(2,3,4,5)            179.4723         calculate D2E/DX2 analytically  !
 ! D23   D(2,3,4,15)             0.2            calculate D2E/DX2 analytically  !
 ! D24   D(11,3,4,5)             0.9341         calculate D2E/DX2 analytically  !
 ! D25   D(11,3,4,15)         -178.3382         calculate D2E/DX2 analytically  !
 ! D26   D(2,3,11,10)         -179.5531         calculate D2E/DX2 analytically  !
 ! D27   D(2,3,11,18)           -0.336          calculate D2E/DX2 analytically  !
 ! D28   D(4,3,11,10)           -0.9897         calculate D2E/DX2 analytically  !
 ! D29   D(4,3,11,18)          178.2274         calculate D2E/DX2 analytically  !
 ! D30   D(3,4,5,6)             -0.1703         calculate D2E/DX2 analytically  !
 ! D31   D(3,4,5,16)           179.8569         calculate D2E/DX2 analytically  !
 ! D32   D(15,4,5,6)           179.0724         calculate D2E/DX2 analytically  !
 ! D33   D(15,4,5,16)           -0.9003         calculate D2E/DX2 analytically  !
 ! D34   D(4,5,6,7)            179.7226         calculate D2E/DX2 analytically  !
 ! D35   D(4,5,6,10)            -0.5287         calculate D2E/DX2 analytically  !
 ! D36   D(16,5,6,7)            -0.304          calculate D2E/DX2 analytically  !
 ! D37   D(16,5,6,10)          179.4447         calculate D2E/DX2 analytically  !
 ! D38   D(5,6,7,8)            179.6062         calculate D2E/DX2 analytically  !
 ! D39   D(5,6,7,9)             -0.51           calculate D2E/DX2 analytically  !
 ! D40   D(10,6,7,8)            -0.149          calculate D2E/DX2 analytically  !
 ! D41   D(10,6,7,9)           179.7348         calculate D2E/DX2 analytically  !
 ! D42   D(5,6,10,11)            0.4743         calculate D2E/DX2 analytically  !
 ! D43   D(5,6,10,17)         -179.4096         calculate D2E/DX2 analytically  !
 ! D44   D(7,6,10,11)         -179.7768         calculate D2E/DX2 analytically  !
 ! D45   D(7,6,10,17)            0.3393         calculate D2E/DX2 analytically  !
 ! D46   D(6,10,11,3)            0.2771         calculate D2E/DX2 analytically  !
 ! D47   D(6,10,11,18)        -178.9189         calculate D2E/DX2 analytically  !
 ! D48   D(17,10,11,3)        -179.842          calculate D2E/DX2 analytically  !
 ! D49   D(17,10,11,18)          0.962          calculate D2E/DX2 analytically  !
 --------------------------------------------------------------------------------
 Trust Radius=3.00D-01 FncErr=1.00D-07 GrdErr=1.00D-06 EigMax=2.50D+02 EigMin=1.00D-04
 Number of steps in this run=    116 maximum allowed number of steps=    132.
 GradGradGradGradGradGradGradGradGradGradGradGradGradGradGradGradGradGrad

                          Input orientation:                          
 ---------------------------------------------------------------------
 Center     Atomic      Atomic             Coordinates (Angstroms)
 Number     Number       Type             X           Y           Z
 ---------------------------------------------------------------------
      1          7           0       -2.918507    0.738617    1.335118
      2         16           0       -2.593136   -0.076833    0.075924
      3          6           0       -0.777432   -0.020641    0.060703
      4          6           0       -0.107160    0.892842    0.853790
      5          6           0        1.275163    0.914943    0.838612
      6          6           0        1.955354    0.013411    0.026981
      7          7           0        3.400828    0.036772    0.003185
      8          8           0        3.962705   -0.766381   -0.708705
      9          8           0        3.959860    0.859139    0.694693
     10          6           0        1.280566   -0.914588   -0.759443
     11          6           0       -0.101017   -0.928885   -0.735964
     12          6           0       -2.898818    0.815358   -1.489731
     13          7           0       -3.148206   -1.468331   -0.255627
     14          1           0       -3.853432    0.613422    1.684520
     15          1           0       -0.687206    1.557093    1.473439
     16          1           0        1.837633    1.612741    1.440107
     17          1           0        1.846228   -1.603328   -1.368269
     18          1           0       -0.669016   -1.640989   -1.315168
     19          1           0       -2.488448    0.217161   -2.292305
     20          1           0       -3.970472    0.917231   -1.612902
     21          1           0       -2.423368    1.787059   -1.430493
     22          1           0       -3.290571   -2.064174    0.543023
 ---------------------------------------------------------------------
                    Distance matrix (angstroms):
                    1          2          3          4          5
     1  N    0.000000
     2  S    1.535055   0.000000
     3  C    2.604766   1.816637   0.000000
     4  C    2.856419   2.779464   1.383004   0.000000
     5  C    4.226638   4.065593   2.386127   1.382583   0.000000
     6  C    5.098202   4.549648   2.733206   2.389765   1.390742
     7  N    6.496200   5.995482   4.179050   3.709766   2.446952
     8  O    7.334392   6.638537   4.859734   4.664570   3.527595
     9  O    6.909168   6.648359   4.859824   4.070270   2.689131
    10  C    4.975187   4.050338   2.388961   2.791972   2.429196
    11  C    3.874041   2.756050   1.384602   2.417859   2.787985
    12  C    2.825959   1.827764   2.757357   3.645743   4.780503
    13  N    2.730173   1.534371   2.795790   4.006732   5.142328
    14  H    1.005903   2.156937   3.535618   3.847433   5.206626
    15  H    2.380701   2.873209   2.119718   1.077798   2.160151
    16  H    4.836939   4.934305   3.377759   2.155050   1.079394
    17  H    5.957827   4.911602   3.380895   3.870934   3.396782
    18  H    4.212688   2.843230   2.128450   3.382359   3.866702
    19  H    3.689859   2.388703   2.919037   4.003122   4.945130
    20  H    3.135180   2.395277   3.725059   4.583704   5.790217
    21  H    2.998832   2.402542   2.863661   3.373780   4.425896
    22  H    2.936236   2.157341   3.274832   4.355986   5.459709
                    6          7          8          9         10
     6  C    0.000000
     7  N    1.445859   0.000000
     8  O    2.275691   1.211425   0.000000
     9  O    2.275772   1.211192   2.147522   0.000000
    10  C    1.391037   2.445853   2.686710   3.526930   0.000000
    11  C    2.387188   3.706987   4.067062   4.662031   1.381856
    12  C    5.148448   6.520777   7.084660   7.198270   4.581843
    13  N    5.321818   6.724742   7.159823   7.539551   4.491601
    14  H    6.070374   7.468848   8.289957   7.879573   5.887758
    15  H    3.385013   4.602721   5.637549   4.763277   3.868733
    16  H    2.137438   2.644239   3.846238   2.372216   3.396430
    17  H    2.138335   2.643406   2.369595   3.845386   1.079354
    18  H    3.380195   4.595277   4.752429   5.631756   2.153453
    19  H    5.016770   6.323400   6.715097   7.135473   4.223268
    20  H    6.214621   7.597566   8.160112   8.259451   5.626487
    21  H    4.944013   6.248215   6.915415   6.791396   4.633393
    22  H    5.665896   7.034217   7.474028   7.819048   4.890118
                   11         12         13         14         15
    11  C    0.000000
    12  C    3.382046   0.000000
    13  N    3.131627   2.607766   0.000000
    14  H    4.724200   3.320833   2.931758   0.000000
    15  H    3.377153   3.771176   4.266072   3.310597   0.000000
    16  H    3.866977   5.626165   6.101402   5.783303   2.525672
    17  H    2.155561   5.327312   5.118649   6.835175   4.947914
    18  H    1.079441   3.322067   2.701632   4.921483   4.243157
    19  H    3.071717   1.081836   2.724743   4.223191   4.384144
    20  H    4.376054   1.083509   2.865174   3.313455   4.551347
    21  H    3.640335   1.083403   3.535995   3.622956   3.391160
    22  H    3.619108   3.546444   1.006548   2.964683   4.555958
                   16         17         18         19         20
    16  H    0.000000
    17  H    4.269678   0.000000
    18  H    4.945865   2.516086   0.000000
    19  H    5.881625   4.791392   2.778102   0.000000
    20  H    6.598384   6.344057   4.187212   1.774283   0.000000
    21  H    5.140706   5.452343   3.852604   1.792075   1.784209
    22  H    6.373612   5.500192   3.241065   3.726524   3.741531
                   21         22
    21  H    0.000000
    22  H    4.413479   0.000000
 Stoichiometry    C7H9N3O2S
 Framework group  C1[X(C7H9N3O2S)]
 Deg. of freedom    60
 Full point group                 C1      NOp   1
 Largest Abelian subgroup         C1      NOp   1
 Largest concise Abelian subgroup C1      NOp   1
                         Standard orientation:                         
 ---------------------------------------------------------------------
 Center     Atomic      Atomic             Coordinates (Angstroms)
 Number     Number       Type             X           Y           Z
 ---------------------------------------------------------------------
      1          7           0        2.828011    1.511118   -0.468259
      2         16           0        2.527920    0.044465   -0.128750
      3          6           0        0.712100    0.043981   -0.074255
      4          6           0        0.021920    1.240629   -0.008019
      5          6           0       -1.360230    1.222899    0.021678
      6          6           0       -2.020195   -0.000584   -0.019572
      7          7           0       -3.465385   -0.024450    0.017354
      8          8           0       -4.009399   -1.105922   -0.027538
      9          8           0       -4.042046    1.037964    0.093032
     10          6           0       -1.325439   -1.202963   -0.100699
     11          6           0        0.055780   -1.173866   -0.130940
     12          6           0        2.845337   -0.396851    1.616303
     13          7           0        3.101653   -1.177091   -0.858767
     14          1           0        3.759414    1.679491   -0.808816
     15          1           0        0.586762    2.158445    0.006621
     16          1           0       -1.937843    2.133149    0.075517
     17          1           0       -1.875793   -2.130625   -0.140177
     18          1           0        0.638770   -2.078821   -0.210762
     19          1           0        2.451915   -1.391447    1.778678
     20          1           0        3.917439   -0.391303    1.773011
     21          1           0        2.359172    0.334999    2.250183
     22          1           0        3.239436   -1.048176   -1.847471
 ---------------------------------------------------------------------
 Rotational constants (GHZ):           2.0524702           0.3476327           0.3204162
 Standard basis: def2SVP (5D, 7F)
 There are   244 symmetry adapted cartesian basis functions of A   symmetry.
 There are   231 symmetry adapted basis functions of A   symmetry.
   231 basis functions,   400 primitive gaussians,   244 cartesian basis functions
    52 alpha electrons       52 beta electrons
       nuclear repulsion energy       901.7425438794 Hartrees.
 NAtoms=   22 NActive=   22 NUniq=   22 SFac= 1.00D+00 NAtFMM=   60 NAOKFM=F Big=F
 Integral buffers will be    131072 words long.
 Raffenetti 2 integral format.
 Two-electron integral symmetry is turned on.
 Nuclear repulsion after empirical dispersion term =      901.7176120941 Hartrees.
 One-electron integrals computed using PRISM.
   1 Symmetry operations used in ECPInt.
 ECPInt:  NShTT=    5778 NPrTT=   21734 LenC2=    5430 LenP2D=   15101.
 LDataN:  DoStor=T MaxTD1= 4 Len=   56
 NBasis=   231 RedAO= T EigKep=  2.48D-04  NBF=   231
 NBsUse=   231 1.00D-06 EigRej= -1.00D+00 NBFU=   231
 ExpMin= 1.22D-01 ExpMax= 9.18D+03 ExpMxC= 1.38D+03 IAcc=3 IRadAn=         5 AccDes= 0.00D+00
 Harris functional with IExCor= 1009 and IRadAn=       5 diagonalized for initial guess.
 HarFok:  IExCor= 1009 AccDes= 0.00D+00 IRadAn=         5 IDoV= 1 UseB2=F ITyADJ=14
 ICtDFT=  3500011 ScaDFX=  1.000000  1.000000  1.000000  1.000000
 FoFCou: FMM=F IPFlag=           0 FMFlag=      100000 FMFlg1=           0
         NFxFlg=           0 DoJE=T BraDBF=F KetDBF=T FulRan=T
         wScrn=  0.000000 ICntrl=       500 IOpCl=  0 I1Cent=   200000004 NGrid=           0
         NMat0=    1 NMatS0=      1 NMatT0=    0 NMatD0=    1 NMtDS0=    0 NMtDT0=    0
 Petite list used in FoFCou.
 Requested convergence on RMS density matrix=1.00D-08 within 128 cycles.
 Requested convergence on MAX density matrix=1.00D-06.
 Requested convergence on             energy=1.00D-06.
 No special actions if energy rises.
 Integral accuracy reduced to 1.0D-05 until final iterations.
 Initial convergence to 1.0D-05 achieved.  Increase integral accuracy.
 SCF Done:  E(RPBE1PBE) =  -983.496256763     A.U. after   15 cycles
            NFock= 15  Conv=0.68D-08     -V/T= 2.0057
 DoSCS=F DFT=T ScalE2(SS,OS)=  1.000000  1.000000
 Range of M.O.s used for correlation:     1   231
 NBasis=   231 NAE=    52 NBE=    52 NFC=     0 NFV=     0
 NROrb=    231 NOA=    52 NOB=    52 NVA=   179 NVB=   179

 **** Warning!!: The largest alpha MO coefficient is  0.14445180D+02

   1 Symmetry operations used in ECPInt.
 ECPInt:  NShTT=    5778 NPrTT=   21734 LenC2=    5430 LenP2D=   15101.
 LDataN:  DoStor=T MaxTD1= 5 Len=  102
 Symmetrizing basis deriv contribution to polar:
 IMax=3 JMax=2 DiffMx= 0.00D+00
 G2DrvN: will do    23 centers at a time, making    1 passes.
 Calling FoFCou, ICntrl=  3107 FMM=F I1Cent=   0 AccDes= 0.00D+00.
 End of G2Drv F.D. properties file   721 does not exist.
 End of G2Drv F.D. properties file   722 does not exist.
 End of G2Drv F.D. properties file   788 does not exist.
          IDoAtm=1111111111111111111111
          Differentiating once with respect to electric field.
                with respect to dipole field.
          Differentiating once with respect to nuclear coordinates.
 Keep R1 ints in memory in canonical form, NReq=376218271.
          There are    69 degrees of freedom in the 1st order CPHF.  IDoFFX=6 NUNeed=     3.
     66 vectors produced by pass  0 Test12= 1.35D-14 1.45D-09 XBig12= 1.63D+02 7.89D+00.
 AX will form    66 AO Fock derivatives at one time.
     66 vectors produced by pass  1 Test12= 1.35D-14 1.45D-09 XBig12= 7.03D+01 2.53D+00.
     66 vectors produced by pass  2 Test12= 1.35D-14 1.45D-09 XBig12= 6.63D-01 1.85D-01.
     66 vectors produced by pass  3 Test12= 1.35D-14 1.45D-09 XBig12= 4.35D-03 1.23D-02.
     66 vectors produced by pass  4 Test12= 1.35D-14 1.45D-09 XBig12= 1.47D-05 6.02D-04.
     63 vectors produced by pass  5 Test12= 1.35D-14 1.45D-09 XBig12= 2.03D-08 2.10D-05.
     25 vectors produced by pass  6 Test12= 1.35D-14 1.45D-09 XBig12= 2.22D-11 4.93D-07.
      3 vectors produced by pass  7 Test12= 1.35D-14 1.45D-09 XBig12= 2.08D-14 1.42D-08.
 InvSVY:  IOpt=1 It=  1 EMax= 5.33D-15
 Solved reduced A of dimension   421 with    69 vectors.
 Isotropic polarizability for W=    0.000000      119.03 Bohr**3.
 End of Minotr F.D. properties file   721 does not exist.
 End of Minotr F.D. properties file   722 does not exist.
 End of Minotr F.D. properties file   788 does not exist.

 **********************************************************************

            Population analysis using the SCF Density.

 **********************************************************************

 Orbital symmetries:
       Occupied  (A) (A) (A) (A) (A) (A) (A) (A) (A) (A) (A) (A)
                 (A) (A) (A) (A) (A) (A) (A) (A) (A) (A) (A) (A)
                 (A) (A) (A) (A) (A) (A) (A) (A) (A) (A) (A) (A)
                 (A) (A) (A) (A) (A) (A) (A) (A) (A) (A) (A) (A)
                 (A) (A) (A) (A)
       Virtual   (A) (A) (A) (A) (A) (A) (A) (A) (A) (A) (A) (A)
                 (A) (A) (A) (A) (A) (A) (A) (A) (A) (A) (A) (A)
                 (A) (A) (A) (A) (A) (A) (A) (A) (A) (A) (A) (A)
                 (A) (A) (A) (A) (A) (A) (A) (A) (A) (A) (A) (A)
                 (A) (A) (A) (A) (A) (A) (A) (A) (A) (A) (A) (A)
                 (A) (A) (A) (A) (A) (A) (A) (A) (A) (A) (A) (A)
                 (A) (A) (A) (A) (A) (A) (A) (A) (A) (A) (A) (A)
                 (A) (A) (A) (A) (A) (A) (A) (A) (A) (A) (A) (A)
                 (A) (A) (A) (A) (A) (A) (A) (A) (A) (A) (A) (A)
                 (A) (A) (A) (A) (A) (A) (A) (A) (A) (A) (A) (A)
                 (A) (A) (A) (A) (A) (A) (A) (A) (A) (A) (A) (A)
                 (A) (A) (A) (A) (A) (A) (A) (A) (A) (A) (A) (A)
                 (A) (A) (A) (A) (A) (A) (A) (A) (A) (A) (A) (A)
                 (A) (A) (A) (A) (A) (A) (A) (A) (A) (A) (A) (A)
                 (A) (A) (A) (A) (A) (A) (A) (A) (A) (A) (A)
 The electronic state is 1-A.
 Alpha  occ. eigenvalues --  -89.19812 -19.24557 -19.24551 -14.63487 -14.35951
 Alpha  occ. eigenvalues --  -14.35888 -10.31030 -10.28784 -10.27916 -10.27741
 Alpha  occ. eigenvalues --  -10.27716 -10.27206 -10.26999  -8.17220  -6.11355
 Alpha  occ. eigenvalues --   -6.11262  -6.11221  -1.27455  -1.09328  -1.02081
 Alpha  occ. eigenvalues --   -0.93115  -0.86854  -0.84954  -0.80697  -0.78109
 Alpha  occ. eigenvalues --   -0.74056  -0.66720  -0.65677  -0.61480  -0.58795
 Alpha  occ. eigenvalues --   -0.57468  -0.55909  -0.54336  -0.52949  -0.50281
 Alpha  occ. eigenvalues --   -0.49171  -0.48636  -0.47571  -0.46504  -0.45228
 Alpha  occ. eigenvalues --   -0.43011  -0.41963  -0.39590  -0.36246  -0.33503
 Alpha  occ. eigenvalues --   -0.33444  -0.31713  -0.31486  -0.30763  -0.28246
 Alpha  occ. eigenvalues --   -0.27167  -0.25766
 Alpha virt. eigenvalues --   -0.09902  -0.03963  -0.01539   0.05302   0.06565
 Alpha virt. eigenvalues --    0.07097   0.08262   0.09200   0.09975   0.10767
 Alpha virt. eigenvalues --    0.11443   0.12535   0.13822   0.14430   0.16910
 Alpha virt. eigenvalues --    0.17959   0.18381   0.19215   0.25323   0.26195
 Alpha virt. eigenvalues --    0.27003   0.29922   0.30852   0.31902   0.37095
 Alpha virt. eigenvalues --    0.38484   0.39025   0.40551   0.41460   0.42660
 Alpha virt. eigenvalues --    0.44338   0.46323   0.47409   0.47488   0.48426
 Alpha virt. eigenvalues --    0.51470   0.52555   0.53556   0.55750   0.57775
 Alpha virt. eigenvalues --    0.58956   0.59665   0.61298   0.63299   0.63725
 Alpha virt. eigenvalues --    0.64664   0.65434   0.66045   0.66576   0.67416
 Alpha virt. eigenvalues --    0.67867   0.68223   0.70615   0.71176   0.71889
 Alpha virt. eigenvalues --    0.73379   0.73897   0.75681   0.77230   0.78754
 Alpha virt. eigenvalues --    0.80128   0.81625   0.82251   0.83923   0.86127
 Alpha virt. eigenvalues --    0.87166   0.88930   0.91158   0.93036   0.93998
 Alpha virt. eigenvalues --    0.95026   0.96947   0.98824   0.99713   1.00848
 Alpha virt. eigenvalues --    1.03196   1.04002   1.06444   1.11042   1.12229
 Alpha virt. eigenvalues --    1.13266   1.15481   1.17855   1.19172   1.19534
 Alpha virt. eigenvalues --    1.21350   1.21777   1.22436   1.25313   1.27559
 Alpha virt. eigenvalues --    1.28558   1.30898   1.34280   1.37079   1.39271
 Alpha virt. eigenvalues --    1.41091   1.44209   1.46134   1.48911   1.49806
 Alpha virt. eigenvalues --    1.50072   1.51383   1.52823   1.64469   1.66729
 Alpha virt. eigenvalues --    1.69094   1.70553   1.72251   1.72480   1.73012
 Alpha virt. eigenvalues --    1.75291   1.76109   1.77050   1.77276   1.78196
 Alpha virt. eigenvalues --    1.81171   1.82576   1.88470   1.91688   1.92868
 Alpha virt. eigenvalues --    1.94043   1.96785   1.99889   2.00245   2.04547
 Alpha virt. eigenvalues --    2.05612   2.08489   2.11005   2.13007   2.15165
 Alpha virt. eigenvalues --    2.17881   2.20544   2.20943   2.26790   2.27372
 Alpha virt. eigenvalues --    2.29050   2.30748   2.32295   2.34762   2.36887
 Alpha virt. eigenvalues --    2.37691   2.38913   2.41477   2.42371   2.44905
 Alpha virt. eigenvalues --    2.51099   2.53584   2.56092   2.56639   2.58828
 Alpha virt. eigenvalues --    2.60055   2.60447   2.62599   2.63279   2.65538
 Alpha virt. eigenvalues --    2.67881   2.69556   2.72790   2.73156   2.76062
 Alpha virt. eigenvalues --    2.77835   2.83347   2.86733   2.88882   2.91371
 Alpha virt. eigenvalues --    2.93910   2.94179   2.96666   3.02741   3.06505
 Alpha virt. eigenvalues --    3.18882   3.26585   3.30798   3.30874   3.32899
 Alpha virt. eigenvalues --    3.40359   3.60208   3.79813   3.80977
          Condensed to atoms (all electrons):
               1          2          3          4          5          6
     1  N    6.856679   0.379855  -0.102160  -0.002741   0.001903  -0.000074
     2  S    0.379855  14.613716   0.114526  -0.029891   0.003056   0.000722
     3  C   -0.102160   0.114526   5.930999   0.236735   0.110179  -0.209922
     4  C   -0.002741  -0.029891   0.236735   5.138960   0.167195   0.130729
     5  C    0.001903   0.003056   0.110179   0.167195   5.240349   0.228320
     6  C   -0.000074   0.000722  -0.209922   0.130729   0.228320   5.404764
     7  N   -0.000000   0.000004  -0.000172   0.005849  -0.055742   0.272142
     8  O   -0.000000   0.000000  -0.000036  -0.000007   0.005540  -0.121651
     9  O    0.000000   0.000000  -0.000035   0.002252   0.017450  -0.121896
    10  C   -0.000034   0.000550   0.108496  -0.133832   0.033386   0.234546
    11  C    0.007139  -0.057081   0.182321   0.067541  -0.141834   0.129867
    12  C   -0.048049   0.285343  -0.121647  -0.005118  -0.000340  -0.000126
    13  N   -0.039185   0.355036  -0.067853   0.003312   0.000050  -0.000055
    14  H    0.338219  -0.019183   0.011325  -0.000262  -0.000058   0.000009
    15  H    0.032104  -0.012380  -0.059208   0.447640  -0.061156   0.012978
    16  H   -0.000020  -0.000084   0.015510  -0.064811   0.450717  -0.061761
    17  H    0.000001  -0.000102   0.015447  -0.002607   0.014575  -0.060183
    18  H    0.000685  -0.007453  -0.077751   0.011313  -0.001607   0.013631
    19  H    0.003351  -0.005451   0.000938   0.000241  -0.000006   0.000012
    20  H    0.000691  -0.007267   0.007407  -0.000011   0.000001   0.000003
    21  H    0.003658  -0.015362   0.006440   0.001974   0.000232  -0.000000
    22  H   -0.001356  -0.012723  -0.001746  -0.000003  -0.000033   0.000000
               7          8          9         10         11         12
     1  N   -0.000000  -0.000000   0.000000  -0.000034   0.007139  -0.048049
     2  S    0.000004   0.000000   0.000000   0.000550  -0.057081   0.285343
     3  C   -0.000172  -0.000036  -0.000035   0.108496   0.182321  -0.121647
     4  C    0.005849  -0.000007   0.002252  -0.133832   0.067541  -0.005118
     5  C   -0.055742   0.005540   0.017450   0.033386  -0.141834  -0.000340
     6  C    0.272142  -0.121651  -0.121896   0.234546   0.129867  -0.000126
     7  N    5.975571   0.324179   0.325227  -0.055052   0.006380  -0.000000
     8  O    0.324179   8.103133  -0.109460   0.017180   0.002171  -0.000000
     9  O    0.325227  -0.109460   8.100804   0.005543  -0.000019  -0.000000
    10  C   -0.055052   0.017180   0.005543   5.180734   0.206186  -0.000663
    11  C    0.006380   0.002171  -0.000019   0.206186   5.196492  -0.003314
    12  C   -0.000000  -0.000000  -0.000000  -0.000663  -0.003314   4.949514
    13  N   -0.000000   0.000000  -0.000000   0.001537   0.007739  -0.096603
    14  H    0.000000   0.000000   0.000000  -0.000009  -0.000317  -0.004620
    15  H   -0.000086   0.000001  -0.000016  -0.001798   0.012612   0.000860
    16  H   -0.015552   0.000513   0.022569   0.014824  -0.002727   0.000010
    17  H   -0.015484   0.022790   0.000513   0.450475  -0.065443   0.000016
    18  H   -0.000112  -0.000012   0.000002  -0.047503   0.442880  -0.000136
    19  H   -0.000000   0.000000   0.000000   0.000267   0.003514   0.356483
    20  H    0.000000   0.000000   0.000000  -0.000000   0.000078   0.364785
    21  H   -0.000000   0.000000   0.000000   0.000030  -0.001447   0.363564
    22  H   -0.000000  -0.000000   0.000000  -0.000119  -0.001040   0.008825
              13         14         15         16         17         18
     1  N   -0.039185   0.338219   0.032104  -0.000020   0.000001   0.000685
     2  S    0.355036  -0.019183  -0.012380  -0.000084  -0.000102  -0.007453
     3  C   -0.067853   0.011325  -0.059208   0.015510   0.015447  -0.077751
     4  C    0.003312  -0.000262   0.447640  -0.064811  -0.002607   0.011313
     5  C    0.000050  -0.000058  -0.061156   0.450717   0.014575  -0.001607
     6  C   -0.000055   0.000009   0.012978  -0.061761  -0.060183   0.013631
     7  N   -0.000000   0.000000  -0.000086  -0.015552  -0.015484  -0.000112
     8  O    0.000000   0.000000   0.000001   0.000513   0.022790  -0.000012
     9  O   -0.000000   0.000000  -0.000016   0.022569   0.000513   0.000002
    10  C    0.001537  -0.000009  -0.001798   0.014824   0.450475  -0.047503
    11  C    0.007739  -0.000317   0.012612  -0.002727  -0.065443   0.442880
    12  C   -0.096603  -0.004620   0.000860   0.000010   0.000016  -0.000136
    13  N    6.896098  -0.000867   0.000374   0.000001  -0.000006   0.022086
    14  H   -0.000867   0.544316  -0.000960  -0.000002  -0.000000  -0.000044
    15  H    0.000374  -0.000960   0.586869  -0.009429   0.000025  -0.000320
    16  H    0.000001  -0.000002  -0.009429   0.603735  -0.000220   0.000032
    17  H   -0.000006  -0.000000   0.000025  -0.000220   0.603724  -0.009913
    18  H    0.022086  -0.000044  -0.000320   0.000032  -0.009913   0.613731
    19  H    0.003644  -0.000044  -0.000050   0.000000  -0.000007   0.001473
    20  H    0.006828   0.001537  -0.000072  -0.000000  -0.000000  -0.000129
    21  H    0.005910  -0.000145   0.000299  -0.000007  -0.000001   0.000020
    22  H    0.330154   0.001501  -0.000008   0.000000   0.000002  -0.000475
              19         20         21         22
     1  N    0.003351   0.000691   0.003658  -0.001356
     2  S   -0.005451  -0.007267  -0.015362  -0.012723
     3  C    0.000938   0.007407   0.006440  -0.001746
     4  C    0.000241  -0.000011   0.001974  -0.000003
     5  C   -0.000006   0.000001   0.000232  -0.000033
     6  C    0.000012   0.000003  -0.000000   0.000000
     7  N   -0.000000   0.000000  -0.000000  -0.000000
     8  O    0.000000   0.000000   0.000000  -0.000000
     9  O    0.000000   0.000000   0.000000   0.000000
    10  C    0.000267  -0.000000   0.000030  -0.000119
    11  C    0.003514   0.000078  -0.001447  -0.001040
    12  C    0.356483   0.364785   0.363564   0.008825
    13  N    0.003644   0.006828   0.005910   0.330154
    14  H   -0.000044   0.001537  -0.000145   0.001501
    15  H   -0.000050  -0.000072   0.000299  -0.000008
    16  H    0.000000  -0.000000  -0.000007   0.000000
    17  H   -0.000007  -0.000000  -0.000001   0.000002
    18  H    0.001473  -0.000129   0.000020  -0.000475
    19  H    0.573932  -0.005809  -0.013743  -0.000733
    20  H   -0.005809   0.550909  -0.009596  -0.000480
    21  H   -0.013743  -0.009596   0.581630  -0.000392
    22  H   -0.000733  -0.000480  -0.000392   0.549867
 Mulliken charges:
               1
     1  N   -0.430667
     2  S    0.414169
     3  C   -0.099795
     4  C    0.025542
     5  C   -0.012176
     6  C    0.147946
     7  N    0.232848
     8  O   -0.244341
     9  O   -0.242934
    10  C   -0.014745
    11  C    0.008302
    12  C   -0.048783
    13  N   -0.428199
    14  H    0.129605
    15  H    0.051721
    16  H    0.046701
    17  H    0.046397
    18  H    0.039603
    19  H    0.081986
    20  H    0.091126
    21  H    0.076935
    22  H    0.128760
 Sum of Mulliken charges =  -0.00000
 Mulliken charges with hydrogens summed into heavy atoms:
               1
     1  N   -0.301063
     2  S    0.414169
     3  C   -0.099795
     4  C    0.077263
     5  C    0.034525
     6  C    0.147946
     7  N    0.232848
     8  O   -0.244341
     9  O   -0.242934
    10  C    0.031652
    11  C    0.047905
    12  C    0.201263
    13  N   -0.299439
 APT charges:
               1
     1  N   -0.957617
     2  S    1.855590
     3  C   -0.203494
     4  C   -0.135731
     5  C   -0.017658
     6  C   -0.107121
     7  N    1.261122
     8  O   -0.669944
     9  O   -0.669311
    10  C   -0.019361
    11  C   -0.125110
    12  C   -0.289767
    13  N   -0.944993
    14  H    0.226148
    15  H    0.122499
    16  H    0.105297
    17  H    0.106545
    18  H    0.101235
    19  H    0.040529
    20  H    0.054653
    21  H    0.041663
    22  H    0.224826
 Sum of APT charges =  -0.00000
 APT charges with hydrogens summed into heavy atoms:
               1
     1  N   -0.731469
     2  S    1.855590
     3  C   -0.203494
     4  C   -0.013231
     5  C    0.087639
     6  C   -0.107121
     7  N    1.261122
     8  O   -0.669944
     9  O   -0.669311
    10  C    0.087184
    11  C   -0.023875
    12  C   -0.152923
    13  N   -0.720166
 Electronic spatial extent (au):  <R**2>=           3297.6532
 Charge=             -0.0000 electrons
 Dipole moment (field-independent basis, Debye):
    X=              3.6586    Y=             -0.0702    Z=              0.9280  Tot=              3.7751
 Quadrupole moment (field-independent basis, Debye-Ang):
   XX=            -98.2199   YY=            -84.9380   ZZ=            -77.6415
   XY=              2.1652   XZ=              2.1314   YZ=             -0.4421
 Traceless Quadrupole moment (field-independent basis, Debye-Ang):
   XX=            -11.2868   YY=              1.9952   ZZ=              9.2916
   XY=              2.1652   XZ=              2.1314   YZ=             -0.4421
 Octapole moment (field-independent basis, Debye-Ang**2):
  XXX=            105.4459  YYY=             -0.5544  ZZZ=             -3.9084  XYY=            -15.3938
  XXY=             19.3365  XXZ=             -0.6248  XZZ=              8.3293  YZZ=             -3.0922
  YYZ=              2.0211  XYZ=             -3.3007
 Hexadecapole moment (field-independent basis, Debye-Ang**3):
 XXXX=          -3636.4085 YYYY=           -548.0896 ZZZZ=           -239.6775 XXXY=             94.6660
 XXXZ=             -6.0169 YYYX=              7.1479 YYYZ=             -2.0540 ZZZX=            -21.2978
 ZZZY=              8.7472 XXYY=           -723.1197 XXZZ=           -521.5338 YYZZ=           -136.8686
 XXYZ=            -22.0389 YYXZ=              1.6510 ZZXY=             -7.5957
 N-N= 9.017176120941D+02 E-N=-4.113047488774D+03  KE= 9.779464830494D+02
  Exact polarizability:     163.094      -1.247     121.271      -2.926       1.279      72.737
 Approx polarizability:     216.953      -4.578     239.231      -8.136       5.375     106.459
   1 Symmetry operations used in ECPInt.
 ECPInt:  NShTT=    5778 NPrTT=   21734 LenC2=    5430 LenP2D=   15101.
 LDataN:  DoStor=T MaxTD1= 6 Len=  172
 Calling FoFJK, ICntrl=    100127 FMM=F ISym2X=0 I1Cent= 0 IOpClX= 0 NMat=1 NMatS=1 NMatT=0.
 ***** Axes restored to original set *****
 -------------------------------------------------------------------
 Center     Atomic                   Forces (Hartrees/Bohr)
 Number     Number              X              Y              Z
 -------------------------------------------------------------------
      1        7           0.016688190    0.006625887    0.002512118
      2       16          -0.005455315    0.002716511   -0.003486973
      3        6          -0.007413579    0.002008591    0.002445649
      4        6           0.001236372    0.000238625   -0.000282814
      5        6           0.003861544   -0.002221487   -0.002260447
      6        6          -0.013302891   -0.000431428    0.000254911
      7        7           0.013730964    0.000223014   -0.000227346
      8        8          -0.000105473   -0.000933913   -0.000787842
      9        8          -0.000151191    0.000869619    0.000796778
     10        6           0.003745451    0.002581930    0.001708254
     11        6          -0.002562061    0.000795346    0.000289150
     12        6           0.003799474   -0.009112918    0.012458553
     13        7          -0.004385303    0.001499095   -0.020318893
     14        1          -0.011717337   -0.002718745   -0.002349090
     15        1          -0.004704887    0.006342471    0.006311264
     16        1           0.004450560    0.004828419    0.004217276
     17        1           0.004382957   -0.004832436   -0.004111502
     18        1          -0.004531918   -0.007524320   -0.005314296
     19        1           0.003926322   -0.005034130   -0.008491972
     20        1          -0.010399202   -0.000893919    0.001740161
     21        1           0.004990112    0.008023736    0.002284918
     22        1           0.003917212   -0.003049949    0.012612143
 -------------------------------------------------------------------
 Cartesian Forces:  Max     0.020318893 RMS     0.006200607
 FormGI is forming the generalized inverse of G from B-inverse, IUseBI=4.

 GradGradGradGradGradGradGradGradGradGradGradGradGradGradGradGradGradGrad
 Berny optimization.
 Internal  Forces:  Max     0.013476863 RMS     0.004295932
 Search for a local minimum.
 Step number   1 out of a maximum of  116
 All quantities printed in internal units (Hartrees-Bohrs-Radians)
 Mixed Optimization -- RFO/linear search
 Second derivative matrix not updated -- analytic derivatives used.
 ITU=  0
     Eigenvalues ---    0.00197   0.00233   0.00248   0.00456   0.00783
     Eigenvalues ---    0.01450   0.01882   0.01888   0.02066   0.02143
     Eigenvalues ---    0.02491   0.02746   0.02837   0.03035   0.03970
     Eigenvalues ---    0.04027   0.06705   0.07615   0.08796   0.09207
     Eigenvalues ---    0.09751   0.10500   0.10761   0.10886   0.10972
     Eigenvalues ---    0.11609   0.11950   0.12214   0.13119   0.14767
     Eigenvalues ---    0.16573   0.18039   0.18674   0.19029   0.19337
     Eigenvalues ---    0.21317   0.23465   0.24190   0.28090   0.31757
     Eigenvalues ---    0.37308   0.38457   0.38696   0.38967   0.39330
     Eigenvalues ---    0.39447   0.39931   0.40446   0.42099   0.45980
     Eigenvalues ---    0.49492   0.50097   0.50337   0.51292   0.51835
     Eigenvalues ---    0.52699   0.53066   0.56060   0.70300   0.89033
 RFO step:  Lambda=-9.71516706D-03 EMin= 1.97300518D-03
 Linear search not attempted -- first point.
 Iteration  1 RMS(Cart)=  0.05599631 RMS(Int)=  0.00472287
 Iteration  2 RMS(Cart)=  0.00468580 RMS(Int)=  0.00012277
 Iteration  3 RMS(Cart)=  0.00004078 RMS(Int)=  0.00011630
 Iteration  4 RMS(Cart)=  0.00000000 RMS(Int)=  0.00011630
 Variable       Old X    -DE/DX   Delta X   Delta X   Delta X     New X
                                 (Linear)    (Quad)   (Total)
    R1        2.90083   0.00116   0.00000   0.02321   0.02321   2.92404
    R2        1.90088   0.01041   0.00000   0.02908   0.02908   1.92996
    R3        3.43295  -0.00133   0.00000  -0.01461  -0.01461   3.41834
    R4        3.45397  -0.01066   0.00000  -0.06000  -0.06000   3.39397
    R5        2.89954   0.00324   0.00000   0.02954   0.02954   2.92908
    R6        2.61350   0.00993   0.00000   0.01840   0.01840   2.63190
    R7        2.61652   0.00773   0.00000   0.01503   0.01502   2.63154
    R8        2.61270   0.00844   0.00000   0.01562   0.01562   2.62832
    R9        2.03674   0.01007   0.00000   0.02371   0.02371   2.06045
   R10        2.62812   0.00318   0.00000   0.00211   0.00211   2.63023
   R11        2.03976   0.00779   0.00000   0.01918   0.01918   2.05894
   R12        2.73228   0.01348   0.00000   0.04513   0.04513   2.77740
   R13        2.62868   0.00298   0.00000   0.00059   0.00059   2.62927
   R14        2.28926   0.00103   0.00000  -0.00226  -0.00226   2.28701
   R15        2.28882   0.00098   0.00000  -0.00225  -0.00225   2.28657
   R16        2.61133   0.00817   0.00000   0.01610   0.01610   2.62743
   R17        2.03968   0.00770   0.00000   0.01896   0.01896   2.05865
   R18        2.03985   0.01020   0.00000   0.02499   0.02499   2.06484
   R19        2.04437   0.01057   0.00000   0.02623   0.02623   2.07061
   R20        2.04754   0.01000   0.00000   0.02568   0.02568   2.07322
   R21        2.04734   0.00951   0.00000   0.02376   0.02376   2.07110
   R22        1.90210   0.01126   0.00000   0.03218   0.03218   1.93428
    A1        1.99964  -0.01090   0.00000  -0.11838  -0.11838   1.88126
    A2        1.77450  -0.00184   0.00000  -0.01712  -0.01715   1.75735
    A3        1.99095  -0.00120   0.00000   0.00081   0.00089   1.99185
    A4        2.19238   0.00358   0.00000   0.00169   0.00165   2.19403
    A5        1.71619   0.00256   0.00000   0.02975   0.02976   1.74595
    A6        1.96905  -0.00092   0.00000   0.00929   0.00938   1.97844
    A7        1.76918  -0.00222   0.00000  -0.01525  -0.01540   1.75378
    A8        2.09442   0.00439   0.00000   0.02429   0.02428   2.11871
    A9        2.06327  -0.00481   0.00000  -0.02963  -0.02963   2.03364
   A10        2.12522   0.00041   0.00000   0.00524   0.00523   2.13045
   A11        2.08153  -0.00176   0.00000  -0.00679  -0.00679   2.07475
   A12        2.06682   0.00173   0.00000   0.00860   0.00859   2.07542
   A13        2.13475   0.00002   0.00000  -0.00186  -0.00187   2.13289
   A14        2.07720  -0.00024   0.00000  -0.00419  -0.00418   2.07302
   A15        2.12377   0.00059   0.00000   0.00586   0.00585   2.12962
   A16        2.08222  -0.00035   0.00000  -0.00167  -0.00167   2.08054
   A17        2.08069  -0.00144   0.00000  -0.00812  -0.00812   2.07257
   A18        2.12368   0.00296   0.00000   0.01584   0.01585   2.13953
   A19        2.07881  -0.00152   0.00000  -0.00774  -0.00774   2.07107
   A20        2.05178  -0.00049   0.00000  -0.00413  -0.00413   2.04765
   A21        2.05218  -0.00053   0.00000  -0.00412  -0.00412   2.04806
   A22        2.17922   0.00102   0.00000   0.00825   0.00825   2.18747
   A23        2.07407  -0.00010   0.00000  -0.00654  -0.00654   2.06753
   A24        2.08330  -0.00036   0.00000  -0.00063  -0.00064   2.08266
   A25        2.12581   0.00046   0.00000   0.00717   0.00716   2.13297
   A26        2.08451  -0.00128   0.00000  -0.00360  -0.00361   2.08090
   A27        2.07648   0.00162   0.00000   0.00490   0.00489   2.08137
   A28        2.12210  -0.00035   0.00000  -0.00141  -0.00141   2.12069
   A29        1.87772   0.00282   0.00000   0.03993   0.04012   1.91784
   A30        1.88461  -0.00509   0.00000  -0.03906  -0.03916   1.84545
   A31        1.89397  -0.00253   0.00000  -0.01505  -0.01535   1.87862
   A32        1.92073   0.00123   0.00000   0.00295   0.00339   1.92411
   A33        1.94984   0.00038   0.00000   0.00267   0.00266   1.95250
   A34        1.93471   0.00290   0.00000   0.00764   0.00695   1.94166
   A35        2.00045  -0.01269   0.00000  -0.13519  -0.13519   1.86527
    D1       -2.84441  -0.00108   0.00000  -0.13076  -0.13081  -2.97522
    D2        1.61083  -0.00266   0.00000  -0.15623  -0.15625   1.45458
    D3       -0.58551  -0.00141   0.00000  -0.13417  -0.13411  -0.71962
    D4       -0.25956   0.00102   0.00000  -0.01720  -0.01715  -0.27671
    D5        2.85742   0.00088   0.00000  -0.02197  -0.02192   2.83549
    D6        1.77935   0.00004   0.00000  -0.01185  -0.01199   1.76736
    D7       -1.38686  -0.00010   0.00000  -0.01662  -0.01676  -1.40362
    D8       -2.65163  -0.00147   0.00000  -0.01208  -0.01199  -2.66362
    D9        0.46534  -0.00161   0.00000  -0.01685  -0.01676   0.44858
   D10        2.98307  -0.00093   0.00000   0.00002   0.00015   2.98322
   D11       -1.22757  -0.00068   0.00000   0.00415   0.00383  -1.22374
   D12        0.87067  -0.00158   0.00000  -0.01780  -0.01760   0.85307
   D13        1.11873   0.00019   0.00000   0.00397   0.00403   1.12276
   D14       -3.09191   0.00044   0.00000   0.00810   0.00771  -3.08420
   D15       -0.99367  -0.00046   0.00000  -0.01385  -0.01373  -1.00739
   D16       -0.89570   0.00099   0.00000  -0.01057  -0.01038  -0.90608
   D17        1.17685   0.00123   0.00000  -0.00644  -0.00669   1.17015
   D18       -3.00810   0.00033   0.00000  -0.02839  -0.02813  -3.03623
   D19       -0.60244  -0.00229   0.00000  -0.13722  -0.13719  -0.73964
   D20        1.57650  -0.00267   0.00000  -0.15194  -0.15192   1.42458
   D21       -2.88847  -0.00114   0.00000  -0.12283  -0.12288  -3.01135
   D22        3.13238  -0.00013   0.00000  -0.00330  -0.00338   3.12901
   D23        0.00349   0.00002   0.00000   0.00113   0.00108   0.00457
   D24        0.01630   0.00009   0.00000   0.00214   0.00214   0.01844
   D25       -3.11259   0.00024   0.00000   0.00656   0.00660  -3.10599
   D26       -3.13379   0.00001   0.00000   0.00145   0.00139  -3.13240
   D27       -0.00586  -0.00029   0.00000  -0.00725  -0.00732  -0.01318
   D28       -0.01727  -0.00008   0.00000  -0.00314  -0.00314  -0.02041
   D29        3.11065  -0.00038   0.00000  -0.01184  -0.01184   3.09881
   D30       -0.00297  -0.00007   0.00000  -0.00046  -0.00047  -0.00344
   D31        3.13910   0.00006   0.00000   0.00221   0.00222   3.14131
   D32        3.12540  -0.00021   0.00000  -0.00499  -0.00500   3.12040
   D33       -0.01571  -0.00009   0.00000  -0.00232  -0.00231  -0.01803
   D34        3.13675   0.00010   0.00000   0.00201   0.00202   3.13877
   D35       -0.00923   0.00003   0.00000  -0.00024  -0.00023  -0.00946
   D36       -0.00531  -0.00002   0.00000  -0.00060  -0.00059  -0.00590
   D37        3.13190  -0.00009   0.00000  -0.00285  -0.00284   3.12906
   D38        3.13472  -0.00004   0.00000  -0.00051  -0.00049   3.13422
   D39       -0.00890   0.00000   0.00000  -0.00017  -0.00016  -0.00906
   D40       -0.00260   0.00002   0.00000   0.00162   0.00160  -0.00100
   D41        3.13696   0.00006   0.00000   0.00196   0.00194   3.13891
   D42        0.00828  -0.00002   0.00000  -0.00074  -0.00073   0.00754
   D43       -3.13129   0.00016   0.00000   0.00442   0.00440  -3.12689
   D44       -3.13770  -0.00009   0.00000  -0.00299  -0.00298  -3.14068
   D45        0.00592   0.00009   0.00000   0.00218   0.00215   0.00807
   D46        0.00484   0.00005   0.00000   0.00240   0.00237   0.00721
   D47       -3.12272   0.00034   0.00000   0.01127   0.01123  -3.11149
   D48       -3.13884  -0.00013   0.00000  -0.00291  -0.00293   3.14142
   D49        0.01679   0.00016   0.00000   0.00597   0.00593   0.02272
         Item               Value     Threshold  Converged?
 Maximum Force            0.013477     0.000015     NO 
 RMS     Force            0.004296     0.000010     NO 
 Maximum Displacement     0.337639     0.000060     NO 
 RMS     Displacement     0.057156     0.000040     NO 
 Predicted change in Energy=-5.701733D-03
 GradGradGradGradGradGradGradGradGradGradGradGradGradGradGradGradGradGrad

                          Input orientation:                          
 ---------------------------------------------------------------------
 Center     Atomic      Atomic             Coordinates (Angstroms)
 Number     Number       Type             X           Y           Z
 ---------------------------------------------------------------------
      1          7           0       -2.919642    0.727503    1.338059
      2         16           0       -2.589956   -0.073731    0.056035
      3          6           0       -0.782712    0.002871    0.067984
      4          6           0       -0.100676    0.919448    0.864501
      5          6           0        1.290025    0.922576    0.844442
      6          6           0        1.950442    0.005961    0.031460
      7          7           0        3.419980    0.012164    0.007960
      8          8           0        3.967611   -0.800821   -0.701841
      9          8           0        3.983461    0.830687    0.698328
     10          6           0        1.274314   -0.921810   -0.754634
     11          6           0       -0.115842   -0.923220   -0.730038
     12          6           0       -2.930596    0.810083   -1.469908
     13          7           0       -3.143172   -1.476888   -0.301198
     14          1           0       -3.917439    0.618108    1.526404
     15          1           0       -0.674280    1.599421    1.494949
     16          1           0        1.874871    1.617175    1.446600
     17          1           0        1.845062   -1.624246   -1.360932
     18          1           0       -0.696410   -1.647846   -1.306035
     19          1           0       -2.526378    0.252157   -2.321918
     20          1           0       -4.023698    0.871497   -1.540531
     21          1           0       -2.481518    1.806141   -1.384080
     22          1           0       -3.111900   -2.035591    0.555881
 ---------------------------------------------------------------------
                    Distance matrix (angstroms):
                    1          2          3          4          5
     1  N    0.000000
     2  S    1.547338   0.000000
     3  C    2.589334   1.808905   0.000000
     4  C    2.864903   2.799381   1.392741   0.000000
     5  C    4.242995   4.082703   2.396870   1.390849   0.000000
     6  C    5.093676   4.541163   2.733400   2.394890   1.391859
     7  N    6.517030   6.010742   4.203132   3.735217   2.462775
     8  O    7.343787   6.641138   4.878947   4.686545   3.539852
     9  O    6.933450   6.666357   4.878424   4.088479   2.698960
    10  C    4.968789   4.038441   2.400644   2.811125   2.441116
    11  C    3.855283   2.731443   1.392552   2.436845   2.804000
    12  C    2.809202   1.796013   2.762264   3.670133   4.814822
    13  N    2.756169   1.550004   2.810294   4.044510   5.169445
    14  H    1.021293   2.098294   3.511697   3.885435   5.260747
    15  H    2.413816   2.922281   2.144052   1.090344   2.177102
    16  H    4.877566   4.972677   3.401369   2.174499   1.089545
    17  H    5.959671   4.907268   3.405071   3.899849   3.414387
    18  H    4.192407   2.813999   2.149475   3.414254   3.895837
    19  H    3.711610   2.401022   2.968862   4.059874   5.004021
    20  H    3.086415   2.344802   3.720997   4.601802   5.824633
    21  H    2.960651   2.370571   2.871621   3.392750   4.468952
    22  H    2.878098   2.090733   3.133446   4.230244   5.311399
                    6          7          8          9         10
     6  C    0.000000
     7  N    1.469739   0.000000
     8  O    2.292945   1.210231   0.000000
     9  O    2.293044   1.210000   2.150010   0.000000
    10  C    1.391349   2.461247   2.696529   3.538618   0.000000
    11  C    2.390144   3.731169   4.085384   4.681955   1.390375
    12  C    5.169647   6.568910   7.125320   7.246092   4.603514
    13  N    5.315488   6.737049   7.154077   7.557305   4.475255
    14  H    6.086182   7.517351   8.315795   7.947019   5.876120
    15  H    3.401482   4.636107   5.668703   4.787494   3.900545
    16  H    2.145773   2.652001   3.852539   2.371629   3.413582
    17  H    2.146494   2.651804   2.370156   3.852272   1.089388
    18  H    3.395556   4.628919   4.778660   5.662313   2.171389
    19  H    5.063686   6.391017   6.775345   7.199623   4.275492
    20  H    6.237840   7.651445   8.207378   8.314369   5.648231
    21  H    4.988654   6.323275   6.989489   6.861769   4.684463
    22  H    5.483635   6.867239   7.295614   7.653756   4.711352
                   11         12         13         14         15
    11  C    0.000000
    12  C    3.387416   0.000000
    13  N    3.107278   2.577073   0.000000
    14  H    4.681812   3.160474   2.885936   0.000000
    15  H    3.409713   3.808463   4.334196   3.388517   0.000000
    16  H    3.892853   5.678902   6.148885   5.878381   2.549671
    17  H    2.175916   5.361413   5.101689   6.824315   4.989506
    18  H    1.092664   3.325636   2.650579   4.851009   4.288444
    19  H    3.118698   1.095717   2.730081   4.108352   4.451277
    20  H    4.375985   1.097101   2.797532   3.079219   4.578494
    21  H    3.670641   1.095978   3.519758   3.456039   3.405532
    22  H    3.444897   3.497792   1.023578   2.938184   4.476288
                   16         17         18         19         20
    16  H    0.000000
    17  H    4.288349   0.000000
    18  H    4.984863   2.542175   0.000000
    19  H    5.952814   4.853233   2.826802   0.000000
    20  H    6.653728   6.379916   4.180062   1.798921   0.000000
    21  H    5.198710   5.521538   3.888795   1.815604   1.810070
    22  H    6.245315   5.330558   3.074357   3.722681   3.698308
                   21         22
    21  H    0.000000
    22  H    4.349681   0.000000
 Stoichiometry    C7H9N3O2S
 Framework group  C1[X(C7H9N3O2S)]
 Deg. of freedom    60
 Full point group                 C1      NOp   1
 Largest Abelian subgroup         C1      NOp   1
 Largest concise Abelian subgroup C1      NOp   1
                         Standard orientation:                         
 ---------------------------------------------------------------------
 Center     Atomic      Atomic             Coordinates (Angstroms)
 Number     Number       Type             X           Y           Z
 ---------------------------------------------------------------------
      1          7           0        2.827759    1.504309   -0.509384
      2         16           0        2.525891    0.035886   -0.126155
      3          6           0        0.718286    0.069545   -0.066408
      4          6           0        0.016555    1.271209   -0.008919
      5          6           0       -1.373561    1.236467    0.019937
      6          6           0       -2.013751    0.001038   -0.013905
      7          7           0       -3.482648   -0.035152    0.020250
      8          8           0       -4.012546   -1.122526   -0.018282
      9          8           0       -4.063351    1.024332    0.086399
     10          6           0       -1.318045   -1.201691   -0.086607
     11          6           0        0.071435   -1.162594   -0.117572
     12          6           0        2.888241   -0.365124    1.586608
     13          7           0        3.093982   -1.219458   -0.836012
     14          1           0        3.822694    1.570951   -0.730073
     15          1           0        0.574652    2.207882   -0.004409
     16          1           0       -1.973294    2.144973    0.065155
     17          1           0       -1.873579   -2.138036   -0.124122
     18          1           0        0.666609   -2.075002   -0.202392
     19          1           0        2.502700   -1.362581    1.825424
     20          1           0        3.982031   -0.350792    1.670574
     21          1           0        2.431604    0.409782    2.212844
     22          1           0        3.050869   -1.036789   -1.842235
 ---------------------------------------------------------------------
 Rotational constants (GHZ):           2.0519146           0.3462978           0.3185607
 Standard basis: def2SVP (5D, 7F)
 There are   244 symmetry adapted cartesian basis functions of A   symmetry.
 There are   231 symmetry adapted basis functions of A   symmetry.
   231 basis functions,   400 primitive gaussians,   244 cartesian basis functions
    52 alpha electrons       52 beta electrons
       nuclear repulsion energy       899.8913869229 Hartrees.
 NAtoms=   22 NActive=   22 NUniq=   22 SFac= 1.00D+00 NAtFMM=   60 NAOKFM=F Big=F
 Integral buffers will be    131072 words long.
 Raffenetti 2 integral format.
 Two-electron integral symmetry is turned on.
 Nuclear repulsion after empirical dispersion term =      899.8664414404 Hartrees.
 One-electron integrals computed using PRISM.
   1 Symmetry operations used in ECPInt.
 ECPInt:  NShTT=    5778 NPrTT=   21734 LenC2=    5425 LenP2D=   15085.
 LDataN:  DoStor=T MaxTD1= 4 Len=   56
 NBasis=   231 RedAO= T EigKep=  2.60D-04  NBF=   231
 NBsUse=   231 1.00D-06 EigRej= -1.00D+00 NBFU=   231
 Initial guess from the checkpoint file:  "SDI0028_2.chk"
 B after Tr=     0.000000    0.000000   -0.000000
         Rot=    0.999978    0.006456   -0.001410   -0.000497 Ang=   0.76 deg.
 ExpMin= 1.22D-01 ExpMax= 9.18D+03 ExpMxC= 1.38D+03 IAcc=3 IRadAn=         5 AccDes= 0.00D+00
 Harris functional with IExCor= 1009 and IRadAn=       5 diagonalized for initial guess.
 HarFok:  IExCor= 1009 AccDes= 0.00D+00 IRadAn=         5 IDoV= 1 UseB2=F ITyADJ=14
 ICtDFT=  3500011 ScaDFX=  1.000000  1.000000  1.000000  1.000000
 FoFCou: FMM=F IPFlag=           0 FMFlag=      100000 FMFlg1=           0
         NFxFlg=           0 DoJE=T BraDBF=F KetDBF=T FulRan=T
         wScrn=  0.000000 ICntrl=       500 IOpCl=  0 I1Cent=   200000004 NGrid=           0
         NMat0=    1 NMatS0=      1 NMatT0=    0 NMatD0=    1 NMtDS0=    0 NMtDT0=    0
 Petite list used in FoFCou.
 Requested convergence on RMS density matrix=1.00D-08 within 128 cycles.
 Requested convergence on MAX density matrix=1.00D-06.
 Requested convergence on             energy=1.00D-06.
 No special actions if energy rises.
 Integral accuracy reduced to 1.0D-05 until final iterations.
 Initial convergence to 1.0D-05 achieved.  Increase integral accuracy.
 SCF Done:  E(RPBE1PBE) =  -983.501614900     A.U. after   13 cycles
            NFock= 13  Conv=0.10D-07     -V/T= 2.0059
 DoSCS=F DFT=T ScalE2(SS,OS)=  1.000000  1.000000
 Range of M.O.s used for correlation:     1   231
 NBasis=   231 NAE=    52 NBE=    52 NFC=     0 NFV=     0
 NROrb=    231 NOA=    52 NOB=    52 NVA=   179 NVB=   179

 **** Warning!!: The largest alpha MO coefficient is  0.12894487D+02

   1 Symmetry operations used in ECPInt.
 ECPInt:  NShTT=    5778 NPrTT=   21734 LenC2=    5425 LenP2D=   15085.
 LDataN:  DoStor=T MaxTD1= 5 Len=  102
 Symmetrizing basis deriv contribution to polar:
 IMax=3 JMax=2 DiffMx= 0.00D+00
 G2DrvN: will do    23 centers at a time, making    1 passes.
 Calling FoFCou, ICntrl=  3107 FMM=F I1Cent=   0 AccDes= 0.00D+00.
 End of G2Drv F.D. properties file   721 does not exist.
 End of G2Drv F.D. properties file   722 does not exist.
 End of G2Drv F.D. properties file   788 does not exist.
          IDoAtm=1111111111111111111111
          Differentiating once with respect to electric field.
                with respect to dipole field.
          Differentiating once with respect to nuclear coordinates.
 Keep R1 ints in memory in canonical form, NReq=376218264.
          There are    69 degrees of freedom in the 1st order CPHF.  IDoFFX=6 NUNeed=     3.
     66 vectors produced by pass  0 Test12= 1.35D-14 1.45D-09 XBig12= 1.66D+02 7.53D+00.
 AX will form    66 AO Fock derivatives at one time.
     66 vectors produced by pass  1 Test12= 1.35D-14 1.45D-09 XBig12= 7.12D+01 2.46D+00.
     66 vectors produced by pass  2 Test12= 1.35D-14 1.45D-09 XBig12= 6.80D-01 1.81D-01.
     66 vectors produced by pass  3 Test12= 1.35D-14 1.45D-09 XBig12= 4.46D-03 1.22D-02.
     66 vectors produced by pass  4 Test12= 1.35D-14 1.45D-09 XBig12= 1.43D-05 5.71D-04.
     63 vectors produced by pass  5 Test12= 1.35D-14 1.45D-09 XBig12= 2.00D-08 2.15D-05.
     26 vectors produced by pass  6 Test12= 1.35D-14 1.45D-09 XBig12= 2.36D-11 6.58D-07.
      3 vectors produced by pass  7 Test12= 1.35D-14 1.45D-09 XBig12= 2.34D-14 1.59D-08.
 InvSVY:  IOpt=1 It=  1 EMax= 1.42D-14
 Solved reduced A of dimension   422 with    69 vectors.
 Isotropic polarizability for W=    0.000000      119.98 Bohr**3.
 End of Minotr F.D. properties file   721 does not exist.
 End of Minotr F.D. properties file   722 does not exist.
 End of Minotr F.D. properties file   788 does not exist.
   1 Symmetry operations used in ECPInt.
 ECPInt:  NShTT=    5778 NPrTT=   21734 LenC2=    5425 LenP2D=   15085.
 LDataN:  DoStor=T MaxTD1= 6 Len=  172
 Calling FoFJK, ICntrl=    100127 FMM=F ISym2X=0 I1Cent= 0 IOpClX= 0 NMat=1 NMatS=1 NMatT=0.
 ***** Axes restored to original set *****
 -------------------------------------------------------------------
 Center     Atomic                   Forces (Hartrees/Bohr)
 Number     Number              X              Y              Z
 -------------------------------------------------------------------
      1        7           0.000449875   -0.001622318    0.000219868
      2       16           0.000857858    0.000393138   -0.000871675
      3        6          -0.000326003   -0.000521528   -0.000124448
      4        6           0.000023389    0.000036799   -0.000248021
      5        6           0.000141779   -0.000149919   -0.000167272
      6        6          -0.001589963   -0.000041288    0.000023607
      7        7           0.001456390   -0.000002852   -0.000014819
      8        8          -0.000026079   -0.000026723   -0.000029400
      9        8          -0.000022357    0.000033797    0.000042054
     10        6           0.000226929    0.000154440    0.000017361
     11        6           0.000258495    0.000114706    0.000166507
     12        6           0.000251142    0.000568874    0.000333879
     13        7          -0.000663002    0.001106904    0.000910586
     14        1          -0.001452669    0.001573645   -0.000268843
     15        1          -0.000239656    0.000349390    0.000400696
     16        1           0.000245822    0.000224908    0.000222416
     17        1           0.000257684   -0.000244614   -0.000188437
     18        1          -0.000256866   -0.000516938   -0.000184259
     19        1           0.000231424   -0.000293556   -0.000436450
     20        1          -0.000721496    0.000033287   -0.000058860
     21        1          -0.000100193    0.000721845   -0.000041803
     22        1           0.000997497   -0.001891996    0.000297312
 -------------------------------------------------------------------
 Cartesian Forces:  Max     0.001891996 RMS     0.000610923
 FormGI is forming the generalized inverse of G from B-inverse, IUseBI=4.

 GradGradGradGradGradGradGradGradGradGradGradGradGradGradGradGradGradGrad
 Berny optimization.
 Using GEDIIS/GDIIS optimizer.
 Internal  Forces:  Max     0.001831843 RMS     0.000476577
 Search for a local minimum.
 Step number   2 out of a maximum of  116
 All quantities printed in internal units (Hartrees-Bohrs-Radians)
 Mixed Optimization -- En-DIIS/RFO-DIIS
 Second derivative matrix not updated -- analytic derivatives used.
 DE= -5.36D-03 DEPred=-5.70D-03 R= 9.40D-01
 TightC=F SS=  1.41D+00  RLast= 4.17D-01 DXNew= 5.0454D-01 1.2506D+00
 Trust test= 9.40D-01 RLast= 4.17D-01 DXMaxT set to 5.05D-01
 ITU=  1  0
 Use linear search instead of GDIIS.
     Eigenvalues ---    0.00199   0.00263   0.00298   0.00743   0.01189
     Eigenvalues ---    0.01461   0.01863   0.01870   0.02033   0.02104
     Eigenvalues ---    0.02472   0.02716   0.02802   0.03003   0.03954
     Eigenvalues ---    0.04072   0.06806   0.07877   0.09245   0.09784
     Eigenvalues ---    0.10329   0.10575   0.10933   0.11513   0.11767
     Eigenvalues ---    0.12089   0.12158   0.13159   0.13894   0.14590
     Eigenvalues ---    0.16848   0.17876   0.18110   0.19713   0.21616
     Eigenvalues ---    0.21974   0.23392   0.23817   0.26068   0.30452
     Eigenvalues ---    0.35658   0.35894   0.35930   0.36075   0.36586
     Eigenvalues ---    0.37301   0.37363   0.38658   0.41046   0.44395
     Eigenvalues ---    0.45203   0.45861   0.47377   0.48838   0.49431
     Eigenvalues ---    0.49865   0.50012   0.54102   0.70419   0.89161
 RFO step:  Lambda=-5.74193888D-04 EMin= 1.99496770D-03
 Quintic linear search produced a step of  0.06345.
 Iteration  1 RMS(Cart)=  0.03701156 RMS(Int)=  0.00126003
 Iteration  2 RMS(Cart)=  0.00137275 RMS(Int)=  0.00000824
 Iteration  3 RMS(Cart)=  0.00000421 RMS(Int)=  0.00000779
 Iteration  4 RMS(Cart)=  0.00000000 RMS(Int)=  0.00000779
 Variable       Old X    -DE/DX   Delta X   Delta X   Delta X     New X
                                 (Linear)    (Quad)   (Total)
    R1        2.92404   0.00015   0.00147  -0.00165  -0.00018   2.92387
    R2        1.92996   0.00120   0.00185   0.00104   0.00289   1.93285
    R3        3.41834   0.00012  -0.00093  -0.00222  -0.00315   3.41519
    R4        3.39397   0.00075  -0.00381   0.00639   0.00258   3.39655
    R5        2.92908   0.00031   0.00187  -0.00275  -0.00088   2.92821
    R6        2.63190   0.00039   0.00117   0.00007   0.00124   2.63314
    R7        2.63154   0.00054   0.00095  -0.00046   0.00049   2.63203
    R8        2.62832   0.00032   0.00099  -0.00058   0.00041   2.62873
    R9        2.06045   0.00058   0.00150  -0.00020   0.00131   2.06176
   R10        2.63023   0.00005   0.00013  -0.00024  -0.00010   2.63013
   R11        2.05894   0.00040   0.00122  -0.00021   0.00101   2.05995
   R12        2.77740   0.00141   0.00286   0.00263   0.00549   2.78290
   R13        2.62927   0.00001   0.00004  -0.00067  -0.00064   2.62863
   R14        2.28701   0.00002  -0.00014  -0.00027  -0.00041   2.28659
   R15        2.28657   0.00004  -0.00014  -0.00022  -0.00037   2.28620
   R16        2.62743   0.00037   0.00102   0.00001   0.00103   2.62846
   R17        2.05865   0.00040   0.00120  -0.00020   0.00101   2.05965
   R18        2.06484   0.00058   0.00159   0.00000   0.00159   2.06642
   R19        2.07061   0.00057   0.00166  -0.00010   0.00156   2.07217
   R20        2.07322   0.00072   0.00163   0.00049   0.00212   2.07534
   R21        2.07110   0.00061   0.00151  -0.00014   0.00137   2.07247
   R22        1.93428   0.00131   0.00204   0.00019   0.00224   1.93652
    A1        1.88126   0.00109  -0.00751   0.01309   0.00558   1.88684
    A2        1.75735   0.00059  -0.00109  -0.00192  -0.00300   1.75434
    A3        1.99185  -0.00099   0.00006  -0.00313  -0.00307   1.98878
    A4        2.19403  -0.00003   0.00010   0.00307   0.00316   2.19719
    A5        1.74595   0.00029   0.00189   0.00772   0.00962   1.75557
    A6        1.97844  -0.00075   0.00060  -0.00546  -0.00486   1.97357
    A7        1.75378   0.00087  -0.00098   0.00083  -0.00014   1.75364
    A8        2.11871  -0.00017   0.00154  -0.00106   0.00047   2.11918
    A9        2.03364   0.00026  -0.00188   0.00126  -0.00063   2.03301
   A10        2.13045  -0.00009   0.00033  -0.00003   0.00030   2.13075
   A11        2.07475  -0.00006  -0.00043   0.00003  -0.00040   2.07434
   A12        2.07542   0.00010   0.00055   0.00050   0.00104   2.07646
   A13        2.13289  -0.00005  -0.00012  -0.00057  -0.00069   2.13219
   A14        2.07302   0.00002  -0.00027  -0.00029  -0.00056   2.07247
   A15        2.12962   0.00003   0.00037   0.00031   0.00068   2.13030
   A16        2.08054  -0.00005  -0.00011  -0.00002  -0.00013   2.08041
   A17        2.07257  -0.00012  -0.00052  -0.00042  -0.00094   2.07163
   A18        2.13953   0.00021   0.00101   0.00064   0.00165   2.14118
   A19        2.07107  -0.00009  -0.00049  -0.00022  -0.00072   2.07035
   A20        2.04765  -0.00003  -0.00026  -0.00021  -0.00048   2.04717
   A21        2.04806  -0.00004  -0.00026  -0.00022  -0.00048   2.04759
   A22        2.18747   0.00007   0.00052   0.00043   0.00095   2.18843
   A23        2.06753  -0.00009  -0.00042  -0.00050  -0.00091   2.06662
   A24        2.08266  -0.00002  -0.00004   0.00009   0.00005   2.08271
   A25        2.13297   0.00010   0.00045   0.00041   0.00086   2.13383
   A26        2.08090   0.00001  -0.00023   0.00018  -0.00005   2.08085
   A27        2.08137   0.00005   0.00031  -0.00246  -0.00216   2.07921
   A28        2.12069  -0.00006  -0.00009   0.00231   0.00222   2.12291
   A29        1.91784  -0.00005   0.00255  -0.00061   0.00195   1.91979
   A30        1.84545  -0.00008  -0.00248   0.00104  -0.00145   1.84400
   A31        1.87862   0.00038  -0.00097   0.00172   0.00073   1.87934
   A32        1.92411   0.00000   0.00021  -0.00239  -0.00215   1.92196
   A33        1.95250  -0.00004   0.00017   0.00167   0.00184   1.95433
   A34        1.94166  -0.00021   0.00044  -0.00138  -0.00098   1.94068
   A35        1.86527   0.00183  -0.00858   0.01813   0.00956   1.87482
    D1       -2.97522  -0.00077  -0.00830  -0.10308  -0.11137  -3.08660
    D2        1.45458  -0.00108  -0.00991  -0.10988  -0.11980   1.33478
    D3       -0.71962  -0.00128  -0.00851  -0.11071  -0.11922  -0.83884
    D4       -0.27671   0.00008  -0.00109  -0.04529  -0.04637  -0.32308
    D5        2.83549   0.00005  -0.00139  -0.03894  -0.04032   2.79518
    D6        1.76736  -0.00071  -0.00076  -0.04684  -0.04760   1.71975
    D7       -1.40362  -0.00074  -0.00106  -0.04048  -0.04155  -1.44517
    D8       -2.66362   0.00019  -0.00076  -0.04372  -0.04449  -2.70811
    D9        0.44858   0.00016  -0.00106  -0.03737  -0.03844   0.41015
   D10        2.98322   0.00018   0.00001  -0.02838  -0.02836   2.95486
   D11       -1.22374   0.00012   0.00024  -0.03094  -0.03071  -1.25445
   D12        0.85307   0.00002  -0.00112  -0.03114  -0.03224   0.82083
   D13        1.12276  -0.00032   0.00026  -0.02921  -0.02894   1.09382
   D14       -3.08420  -0.00039   0.00049  -0.03177  -0.03130  -3.11549
   D15       -1.00739  -0.00048  -0.00087  -0.03197  -0.03282  -1.04022
   D16       -0.90608   0.00014  -0.00066  -0.02594  -0.02659  -0.93267
   D17        1.17015   0.00007  -0.00042  -0.02850  -0.02895   1.14120
   D18       -3.03623  -0.00002  -0.00178  -0.02870  -0.03048  -3.06670
   D19       -0.73964  -0.00108  -0.00870  -0.04479  -0.05348  -0.79312
   D20        1.42458  -0.00105  -0.00964  -0.05107  -0.06071   1.36387
   D21       -3.01135  -0.00052  -0.00780  -0.04362  -0.05142  -3.06277
   D22        3.12901  -0.00001  -0.00021   0.00438   0.00416   3.13317
   D23        0.00457   0.00002   0.00007   0.00766   0.00773   0.01230
   D24        0.01844   0.00001   0.00014  -0.00235  -0.00221   0.01623
   D25       -3.10599   0.00004   0.00042   0.00092   0.00135  -3.10464
   D26       -3.13240  -0.00000   0.00009  -0.00494  -0.00485  -3.13725
   D27       -0.01318  -0.00007  -0.00046  -0.00371  -0.00418  -0.01736
   D28       -0.02041  -0.00003  -0.00020   0.00145   0.00125  -0.01916
   D29        3.09881  -0.00010  -0.00075   0.00268   0.00192   3.10073
   D30       -0.00344  -0.00000  -0.00003   0.00167   0.00164  -0.00180
   D31        3.14131   0.00002   0.00014   0.00225   0.00239  -3.13948
   D32        3.12040  -0.00003  -0.00032  -0.00170  -0.00202   3.11838
   D33       -0.01803  -0.00001  -0.00015  -0.00113  -0.00127  -0.01930
   D34        3.13877   0.00002   0.00013   0.00008   0.00021   3.13898
   D35       -0.00946  -0.00000  -0.00001  -0.00018  -0.00020  -0.00966
   D36       -0.00590  -0.00000  -0.00004  -0.00047  -0.00051  -0.00641
   D37        3.12906  -0.00002  -0.00018  -0.00074  -0.00092   3.12814
   D38        3.13422  -0.00001  -0.00003   0.00134   0.00131   3.13553
   D39       -0.00906   0.00000  -0.00001   0.00138   0.00137  -0.00769
   D40       -0.00100   0.00001   0.00010   0.00159   0.00169   0.00069
   D41        3.13891   0.00002   0.00012   0.00163   0.00175   3.14066
   D42        0.00754  -0.00001  -0.00005  -0.00072  -0.00076   0.00678
   D43       -3.12689   0.00004   0.00028  -0.00044  -0.00016  -3.12705
   D44       -3.14068  -0.00003  -0.00019  -0.00098  -0.00117   3.14133
   D45        0.00807   0.00002   0.00014  -0.00070  -0.00057   0.00751
   D46        0.00721   0.00003   0.00015   0.00010   0.00025   0.00746
[...]
 Alpha virt. eigenvalues --    1.38883   1.40426   1.41049   1.42642   1.44615
 Alpha virt. eigenvalues --    1.45317   1.47344   1.48362   1.49016   1.49669
 Alpha virt. eigenvalues --    1.50233   1.51880   1.52445   1.54025   1.54085
 Alpha virt. eigenvalues --    1.56079   1.56345   1.57950   1.59602   1.61185
 Alpha virt. eigenvalues --    1.61925   1.62274   1.65072   1.65401   1.67132
 Alpha virt. eigenvalues --    1.68239   1.69474   1.69856   1.70983   1.71921
 Alpha virt. eigenvalues --    1.73904   1.74643   1.75929   1.76775   1.77710
 Alpha virt. eigenvalues --    1.80130   1.82586   1.83560   1.86507   1.87409
 Alpha virt. eigenvalues --    1.88210   1.89394   1.91760   1.94738   1.95831
 Alpha virt. eigenvalues --    1.97659   1.98425   1.99482   2.00552   2.01001
 Alpha virt. eigenvalues --    2.02625   2.03653   2.04095   2.05513   2.07510
 Alpha virt. eigenvalues --    2.08556   2.09941   2.10346   2.11515   2.12684
 Alpha virt. eigenvalues --    2.13051   2.13477   2.15696   2.16855   2.17639
 Alpha virt. eigenvalues --    2.17797   2.19268   2.21763   2.24399   2.26206
 Alpha virt. eigenvalues --    2.27984   2.29124   2.29196   2.30042   2.34536
 Alpha virt. eigenvalues --    2.36167   2.38147   2.39486   2.42484   2.45831
 Alpha virt. eigenvalues --    2.46111   2.48700   2.48954   2.50448   2.53582
 Alpha virt. eigenvalues --    2.53843   2.55807   2.57144   2.59118   2.60306
 Alpha virt. eigenvalues --    2.61029   2.61677   2.63670   2.64581   2.66233
 Alpha virt. eigenvalues --    2.67406   2.68838   2.69717   2.70621   2.71840
 Alpha virt. eigenvalues --    2.72834   2.73430   2.75237   2.75599   2.76125
 Alpha virt. eigenvalues --    2.77905   2.78586   2.80084   2.80639   2.81260
 Alpha virt. eigenvalues --    2.83114   2.83868   2.86607   2.89400   2.90834
 Alpha virt. eigenvalues --    2.93470   2.94279   2.95864   2.96619   2.97280
 Alpha virt. eigenvalues --    2.99328   3.00608   3.02970   3.07380   3.08617
 Alpha virt. eigenvalues --    3.10496   3.10663   3.11723   3.12200   3.12340
 Alpha virt. eigenvalues --    3.13549   3.15223   3.19525   3.20493   3.21567
 Alpha virt. eigenvalues --    3.22856   3.24168   3.24356   3.25652   3.27814
 Alpha virt. eigenvalues --    3.28512   3.29280   3.31939   3.33868   3.35996
 Alpha virt. eigenvalues --    3.36534   3.37515   3.38141   3.39307   3.39957
 Alpha virt. eigenvalues --    3.42229   3.43730   3.45041   3.47587   3.48872
 Alpha virt. eigenvalues --    3.49518   3.50907   3.51227   3.53936   3.55637
 Alpha virt. eigenvalues --    3.56917   3.62822   3.65934   3.67677   3.70099
 Alpha virt. eigenvalues --    3.73307   3.74803   3.78387   3.81317   3.84135
 Alpha virt. eigenvalues --    3.87924   3.89653   3.91422   3.95550   3.97988
 Alpha virt. eigenvalues --    4.01020   4.01259   4.01957   4.02631   4.07641
 Alpha virt. eigenvalues --    4.08381   4.09434   4.13684   4.14154   4.15098
 Alpha virt. eigenvalues --    4.16589   4.17952   4.18519   4.19034   4.19827
 Alpha virt. eigenvalues --    4.22687   4.23087   4.23987   4.25652   4.28446
 Alpha virt. eigenvalues --    4.30748   4.31841   4.34218   4.36187   4.40413
 Alpha virt. eigenvalues --    4.43289   4.47902   4.51714   4.55562   4.56570
 Alpha virt. eigenvalues --    4.58756   4.62173   4.63678   4.64695   4.65406
 Alpha virt. eigenvalues --    4.67901   4.69026   4.69236   4.72233   4.73497
 Alpha virt. eigenvalues --    4.77562   4.79979   4.83570   4.87532   4.89669
 Alpha virt. eigenvalues --    4.90886   4.93426   4.93633   4.97863   5.04665
 Alpha virt. eigenvalues --    5.07353   5.08579   5.09916   5.12769   5.13640
 Alpha virt. eigenvalues --    5.14997   5.15763   5.16857   5.19576   5.20893
 Alpha virt. eigenvalues --    5.22779   5.24798   5.30526   5.33445   5.35270
 Alpha virt. eigenvalues --    5.42379   5.44258   5.47850   5.54140   5.56728
 Alpha virt. eigenvalues --    5.58263   5.62589   5.76772   5.81965   6.01904
 Alpha virt. eigenvalues --    6.25191   6.30455   6.36788   6.43011   6.45850
 Alpha virt. eigenvalues --    6.47405   6.77781   6.87498   6.90502   6.97576
 Alpha virt. eigenvalues --    7.15571   7.31779   7.45697   7.48976   7.55374
 Alpha virt. eigenvalues --    9.43859   9.50547   9.62728  21.66977  22.22004
 Alpha virt. eigenvalues --   22.32333  22.71202  22.74151  22.75923  22.91255
 Alpha virt. eigenvalues --   23.28688  31.89595  31.90667  32.68495  44.19890
 Alpha virt. eigenvalues --   44.23507
          Condensed to atoms (all electrons):
               1          2          3          4          5          6
     1  N    6.927427   0.502907  -0.133033   0.015367  -0.001911   0.000846
     2  S    0.502907  14.116007   0.232962   0.007612   0.005638  -0.000158
     3  C   -0.133033   0.232962   5.327997   0.347666   0.038858  -0.106299
     4  C    0.015367   0.007612   0.347666   5.191238   0.336845   0.025287
     5  C   -0.001911   0.005638   0.038858   0.336845   5.188939   0.374166
     6  C    0.000846  -0.000158  -0.106299   0.025287   0.374166   5.177191
     7  N   -0.000000   0.000012   0.000786   0.002546  -0.056242   0.413218
     8  O   -0.000000  -0.000001   0.000741  -0.001498   0.021613  -0.157883
     9  O    0.000000  -0.000001   0.000903   0.000203   0.042413  -0.159374
    10  C   -0.001798   0.007100   0.060464  -0.077285  -0.068505   0.370551
    11  C    0.022953  -0.051800   0.330372  -0.104270  -0.070695   0.021391
    12  C   -0.051892   0.288983  -0.080259   0.012029  -0.001042   0.000137
    13  N   -0.075456   0.530817  -0.084273   0.014887  -0.001175   0.000470
    14  H    0.313407  -0.017942   0.017321  -0.002993   0.000096  -0.000039
    15  H    0.022300  -0.002308  -0.049122   0.435019  -0.060949   0.012042
    16  H   -0.000157  -0.000267   0.008314  -0.048480   0.416771  -0.031225
    17  H   -0.000005  -0.000183   0.008715  -0.000909   0.005952  -0.030383
    18  H    0.002161  -0.001793  -0.068377   0.002886  -0.001183   0.012373
    19  H    0.004781  -0.012273   0.011155   0.001928  -0.000057  -0.000109
    20  H    0.000853  -0.013613   0.007749  -0.000770   0.000067  -0.000022
    21  H    0.002924  -0.021944   0.007590  -0.007673   0.000286  -0.000029
    22  H   -0.002620  -0.024326   0.001240   0.002408  -0.000017  -0.000062
               7          8          9         10         11         12
     1  N   -0.000000  -0.000000   0.000000  -0.001798   0.022953  -0.051892
     2  S    0.000012  -0.000001  -0.000001   0.007100  -0.051800   0.288983
     3  C    0.000786   0.000741   0.000903   0.060464   0.330372  -0.080259
     4  C    0.002546  -0.001498   0.000203  -0.077285  -0.104270   0.012029
     5  C   -0.056242   0.021613   0.042413  -0.068505  -0.070695  -0.001042
     6  C    0.413218  -0.157883  -0.159374   0.370551   0.021391   0.000137
     7  N    5.404544   0.415698   0.418013  -0.051493   0.001825  -0.000002
     8  O    0.415698   8.084457  -0.119672   0.040684   0.000601  -0.000000
     9  O    0.418013  -0.119672   8.081633   0.021166  -0.001525  -0.000000
    10  C   -0.051493   0.040684   0.021166   5.188152   0.326233   0.000429
    11  C    0.001825   0.000601  -0.001525   0.326233   5.278128  -0.001874
    12  C   -0.000002  -0.000000  -0.000000   0.000429  -0.001874   5.147676
    13  N    0.000001  -0.000000  -0.000000  -0.001953   0.003480  -0.085148
    14  H   -0.000000   0.000000   0.000000   0.000100  -0.001076  -0.009297
    15  H   -0.000112   0.000003  -0.000084  -0.002656   0.009391   0.001571
    16  H   -0.007010   0.001119   0.020867   0.007223  -0.001077  -0.000005
    17  H   -0.006758   0.020946   0.001134   0.417798  -0.048670   0.000035
    18  H   -0.000145  -0.000064   0.000003  -0.056862   0.446746  -0.002668
    19  H    0.000001   0.000000   0.000000   0.000557  -0.010437   0.360970
    20  H   -0.000000   0.000000   0.000000   0.000052  -0.000172   0.373101
    21  H   -0.000000   0.000000   0.000000  -0.000259   0.004684   0.376324
    22  H    0.000000  -0.000000   0.000000  -0.000014  -0.005439   0.013132
              13         14         15         16         17         18
     1  N   -0.075456   0.313407   0.022300  -0.000157  -0.000005   0.002161
     2  S    0.530817  -0.017942  -0.002308  -0.000267  -0.000183  -0.001793
     3  C   -0.084273   0.017321  -0.049122   0.008314   0.008715  -0.068377
     4  C    0.014887  -0.002993   0.435019  -0.048480  -0.000909   0.002886
     5  C   -0.001175   0.000096  -0.060949   0.416771   0.005952  -0.001183
     6  C    0.000470  -0.000039   0.012042  -0.031225  -0.030383   0.012373
     7  N    0.000001  -0.000000  -0.000112  -0.007010  -0.006758  -0.000145
     8  O   -0.000000   0.000000   0.000003   0.001119   0.020946  -0.000064
     9  O   -0.000000   0.000000  -0.000084   0.020867   0.001134   0.000003
    10  C   -0.001953   0.000100  -0.002656   0.007223   0.417798  -0.056862
    11  C    0.003480  -0.001076   0.009391  -0.001077  -0.048670   0.446746
    12  C   -0.085148  -0.009297   0.001571  -0.000005   0.000035  -0.002668
    13  N    6.902540  -0.000965   0.000830   0.000001  -0.000017   0.020874
    14  H   -0.000965   0.480871  -0.001342   0.000000  -0.000000  -0.000071
    15  H    0.000830  -0.001342   0.471615  -0.005823   0.000042  -0.000249
    16  H    0.000001   0.000000  -0.005823   0.470505  -0.000220   0.000065
    17  H   -0.000017  -0.000000   0.000042  -0.000220   0.468361  -0.005732
    18  H    0.020874  -0.000071  -0.000249   0.000065  -0.005732   0.485382
    19  H    0.002540   0.000190  -0.000144   0.000003   0.000010  -0.000615
    20  H    0.004952   0.001970  -0.000103  -0.000000  -0.000001  -0.000098
    21  H    0.005486   0.000059   0.000237  -0.000003  -0.000004   0.000341
    22  H    0.313516  -0.000277   0.000020  -0.000000   0.000012  -0.002923
              19         20         21         22
     1  N    0.004781   0.000853   0.002924  -0.002620
     2  S   -0.012273  -0.013613  -0.021944  -0.024326
     3  C    0.011155   0.007749   0.007590   0.001240
     4  C    0.001928  -0.000770  -0.007673   0.002408
     5  C   -0.000057   0.000067   0.000286  -0.000017
     6  C   -0.000109  -0.000022  -0.000029  -0.000062
     7  N    0.000001  -0.000000  -0.000000   0.000000
     8  O    0.000000   0.000000   0.000000  -0.000000
     9  O    0.000000   0.000000   0.000000   0.000000
    10  C    0.000557   0.000052  -0.000259  -0.000014
    11  C   -0.010437  -0.000172   0.004684  -0.005439
    12  C    0.360970   0.373101   0.376324   0.013132
    13  N    0.002540   0.004952   0.005486   0.313516
    14  H    0.000190   0.001970   0.000059  -0.000277
    15  H   -0.000144  -0.000103   0.000237   0.000020
    16  H    0.000003  -0.000000  -0.000003  -0.000000
    17  H    0.000010  -0.000001  -0.000004   0.000012
    18  H   -0.000615  -0.000098   0.000341  -0.002923
    19  H    0.511872  -0.010078  -0.017044  -0.000787
    20  H   -0.010078   0.494918  -0.013634  -0.000624
    21  H   -0.017044  -0.013634   0.507691  -0.000569
    22  H   -0.000787  -0.000624  -0.000569   0.485563
 Mulliken charges:
               1
     1  N   -0.549054
     2  S    0.454572
     3  C    0.118528
     4  C   -0.152044
     5  C   -0.169868
     6  C    0.077911
     7  N    0.465117
     8  O   -0.306746
     9  O   -0.305679
    10  C   -0.179684
    11  C   -0.148772
    12  C   -0.342199
    13  N   -0.551406
    14  H    0.219986
    15  H    0.169821
    16  H    0.169400
    17  H    0.169876
    18  H    0.169950
    19  H    0.157536
    20  H    0.155454
    21  H    0.155536
    22  H    0.221764
 Sum of Mulliken charges =  -0.00000
 Mulliken charges with hydrogens summed into heavy atoms:
               1
     1  N   -0.329068
     2  S    0.454572
     3  C    0.118528
     4  C    0.017777
     5  C   -0.000468
     6  C    0.077911
     7  N    0.465117
     8  O   -0.306746
     9  O   -0.305679
    10  C   -0.009809
    11  C    0.021179
    12  C    0.126327
    13  N   -0.329642
 Electronic spatial extent (au):  <R**2>=           3314.5770
 Charge=             -0.0000 electrons
 Dipole moment (field-independent basis, Debye):
    X=              3.1747    Y=             -0.0184    Z=              1.5247  Tot=              3.5219
 Quadrupole moment (field-independent basis, Debye-Ang):
   XX=           -100.5987   YY=            -84.6856   ZZ=            -79.0347
   XY=              2.2407   XZ=              4.9002   YZ=              0.8650
 Traceless Quadrupole moment (field-independent basis, Debye-Ang):
   XX=            -12.4923   YY=              3.4207   ZZ=              9.0716
   XY=              2.2407   XZ=              4.9002   YZ=              0.8650
 Octapole moment (field-independent basis, Debye-Ang**2):
  XXX=             98.3120  YYY=              0.2978  ZZZ=             -0.9050  XYY=            -17.8792
  XXY=             21.3170  XXZ=             10.2484  XZZ=              4.6492  YZZ=             -5.5369
  YYZ=              3.1345  XYZ=             -0.0382
 Hexadecapole moment (field-independent basis, Debye-Ang**3):
 XXXX=          -3738.6277 YYYY=           -561.8665 ZZZZ=           -246.0875 XXXY=            104.3591
 XXXZ=             39.2883 YYYX=              7.7201 YYYZ=              1.7933 ZZZX=             -9.6400
 ZZZY=             11.6289 XXYY=           -735.2857 XXZZ=           -550.8193 YYZZ=           -140.8110
 XXYZ=            -12.3480 YYXZ=              6.5190 ZZXY=            -12.8560
 N-N= 8.996615170292D+02 E-N=-4.113497655305D+03  KE= 9.808920670695D+02
 Breneman (CHELPG) radii used.
 Read replacement radii for each type of atom:
 Atom Element Radius
    1     7    1.70
    2    16    2.00
    3     6    1.50
    4     6    1.50
    5     6    1.50
    6     6    1.50
    7     7    1.70
    8     8    1.70
    9     8    1.70
   10     6    1.50
   11     6    1.50
   12     6    1.50
   13     7    1.70
   14     1    1.45
   15     1    1.45
   16     1    1.45
   17     1    1.45
   18     1    1.45
   19     1    1.45
   20     1    1.45
   21     1    1.45
   22     1    1.45
 Generate Potential Derived Charges using the Breneman model, NDens= 1.
 Grid spacing= 0.300 Box extension= 2.800
 NStep X,Y,Z=   47     35     33   Total possible points=       54285
 Number of Points to Fit=   14528

 **********************************************************************

            Electrostatic Properties Using The SCF Density.

 **********************************************************************

       Atomic Center    1 is at   2.824340  1.475017 -0.589019
       Atomic Center    2 is at   2.525103  0.027889 -0.130688
       Atomic Center    3 is at   0.718942  0.064564 -0.074211
       Atomic Center    4 is at   0.019155  1.268312 -0.021354
       Atomic Center    5 is at  -1.371187  1.235801  0.011103
       Atomic Center    6 is at  -2.012351  0.000738 -0.012618
       Atomic Center    7 is at  -3.484341 -0.032698  0.025164
       Atomic Center    8 is at  -4.015501 -1.119533 -0.002286
       Atomic Center    9 is at  -4.062467  1.028452  0.082822
       Atomic Center   10 is at  -1.320019 -1.203938 -0.078700
       Atomic Center   11 is at   0.069969 -1.167208 -0.114387
       Atomic Center   12 is at   2.904967 -0.280057  1.598905
       Atomic Center   13 is at   3.083892 -1.264874 -0.776790
       Atomic Center   14 is at   3.836054  1.570981 -0.704562
       Atomic Center   15 is at   0.578415  2.205179 -0.026965
       Atomic Center   16 is at  -1.970548  2.145490  0.050679
       Atomic Center   17 is at  -1.878247 -2.139631 -0.107944
       Atomic Center   18 is at   0.666004 -2.080638 -0.193086
       Atomic Center   19 is at   2.487140 -1.245663  1.908046
       Atomic Center   20 is at   4.001182 -0.305725  1.661122
       Atomic Center   21 is at   2.493361  0.551368  2.183835
       Atomic Center   22 is at   2.984639 -1.170317 -1.792336
   14528 points will be used for fitting atomic charges
 Fitting point charges to electrostatic potential
 Charges from ESP fit, RMS=   0.00306 RRMS=   0.18330:
 ESP charges:
               1
     1  N   -0.782809
     2  S    0.644552
     3  C    0.118197
     4  C   -0.085408
     5  C   -0.151043
     6  C    0.059376
     7  N    0.650020
     8  O   -0.395528
     9  O   -0.391138
    10  C   -0.123837
    11  C   -0.124349
    12  C   -0.276035
    13  N   -0.737667
    14  H    0.357314
    15  H    0.144268
    16  H    0.143527
    17  H    0.137863
    18  H    0.134745
    19  H    0.113532
    20  H    0.155167
    21  H    0.089557
    22  H    0.319694
 Sum of ESP charges =   0.00000
 ESP charges with hydrogens summed into heavy atoms:
               1
     1  N   -0.425495
     2  S    0.644552
     3  C    0.118197
     4  C    0.058861
     5  C   -0.007516
     6  C    0.059376
     7  N    0.650020
     8  O   -0.395528
     9  O   -0.391138
    10  C    0.014027
    11  C    0.010396
    12  C    0.082222
    13  N   -0.417973
 Charge=   0.00000 Dipole=     3.1737    -0.0080     1.5162 Tot=     3.5173
 -----------------------------------------------------------------

              Electrostatic Properties (Atomic Units)

 -----------------------------------------------------------------
    Center     Electric         -------- Electric Field --------
               Potential          X             Y             Z
 -----------------------------------------------------------------
    1 Atom    -18.410584
    2 Atom    -59.058775
    3 Atom    -14.705370
    4 Atom    -14.722981
    5 Atom    -14.720267
    6 Atom    -14.683902
    7 Atom    -18.128838
    8 Atom    -22.314633
    9 Atom    -22.314580
   10 Atom    -14.719138
   11 Atom    -14.720570
   12 Atom    -14.722265
   13 Atom    -18.411459
   14 Atom     -1.034320
   15 Atom     -1.072417
   16 Atom     -1.064720
   17 Atom     -1.063371
   18 Atom     -1.065596
   19 Atom     -1.063475
   20 Atom     -1.061473
   21 Atom     -1.064578
   22 Atom     -1.037667
 -----------------------------------------------------------------
 Unable to Open any file for archive entry.
 1\1\GINC-NOTCH235\SP\RPBE1PBE\def2TZVP\C7H9N3O2S1\U1414944\07-Jun-2025
 \0\\#N Guess=Read Geom=Check Integral(Ultrafine) Density Pop=(ChelpG,R
 eadRadii) NMR pbe1pbe EmpiricalDispersion=GD3BJ def2TZVP\\SDI0028_2\\0
 ,1\N,0,-2.9154567702,0.6890661144,1.3561202245\S,0,-2.5885332556,-0.08
 28380409,0.0557065962\C,0,-0.7827248959,-0.0081172191,0.0706276713\C,0
 ,-0.1018550378,0.9283690058,0.8458147328\C,0,1.2890814672,0.9332563159
 ,0.8250455117\C,0,1.9497155331,0.0000697715,0.0314714374\N,0,3.4223532
 884,0.0082564791,0.0075907068\O,0,3.9705877171,-0.8174932394,-0.686436
 0493\O,0,3.9839184357,0.8409684669,0.6820000039\C,0,1.2761840823,-0.94
 58810897,-0.7343393482\C,0,-0.114498209,-0.9497744003,-0.7083456064\C,
 0,-2.9463330978,0.8381083189,-1.4457781555\N,0,-3.1328512416,-1.480267
 8567,-0.3339561234\H,0,-3.9296711499,0.6781618234,1.4879386968\H,0,-0.
 6761043582,1.6201225186,1.4640692305\H,0,1.8741300289,1.6411073334,1.4
 124128551\H,0,1.8490394621,-1.6599923365,-1.3258445848\H,0,-0.69654730
 02,-1.6864666396,-1.2689774054\H,0,-2.5100377093,0.3264364772,-2.31202
 27728\H,0,-4.0413280326,0.8545199711,-1.5290440574\H,0,-2.5423732958,1
 .8500156762,-1.3205200337\H,0,-3.0451479046,-2.0859880947,0.4879544128
 \\Version=ES64L-G16RevC.01\State=1-A\HF=-984.3327252\RMSD=1.853e-09\Di
 pole=-1.2427643,0.3876173,-0.4745917\Quadrupole=-9.3017322,5.0080747,4
 .2936575,-3.7076079,1.3734049,-2.2179691\PG=C01 [X(C7H9N3O2S1)]\\@
 The archive entry for this job was punched.


 FOR THE NATURE OF THE CHEMICAL BOND
 IS THE PROBLEM AT THE HEART OF ALL CHEMISTRY.

                     -- BRYCE CRAWFORD, JR., 1953
 Job cpu time:       0 days  0 hours 20 minutes 45.7 seconds.
 Elapsed time:       0 days  0 hours  1 minutes 24.5 seconds.
 File lengths (MBytes):  RWF=    138 Int=      0 D2E=      0 Chk=     20 Scr=      2
 Normal termination of Gaussian 16 at Sat Jun  7 21:15:59 2025.
