 Entering Gaussian System, Link 0=g16
 Input=SDI0125_1.com
 Output=SDI0125_1.log
 Initial command:
 /uufs/chpc.utah.edu/sys/installdir/gaussian16/C01/AVX/g16/l1.exe "/scratch/general/vast/u1414944/3119878-notchpeak.peaks/Gau-783148.inp" -scrdir="/scratch/general/vast/u1414944/3119878-notchpeak.peaks/"
 Entering Link 1 = /uufs/chpc.utah.edu/sys/installdir/gaussian16/C01/AVX/g16/l1.exe PID=    783149.
  
 Copyright (c) 1988-2019, Gaussian, Inc.  All Rights Reserved.
  
 This is part of the Gaussian(R) 16 program.  It is based on
 the Gaussian(R) 09 system (copyright 2009, Gaussian, Inc.),
 the Gaussian(R) 03 system (copyright 2003, Gaussian, Inc.),
 the Gaussian(R) 98 system (copyright 1998, Gaussian, Inc.),
 the Gaussian(R) 94 system (copyright 1995, Gaussian, Inc.),
 the Gaussian 92(TM) system (copyright 1992, Gaussian, Inc.),
 the Gaussian 90(TM) system (copyright 1990, Gaussian, Inc.),
 the Gaussian 88(TM) system (copyright 1988, Gaussian, Inc.),
 the Gaussian 86(TM) system (copyright 1986, Carnegie Mellon
 University), and the Gaussian 82(TM) system (copyright 1983,
 Carnegie Mellon University). Gaussian is a federally registered
 trademark of Gaussian, Inc.
  
 This software contains proprietary and confidential information,
 including trade secrets, belonging to Gaussian, Inc.
  
 This software is provided under written license and may be
 used, copied, transmitted, or stored only in accord with that
 written license.
  
 The following legend is applicable only to US Government
 contracts under FAR:
  
                    RESTRICTED RIGHTS LEGEND
  
 Use, reproduction and disclosure by the US Government is
 subject to restrictions as set forth in subparagraphs (a)
 and (c) of the Commercial Computer Software - Restricted
 Rights clause in FAR 52.227-19.
  
 Gaussian, Inc.
 340 Quinnipiac St., Bldg. 40, Wallingford CT 06492
  
  
 ---------------------------------------------------------------
 Warning -- This program may not be used in any manner that
 competes with the business of Gaussian, Inc. or will provide
 assistance to any competitor of Gaussian, Inc.  The licensee
 of this program is prohibited from giving any competitor of
 Gaussian, Inc. access to this program.  By using this program,
 the user acknowledges that Gaussian, Inc. is engaged in the
 business of creating and licensing software in the field of
 computational chemistry and represents and warrants to the
 licensee that it is not a competitor of Gaussian, Inc. and that
 it will not use this program in any manner prohibited above.
 ---------------------------------------------------------------
  

 Cite this work as:
 Gaussian 16, Revision C.01,
 M. J. Frisch, G. W. Trucks, H. B. Schlegel, G. E. Scuseria, 
 M. A. Robb, J. R. Cheeseman, G. Scalmani, V. Barone, 
 G. A. Petersson, H. Nakatsuji, X. Li, M. Caricato, A. V. Marenich, 
 J. Bloino, B. G. Janesko, R. Gomperts, B. Mennucci, H. P. Hratchian, 
 J. V. Ortiz, A. F. Izmaylov, J. L. Sonnenberg, D. Williams-Young, 
 F. Ding, F. Lipparini, F. Egidi, J. Goings, B. Peng, A. Petrone, 
 T. Henderson, D. Ranasinghe, V. G. Zakrzewski, J. Gao, N. Rega, 
 G. Zheng, W. Liang, M. Hada, M. Ehara, K. Toyota, R. Fukuda, 
 J. Hasegawa, M. Ishida, T. Nakajima, Y. Honda, O. Kitao, H. Nakai, 
 T. Vreven, K. Throssell, J. A. Montgomery, Jr., J. E. Peralta, 
 F. Ogliaro, M. J. Bearpark, J. J. Heyd, E. N. Brothers, K. N. Kudin, 
 V. N. Staroverov, T. A. Keith, R. Kobayashi, J. Normand, 
 K. Raghavachari, A. P. Rendell, J. C. Burant, S. S. Iyengar, 
 J. Tomasi, M. Cossi, J. M. Millam, M. Klene, C. Adamo, R. Cammi, 
 J. W. Ochterski, R. L. Martin, K. Morokuma, O. Farkas, 
 J. B. Foresman, and D. J. Fox, Gaussian, Inc., Wallingford CT, 2019.
 
 ******************************************
 Gaussian 16:  ES64L-G16RevC.01  3-Jul-2019
                10-Feb-2025 
 ******************************************
 %NProcShared=16
 Will use up to   16 processors via shared memory.
 %Mem=40GB
 %chk=SDI0125_1.chk
 ----------------------------------------------------------------------
 #N OPT FREQ=NORAMAN Integral(Ultrafine) pbe1pbe EmpiricalDispersion=GD
 3BJ def2SVP
 ----------------------------------------------------------------------
 1/18=20,19=15,26=4,38=1/1,3;
 2/9=110,12=2,17=6,18=5,40=1/2;
 3/5=43,7=101,11=2,25=1,30=1,71=1,74=-13,75=-5,124=41/1,2,3;
 4//1;
 5/5=2,38=5/2;
 6/7=2,8=2,9=2,10=2,28=1/1;
 7//1,2,3,16;
 1/18=20,19=15,26=4/3(2);
 2/9=110/2;
 99//99;
 2/9=110/2;
 3/5=43,7=101,11=2,25=1,30=1,71=1,74=-13,75=-5,124=41/1,2,3;
 4/5=5,16=3,69=1/1;
 5/5=2,38=5/2;
 7//1,2,3,16;
 1/18=20,19=15,26=4/3(-5);
 2/9=110/2;
 6/7=2,8=2,9=2,10=2,19=2,28=1/1;
 99/9=1/99;
 ---------
 SDI0125_1
 ---------
 Symbolic Z-matrix:
 Charge =  0 Multiplicity = 1
 N                    -0.15718  -2.23355  -1.23741 
 S                     0.05873  -1.39138   0.03395 
 C                    -1.34718  -0.24934  -0.03181 
 C                    -2.24354  -0.39651  -1.07376 
 C                    -3.34341   0.43727  -1.16245 
 C                    -3.53927   1.40916  -0.19475 
 C                    -2.64074   1.54262   0.84872 
 C                    -1.52476   0.71762   0.95182 
 C                    -0.55438   0.88516   2.07671 
 C                     1.42788  -0.22315  -0.13941 
 C                     2.47444  -0.21643   0.76158 
 C                     3.52305   0.66829   0.57259 
 C                     3.5148    1.52964  -0.513 
 C                     2.46317   1.50786  -1.41648 
 C                     1.41418   0.62394  -1.23217 
 N                     0.33114  -2.01645   1.41927 
 H                     0.42625  -3.0535   -1.27715 
 H                    -2.04971  -1.17185  -1.79753 
 H                    -4.04274   0.32802  -1.97741 
 H                    -4.3965    2.06403  -0.25096 
 H                    -2.80316   2.2996    1.60276 
 H                    -1.03588   1.36106   2.92806 
 H                     0.27874   1.51448   1.76053 
 H                    -0.15062  -0.08003   2.37439 
 H                     2.44094  -0.89972   1.59502 
 H                     4.34607   0.68575   1.27145 
 H                     4.33286   2.21973  -0.65853 
 H                     2.46248   2.17765  -2.26349 
 H                     0.58656   0.57869  -1.92418 
 H                    -0.20307  -2.85261   1.59269 
 

 GradGradGradGradGradGradGradGradGradGradGradGradGradGradGradGradGradGrad
 Berny optimization.
 Initialization pass.
                           ----------------------------
                           !    Initial Parameters    !
                           ! (Angstroms and Degrees)  !
 --------------------------                            --------------------------
 ! Name  Definition              Value          Derivative Info.                !
 --------------------------------------------------------------------------------
 ! R1    R(1,2)                  1.5402         estimate D2E/DX2                !
 ! R2    R(1,17)                 1.0071         estimate D2E/DX2                !
 ! R3    R(2,3)                  1.8125         estimate D2E/DX2                !
 ! R4    R(2,10)                 1.8082         estimate D2E/DX2                !
 ! R5    R(2,16)                 1.544          estimate D2E/DX2                !
 ! R6    R(3,4)                  1.3823         estimate D2E/DX2                !
 ! R7    R(3,8)                  1.3907         estimate D2E/DX2                !
 ! R8    R(4,5)                  1.383          estimate D2E/DX2                !
 ! R9    R(4,18)                 1.0782         estimate D2E/DX2                !
 ! R10   R(5,6)                  1.3854         estimate D2E/DX2                !
 ! R11   R(5,19)                 1.0794         estimate D2E/DX2                !
 ! R12   R(6,7)                  1.3835         estimate D2E/DX2                !
 ! R13   R(6,20)                 1.0802         estimate D2E/DX2                !
 ! R14   R(7,8)                  1.3916         estimate D2E/DX2                !
 ! R15   R(7,21)                 1.0807         estimate D2E/DX2                !
 ! R16   R(8,9)                  1.495          estimate D2E/DX2                !
 ! R17   R(9,22)                 1.0877         estimate D2E/DX2                !
 ! R18   R(9,23)                 1.0909         estimate D2E/DX2                !
 ! R19   R(9,24)                 1.0878         estimate D2E/DX2                !
 ! R20   R(10,11)                1.381          estimate D2E/DX2                !
 ! R21   R(10,15)                1.3827         estimate D2E/DX2                !
 ! R22   R(11,12)                1.3849         estimate D2E/DX2                !
 ! R23   R(11,25)                1.0783         estimate D2E/DX2                !
 ! R24   R(12,13)                1.3858         estimate D2E/DX2                !
 ! R25   R(12,26)                1.0798         estimate D2E/DX2                !
 ! R26   R(13,14)                1.3866         estimate D2E/DX2                !
 ! R27   R(13,27)                1.0801         estimate D2E/DX2                !
 ! R28   R(14,15)                1.3841         estimate D2E/DX2                !
 ! R29   R(14,28)                1.0798         estimate D2E/DX2                !
 ! R30   R(15,29)                1.0798         estimate D2E/DX2                !
 ! R31   R(16,30)                1.0073         estimate D2E/DX2                !
 ! A1    A(2,1,17)             113.3621         estimate D2E/DX2                !
 ! A2    A(1,2,3)              101.8794         estimate D2E/DX2                !
 ! A3    A(1,2,10)             112.3513         estimate D2E/DX2                !
 ! A4    A(1,2,16)             122.9546         estimate D2E/DX2                !
 ! A5    A(3,2,10)             100.1819         estimate D2E/DX2                !
 ! A6    A(3,2,16)             115.1178         estimate D2E/DX2                !
 ! A7    A(10,2,16)            102.3558         estimate D2E/DX2                !
 ! A8    A(2,3,4)              117.597          estimate D2E/DX2                !
 ! A9    A(2,3,8)              120.7631         estimate D2E/DX2                !
 ! A10   A(4,3,8)              121.6249         estimate D2E/DX2                !
 ! A11   A(3,4,5)              119.9897         estimate D2E/DX2                !
 ! A12   A(3,4,18)             117.7727         estimate D2E/DX2                !
 ! A13   A(5,4,18)             122.2375         estimate D2E/DX2                !
 ! A14   A(4,5,6)              119.3768         estimate D2E/DX2                !
 ! A15   A(4,5,19)             120.174          estimate D2E/DX2                !
 ! A16   A(6,5,19)             120.4489         estimate D2E/DX2                !
 ! A17   A(5,6,7)              120.1782         estimate D2E/DX2                !
 ! A18   A(5,6,20)             120.0749         estimate D2E/DX2                !
 ! A19   A(7,6,20)             119.7467         estimate D2E/DX2                !
 ! A20   A(6,7,8)              121.2991         estimate D2E/DX2                !
 ! A21   A(6,7,21)             119.7492         estimate D2E/DX2                !
 ! A22   A(8,7,21)             118.9516         estimate D2E/DX2                !
 ! A23   A(3,8,7)              117.5287         estimate D2E/DX2                !
 ! A24   A(3,8,9)              121.8177         estimate D2E/DX2                !
 ! A25   A(7,8,9)              120.651          estimate D2E/DX2                !
 ! A26   A(8,9,22)             110.5253         estimate D2E/DX2                !
 ! A27   A(8,9,23)             110.0147         estimate D2E/DX2                !
 ! A28   A(8,9,24)             110.3276         estimate D2E/DX2                !
 ! A29   A(22,9,23)            108.2117         estimate D2E/DX2                !
 ! A30   A(22,9,24)            109.7763         estimate D2E/DX2                !
 ! A31   A(23,9,24)            107.9214         estimate D2E/DX2                !
 ! A32   A(2,10,11)            120.9599         estimate D2E/DX2                !
 ! A33   A(2,10,15)            117.6509         estimate D2E/DX2                !
 ! A34   A(11,10,15)           121.342          estimate D2E/DX2                !
 ! A35   A(10,11,12)           119.2011         estimate D2E/DX2                !
 ! A36   A(10,11,25)           118.5332         estimate D2E/DX2                !
 ! A37   A(12,11,25)           122.2643         estimate D2E/DX2                !
 ! A38   A(11,12,13)           119.9635         estimate D2E/DX2                !
 ! A39   A(11,12,26)           119.94           estimate D2E/DX2                !
 ! A40   A(13,12,26)           120.0965         estimate D2E/DX2                !
 ! A41   A(12,13,14)           120.3426         estimate D2E/DX2                !
 ! A42   A(12,13,27)           119.8774         estimate D2E/DX2                !
 ! A43   A(14,13,27)           119.7797         estimate D2E/DX2                !
 ! A44   A(13,14,15)           119.8724         estimate D2E/DX2                !
 ! A45   A(13,14,28)           120.1211         estimate D2E/DX2                !
 ! A46   A(15,14,28)           120.0065         estimate D2E/DX2                !
 ! A47   A(10,15,14)           119.2735         estimate D2E/DX2                !
 ! A48   A(10,15,29)           119.2367         estimate D2E/DX2                !
 ! A49   A(14,15,29)           121.4895         estimate D2E/DX2                !
 ! A50   A(2,16,30)            113.3882         estimate D2E/DX2                !
 ! D1    D(17,1,2,3)          -168.1728         estimate D2E/DX2                !
 ! D2    D(17,1,2,10)           85.4589         estimate D2E/DX2                !
 ! D3    D(17,1,2,16)          -37.3805         estimate D2E/DX2                !
 ! D4    D(1,2,3,4)              2.0798         estimate D2E/DX2                !
 ! D5    D(1,2,3,8)           -179.3016         estimate D2E/DX2                !
 ! D6    D(10,2,3,4)           117.7129         estimate D2E/DX2                !
 ! D7    D(10,2,3,8)           -63.6685         estimate D2E/DX2                !
 ! D8    D(16,2,3,4)          -133.3632         estimate D2E/DX2                !
 ! D9    D(16,2,3,8)            45.2553         estimate D2E/DX2                !
 ! D10   D(1,2,10,11)         -124.7272         estimate D2E/DX2                !
 ! D11   D(1,2,10,15)           52.8055         estimate D2E/DX2                !
 ! D12   D(3,2,10,11)          127.8161         estimate D2E/DX2                !
 ! D13   D(3,2,10,15)          -54.6512         estimate D2E/DX2                !
 ! D14   D(16,2,10,11)           9.0757         estimate D2E/DX2                !
 ! D15   D(16,2,10,15)        -173.3916         estimate D2E/DX2                !
 ! D16   D(1,2,16,30)          -38.5803         estimate D2E/DX2                !
 ! D17   D(3,2,16,30)           86.5102         estimate D2E/DX2                !
 ! D18   D(10,2,16,30)        -165.8782         estimate D2E/DX2                !
 ! D19   D(2,3,4,5)            179.1803         estimate D2E/DX2                !
 ! D20   D(2,3,4,18)            -0.8951         estimate D2E/DX2                !
 ! D21   D(8,3,4,5)              0.5744         estimate D2E/DX2                !
 ! D22   D(8,3,4,18)          -179.501          estimate D2E/DX2                !
 ! D23   D(2,3,8,7)           -178.8253         estimate D2E/DX2                !
 ! D24   D(2,3,8,9)              1.7562         estimate D2E/DX2                !
 ! D25   D(4,3,8,7)             -0.2631         estimate D2E/DX2                !
 ! D26   D(4,3,8,9)           -179.6816         estimate D2E/DX2                !
 ! D27   D(3,4,5,6)             -0.4594         estimate D2E/DX2                !
 ! D28   D(3,4,5,19)           179.7113         estimate D2E/DX2                !
 ! D29   D(18,4,5,6)           179.6195         estimate D2E/DX2                !
 ! D30   D(18,4,5,19)           -0.2098         estimate D2E/DX2                !
 ! D31   D(4,5,6,7)              0.0507         estimate D2E/DX2                !
 ! D32   D(4,5,6,20)          -179.7703         estimate D2E/DX2                !
 ! D33   D(19,5,6,7)           179.8795         estimate D2E/DX2                !
 ! D34   D(19,5,6,20)            0.0585         estimate D2E/DX2                !
 ! D35   D(5,6,7,8)              0.26           estimate D2E/DX2                !
 ! D36   D(5,6,7,21)          -179.6669         estimate D2E/DX2                !
 ! D37   D(20,6,7,8)          -179.9184         estimate D2E/DX2                !
 ! D38   D(20,6,7,21)            0.1547         estimate D2E/DX2                !
 ! D39   D(6,7,8,3)             -0.1541         estimate D2E/DX2                !
 ! D40   D(6,7,8,9)            179.2716         estimate D2E/DX2                !
 ! D41   D(21,7,8,3)           179.7734         estimate D2E/DX2                !
 ! D42   D(21,7,8,9)            -0.8009         estimate D2E/DX2                !
 ! D43   D(3,8,9,22)          -156.4435         estimate D2E/DX2                !
 ! D44   D(3,8,9,23)            84.1148         estimate D2E/DX2                !
 ! D45   D(3,8,9,24)           -34.8443         estimate D2E/DX2                !
 ! D46   D(7,8,9,22)            24.1559         estimate D2E/DX2                !
 ! D47   D(7,8,9,23)           -95.2858         estimate D2E/DX2                !
 ! D48   D(7,8,9,24)           145.7551         estimate D2E/DX2                !
 ! D49   D(2,10,11,12)         178.176          estimate D2E/DX2                !
 ! D50   D(2,10,11,25)          -2.2529         estimate D2E/DX2                !
 ! D51   D(15,10,11,12)          0.7349         estimate D2E/DX2                !
 ! D52   D(15,10,11,25)       -179.694          estimate D2E/DX2                !
 ! D53   D(2,10,15,14)        -178.3449         estimate D2E/DX2                !
 ! D54   D(2,10,15,29)           1.4703         estimate D2E/DX2                !
 ! D55   D(11,10,15,14)         -0.8222         estimate D2E/DX2                !
 ! D56   D(11,10,15,29)        178.9931         estimate D2E/DX2                !
 ! D57   D(10,11,12,13)         -0.193          estimate D2E/DX2                !
 ! D58   D(10,11,12,26)        179.8159         estimate D2E/DX2                !
 ! D59   D(25,11,12,13)       -179.7474         estimate D2E/DX2                !
 ! D60   D(25,11,12,26)          0.2615         estimate D2E/DX2                !
 ! D61   D(11,12,13,14)         -0.2485         estimate D2E/DX2                !
 ! D62   D(11,12,13,27)        179.9402         estimate D2E/DX2                !
 ! D63   D(26,12,13,14)        179.7425         estimate D2E/DX2                !
 ! D64   D(26,12,13,27)         -0.0687         estimate D2E/DX2                !
 ! D65   D(12,13,14,15)          0.1609         estimate D2E/DX2                !
 ! D66   D(12,13,14,28)       -179.7348         estimate D2E/DX2                !
 ! D67   D(27,13,14,15)        179.9724         estimate D2E/DX2                !
 ! D68   D(27,13,14,28)          0.0767         estimate D2E/DX2                !
 ! D69   D(13,14,15,10)          0.366          estimate D2E/DX2                !
 ! D70   D(13,14,15,29)       -179.4449         estimate D2E/DX2                !
 ! D71   D(28,14,15,10)       -179.7382         estimate D2E/DX2                !
 ! D72   D(28,14,15,29)          0.4509         estimate D2E/DX2                !
 --------------------------------------------------------------------------------
 Trust Radius=3.00D-01 FncErr=1.00D-07 GrdErr=1.00D-06 EigMax=2.50D+02 EigMin=1.00D-04
 Number of steps in this run=    163 maximum allowed number of steps=    180.
 GradGradGradGradGradGradGradGradGradGradGradGradGradGradGradGradGradGrad

                          Input orientation:                          
 ---------------------------------------------------------------------
 Center     Atomic      Atomic             Coordinates (Angstroms)
 Number     Number       Type             X           Y           Z
 ---------------------------------------------------------------------
      1          7           0       -0.157176   -2.233554   -1.237410
      2         16           0        0.058725   -1.391383    0.033947
      3          6           0       -1.347182   -0.249342   -0.031806
      4          6           0       -2.243540   -0.396506   -1.073756
      5          6           0       -3.343411    0.437271   -1.162447
      6          6           0       -3.539265    1.409159   -0.194750
      7          6           0       -2.640736    1.542623    0.848724
      8          6           0       -1.524763    0.717616    0.951823
      9          6           0       -0.554377    0.885163    2.076715
     10          6           0        1.427883   -0.223149   -0.139406
     11          6           0        2.474440   -0.216427    0.761585
     12          6           0        3.523049    0.668287    0.572588
     13          6           0        3.514800    1.529637   -0.513003
     14          6           0        2.463172    1.507860   -1.416481
     15          6           0        1.414183    0.623941   -1.232172
     16          7           0        0.331138   -2.016454    1.419266
     17          1           0        0.426254   -3.053500   -1.277152
     18          1           0       -2.049708   -1.171849   -1.797528
     19          1           0       -4.042743    0.328017   -1.977406
     20          1           0       -4.396496    2.064029   -0.250956
     21          1           0       -2.803162    2.299600    1.602764
     22          1           0       -1.035882    1.361061    2.928064
     23          1           0        0.278743    1.514477    1.760527
     24          1           0       -0.150618   -0.080032    2.374385
     25          1           0        2.440942   -0.899719    1.595023
     26          1           0        4.346066    0.685755    1.271445
     27          1           0        4.332861    2.219730   -0.658526
     28          1           0        2.462484    2.177649   -2.263486
     29          1           0        0.586559    0.578688   -1.924180
     30          1           0       -0.203073   -2.852612    1.592689
 ---------------------------------------------------------------------
                    Distance matrix (angstroms):
                    1          2          3          4          5
     1  N    0.000000
     2  S    1.540199   0.000000
     3  C    2.608963   1.812500   0.000000
     4  C    2.784680   2.741754   1.382308   0.000000
     5  C    4.158247   4.043497   2.394727   1.383027   0.000000
     6  C    5.078880   4.565180   2.753617   2.389975   1.385411
     7  C    4.977905   4.069318   2.379025   2.759333   2.400076
     8  C    3.920770   2.792456   1.390709   2.420925   2.802893
     9  C    4.568105   3.119528   2.522202   3.797554   4.297847
    10  C    2.785633   1.808152   2.777273   3.792415   4.924227
    11  C    3.871716   2.783102   3.903248   5.065594   6.162517
    12  C    5.024026   4.066192   4.992643   6.090796   7.086042
    13  C    5.307521   4.558066   5.199536   6.097782   6.974962
    14  C    4.571265   4.036176   4.418583   5.088929   5.909915
    15  C    3.261054   2.738951   3.135065   3.800703   4.761765
    16  N    2.709891   1.544031   2.836380   3.932984   5.117453
    17  H    1.007116   2.148649   3.543905   3.772107   5.138970
    18  H    2.241122   2.801426   2.112424   1.078227   2.160153
    19  H    4.712417   4.880975   3.374130   2.139777   1.079426
    20  H    6.116711   5.645356   3.833802   3.371417   2.141529
    21  H    5.968025   4.926961   3.359882   3.840042   3.377356
    22  H    5.571764   4.141259   3.383953   4.534539   4.786477
    23  H    4.819272   3.387257   2.994520   4.248168   4.777463
    24  H    4.205088   2.690932   2.692617   4.046005   4.792777
    25  H    4.068417   2.890269   4.173661   5.414793   6.545986
    26  H    5.924180   4.922113   5.914891   7.077723   8.069302
    27  H    6.350376   5.638075   6.225109   7.089863   7.896598
    28  H    5.232032   4.877935   5.038277   5.494397   6.160327
    29  H    2.988896   2.827375   2.829499   3.111861   4.005608
    30  H    2.897379   2.152535   3.274902   4.160036   5.317502
                    6          7          8          9         10
     6  C    0.000000
     7  C    1.383476   0.000000
     8  C    2.418901   1.391640   0.000000
     9  C    3.787305   2.508607   1.495026   0.000000
    10  C    5.228771   4.544008   3.285412   3.173153   0.000000
    11  C    6.302520   5.409887   4.111235   3.480920   1.380982
    12  C    7.142408   6.231610   5.062278   4.351418   2.385648
    13  C    7.062268   6.304370   5.310582   4.866229   2.750828
    14  C    6.126305   5.584106   4.704994   4.657872   2.387286
    15  C    5.121471   4.649352   3.662788   3.859041   1.382709
    16  N    5.414785   4.671679   3.337366   3.104152   2.616916
    17  H    6.067311   5.920315   4.795427   5.265276   3.210703
    18  H    3.383678   3.836708   3.377066   4.634336   3.967750
    19  H    2.144812   3.380518   3.882318   5.377267   5.797394
    20  H    1.080213   2.136318   3.392102   4.644314   6.258356
    21  H    2.136771   1.080728   2.135580   2.698573   5.225051
    22  H    4.002650   2.632902   2.135077   1.087714   4.241371
    23  H    4.290849   3.058682   2.131108   1.090918   2.819505
    24  H    4.505672   3.340859   2.132651   1.087764   2.971749
    25  H    6.655606   5.687306   4.330854   3.519910   2.119500
    26  H    8.053042   7.051831   5.879609   4.970168   3.366363
    27  H    7.927326   7.166682   6.257901   5.757405   3.830932
    28  H    6.394626   6.010987   5.326166   5.441445   3.368375
    29  H    4.550058   4.362751   3.570486   4.171669   2.129832
    30  H    5.699808   5.080726   3.860583   3.785321   3.546019
                   11         12         13         14         15
    11  C    0.000000
    12  C    1.384926   0.000000
    13  C    2.399096   1.385820   0.000000
    14  C    2.777996   2.405123   1.386603   0.000000
    15  C    2.409446   2.776048   2.397933   1.384074   0.000000
    16  N    2.875132   4.255937   5.142385   5.000781   3.895484
    17  H    4.049753   5.182990   5.579264   4.997444   3.808096
    18  H    5.284866   6.329233   6.317577   5.262330   3.942465
    19  H    7.090287   7.991212   7.791330   6.635781   5.515522
    20  H    7.309958   8.083658   7.933653   6.980173   6.066353
    21  H    5.906866   6.613879   6.707157   6.121843   5.350766
    22  H    4.416386   5.178036   5.707719   5.580322   4.884028
    23  H    2.969007   3.557072   3.954899   3.855535   3.322428
    24  H    3.083936   4.159602   4.935922   4.870725   3.993925
    25  H    1.078253   2.162169   3.390975   3.855656   3.371766
    26  H    2.139362   1.079844   2.141821   3.383208   3.855886
    27  H    3.377174   2.139722   1.080106   2.139391   3.375544
    28  H    3.857823   3.383236   2.142774   1.079832   2.139288
    29  H    3.377815   3.855497   3.386786   2.154714   1.079761
    30  H    3.848283   5.226981   6.120508   5.931078   4.762539
                   16         17         18         19         20
    16  N    0.000000
    17  H    2.890533   0.000000
    18  H    4.090178   3.153061   0.000000
    19  H    6.013715   5.647739   2.500828   0.000000
    20  H    6.464558   7.106413   4.286048   2.473764   0.000000
    21  H    5.337213   6.883221   4.917382   4.270986   2.455704
    22  H    3.943707   6.269771   5.456620   5.845685   4.679109
    23  H    3.547771   5.487774   5.029691   5.835672   5.119173
    24  H    2.212255   4.744261   4.712056   5.852626   5.432946
    25  H    2.393588   4.116690   5.634661   7.503850   7.677370
    26  H    4.841841   5.986844   7.333159   9.003062   8.980520
    27  H    6.186781   6.591755   7.316921   8.687276   8.740254
    28  H    5.974596   5.699475   5.638806   6.769118   7.149042
    29  H    4.240122   3.692849   3.167069   4.636389   5.462303
    30  H    1.007282   2.944894   4.210535   6.132296   6.719910
                   21         22         23         24         25
    21  H    0.000000
    22  H    2.400116   0.000000
    23  H    3.184250   1.764913   0.000000
    24  H    3.646100   1.779607   1.761713   0.000000
    25  H    6.142991   4.356194   3.245125   2.827627   0.000000
    26  H    7.336602   5.671489   4.179605   4.692875   2.499585
    27  H    7.486164   6.513397   4.773371   5.881245   4.288216
    28  H    6.533743   6.313285   4.626143   5.782325   4.935459
    29  H    5.185661   5.175779   3.814120   4.410783   4.243727
    30  H    5.771123   4.497982   4.396793   2.881145   3.287038
                   26         27         28         29         30
    26  H    0.000000
    27  H    2.465369   0.000000
    28  H    4.274268   2.464950   0.000000
    29  H    4.935320   4.281318   2.488152   0.000000
    30  H    5.772166   7.167379   6.875959   4.976516   0.000000
 Stoichiometry    C13H14N2S
 Framework group  C1[X(C13H14N2S)]
 Deg. of freedom    84
 Full point group                 C1      NOp   1
 Largest Abelian subgroup         C1      NOp   1
 Largest concise Abelian subgroup C1      NOp   1
                         Standard orientation:                         
 ---------------------------------------------------------------------
 Center     Atomic      Atomic             Coordinates (Angstroms)
 Number     Number       Type             X           Y           Z
 ---------------------------------------------------------------------
      1          7           0        0.164069    2.278438   -1.204816
      2         16           0       -0.058111    1.411812    0.048903
      3          6           0        1.348151    0.271181   -0.031974
      4          6           0        2.249669    0.438448   -1.066413
      5          6           0        3.350001   -0.393515   -1.165772
      6          6           0        3.541085   -1.383975   -0.216120
      7          6           0        2.637389   -1.537575    0.820098
      8          6           0        1.520884   -0.714658    0.933612
      9          6           0        0.544929   -0.903907    2.050213
     10          6           0       -1.426343    0.247231   -0.153844
     11          6           0       -2.477363    0.223118    0.741638
     12          6           0       -3.524985   -0.657712    0.530334
     13          6           0       -3.511307   -1.497873   -0.571682
     14          6           0       -2.455205   -1.458659   -1.469334
     15          6           0       -1.407181   -0.578534   -1.262731
     16          7           0       -0.337427    2.009949    1.444699
     17          1           0       -0.419190    3.099033   -1.231566
     18          1           0        2.059404    1.227676   -1.775985
     19          1           0        4.053368   -0.268536   -1.974978
     20          1           0        4.398611   -2.037682   -0.280740
     21          1           0        2.796098   -2.309025    1.560132
     22          1           0        1.022218   -1.396233    2.894566
     23          1           0       -0.286585   -1.526932    1.717761
     24          1           0        0.139657    0.055364    2.364514
     25          1           0       -2.448033    0.890136    1.588311
     26          1           0       -4.351462   -0.688666    1.224625
     27          1           0       -4.328608   -2.184972   -0.734606
     28          1           0       -2.450283   -2.111918   -2.329139
     29          1           0       -0.576131   -0.519933   -1.949613
     30          1           0        0.195882    2.842562    1.636937
 ---------------------------------------------------------------------
 Rotational constants (GHZ):           0.8079824           0.3803161           0.3489769
 Standard basis: def2SVP (5D, 7F)
 There are   314 symmetry adapted cartesian basis functions of A   symmetry.
 There are   298 symmetry adapted basis functions of A   symmetry.
   298 basis functions,   510 primitive gaussians,   314 cartesian basis functions
    61 alpha electrons       61 beta electrons
       nuclear repulsion energy      1218.8344230227 Hartrees.
 NAtoms=   30 NActive=   30 NUniq=   30 SFac= 1.00D+00 NAtFMM=   60 NAOKFM=F Big=F
 Integral buffers will be    131072 words long.
 Raffenetti 2 integral format.
 Two-electron integral symmetry is turned on.
 Nuclear repulsion after empirical dispersion term =     1218.7947833019 Hartrees.
 One-electron integrals computed using PRISM.
   1 Symmetry operations used in ECPInt.
 ECPInt:  NShTT=    9870 NPrTT=   36306 LenC2=    9477 LenP2D=   25354.
 LDataN:  DoStor=T MaxTD1= 4 Len=   56
 NBasis=   298 RedAO= T EigKep=  2.33D-04  NBF=   298
 NBsUse=   298 1.00D-06 EigRej= -1.00D+00 NBFU=   298
 ExpMin= 1.22D-01 ExpMax= 9.18D+03 ExpMxC= 1.38D+03 IAcc=3 IRadAn=         5 AccDes= 0.00D+00
 Harris functional with IExCor= 1009 and IRadAn=       5 diagonalized for initial guess.
 HarFok:  IExCor= 1009 AccDes= 0.00D+00 IRadAn=         5 IDoV= 1 UseB2=F ITyADJ=14
 ICtDFT=  3500011 ScaDFX=  1.000000  1.000000  1.000000  1.000000
 FoFCou: FMM=F IPFlag=           0 FMFlag=      100000 FMFlg1=           0
         NFxFlg=           0 DoJE=T BraDBF=F KetDBF=T FulRan=T
         wScrn=  0.000000 ICntrl=       500 IOpCl=  0 I1Cent=   200000004 NGrid=           0
         NMat0=    1 NMatS0=      1 NMatT0=    0 NMatD0=    1 NMtDS0=    0 NMtDT0=    0
 Petite list used in FoFCou.
 Requested convergence on RMS density matrix=1.00D-08 within 128 cycles.
 Requested convergence on MAX density matrix=1.00D-06.
 Requested convergence on             energy=1.00D-06.
 No special actions if energy rises.
 Integral accuracy reduced to 1.0D-05 until final iterations.
 Initial convergence to 1.0D-05 achieved.  Increase integral accuracy.
 SCF Done:  E(RPBE1PBE) =  -1009.98345847     A.U. after   14 cycles
            NFock= 14  Conv=0.79D-08     -V/T= 2.0067

 **********************************************************************

            Population analysis using the SCF Density.

 **********************************************************************

 Orbital symmetries:
       Occupied  (A) (A) (A) (A) (A) (A) (A) (A) (A) (A) (A) (A)
                 (A) (A) (A) (A) (A) (A) (A) (A) (A) (A) (A) (A)
                 (A) (A) (A) (A) (A) (A) (A) (A) (A) (A) (A) (A)
                 (A) (A) (A) (A) (A) (A) (A) (A) (A) (A) (A) (A)
                 (A) (A) (A) (A) (A) (A) (A) (A) (A) (A) (A) (A)
                 (A)
       Virtual   (A) (A) (A) (A) (A) (A) (A) (A) (A) (A) (A) (A)
                 (A) (A) (A) (A) (A) (A) (A) (A) (A) (A) (A) (A)
                 (A) (A) (A) (A) (A) (A) (A) (A) (A) (A) (A) (A)
                 (A) (A) (A) (A) (A) (A) (A) (A) (A) (A) (A) (A)
                 (A) (A) (A) (A) (A) (A) (A) (A) (A) (A) (A) (A)
                 (A) (A) (A) (A) (A) (A) (A) (A) (A) (A) (A) (A)
                 (A) (A) (A) (A) (A) (A) (A) (A) (A) (A) (A) (A)
                 (A) (A) (A) (A) (A) (A) (A) (A) (A) (A) (A) (A)
                 (A) (A) (A) (A) (A) (A) (A) (A) (A) (A) (A) (A)
                 (A) (A) (A) (A) (A) (A) (A) (A) (A) (A) (A) (A)
                 (A) (A) (A) (A) (A) (A) (A) (A) (A) (A) (A) (A)
                 (A) (A) (A) (A) (A) (A) (A) (A) (A) (A) (A) (A)
                 (A) (A) (A) (A) (A) (A) (A) (A) (A) (A) (A) (A)
                 (A) (A) (A) (A) (A) (A) (A) (A) (A) (A) (A) (A)
                 (A) (A) (A) (A) (A) (A) (A) (A) (A) (A) (A) (A)
                 (A) (A) (A) (A) (A) (A) (A) (A) (A) (A) (A) (A)
                 (A) (A) (A) (A) (A) (A) (A) (A) (A) (A) (A) (A)
                 (A) (A) (A) (A) (A) (A) (A) (A) (A) (A) (A) (A)
                 (A) (A) (A) (A) (A) (A) (A) (A) (A) (A) (A) (A)
                 (A) (A) (A) (A) (A) (A) (A) (A) (A)
 The electronic state is 1-A.
 Alpha  occ. eigenvalues --  -89.18438 -14.34614 -14.34439 -10.26272 -10.25795
 Alpha  occ. eigenvalues --  -10.25621 -10.25190 -10.24891 -10.24812 -10.24703
 Alpha  occ. eigenvalues --  -10.24654 -10.24316 -10.23971 -10.23881 -10.23820
 Alpha  occ. eigenvalues --  -10.21879  -8.15790  -6.09929  -6.09826  -6.09808
 Alpha  occ. eigenvalues --   -1.00680  -0.89373  -0.89113  -0.85260  -0.80066
 Alpha  occ. eigenvalues --   -0.78741  -0.77832  -0.77554  -0.70804  -0.68597
 Alpha  occ. eigenvalues --   -0.63772  -0.62946  -0.61837  -0.59435  -0.55772
 Alpha  occ. eigenvalues --   -0.53364  -0.52317  -0.49298  -0.48454  -0.47688
 Alpha  occ. eigenvalues --   -0.47134  -0.46085  -0.45013  -0.44846  -0.43816
 Alpha  occ. eigenvalues --   -0.42872  -0.40442  -0.39995  -0.38552  -0.37915
 Alpha  occ. eigenvalues --   -0.37321  -0.36859  -0.36103  -0.34099  -0.29396
 Alpha  occ. eigenvalues --   -0.28259  -0.27910  -0.27244  -0.26287  -0.25277
 Alpha  occ. eigenvalues --   -0.23569
 Alpha virt. eigenvalues --   -0.03485  -0.01932  -0.01190  -0.00455   0.06328
 Alpha virt. eigenvalues --    0.07527   0.08894   0.09223   0.09774   0.10442
 Alpha virt. eigenvalues --    0.11035   0.11498   0.12591   0.12910   0.14429
 Alpha virt. eigenvalues --    0.14489   0.16077   0.16696   0.16988   0.17512
 Alpha virt. eigenvalues --    0.19050   0.19631   0.20168   0.22039   0.24747
 Alpha virt. eigenvalues --    0.27952   0.28483   0.29328   0.30445   0.30853
 Alpha virt. eigenvalues --    0.31276   0.33769   0.35145   0.35728   0.36981
 Alpha virt. eigenvalues --    0.39164   0.39975   0.41351   0.42701   0.43123
 Alpha virt. eigenvalues --    0.44769   0.45259   0.45652   0.46113   0.47561
 Alpha virt. eigenvalues --    0.48794   0.48975   0.49767   0.50271   0.50886
 Alpha virt. eigenvalues --    0.51499   0.51780   0.52992   0.54623   0.54927
 Alpha virt. eigenvalues --    0.57707   0.58239   0.59363   0.59842   0.60368
 Alpha virt. eigenvalues --    0.61087   0.61957   0.63370   0.63886   0.65779
 Alpha virt. eigenvalues --    0.66395   0.66697   0.67234   0.67525   0.68987
 Alpha virt. eigenvalues --    0.69577   0.70200   0.71070   0.71686   0.72232
 Alpha virt. eigenvalues --    0.73580   0.73814   0.75029   0.75651   0.75849
 Alpha virt. eigenvalues --    0.76370   0.76599   0.77350   0.77785   0.78687
 Alpha virt. eigenvalues --    0.78798   0.80552   0.80953   0.83044   0.83816
 Alpha virt. eigenvalues --    0.84012   0.85710   0.86312   0.87830   0.89516
 Alpha virt. eigenvalues --    0.90520   0.92220   0.93542   0.96558   0.97357
 Alpha virt. eigenvalues --    1.00301   1.00729   1.03261   1.07189   1.08650
 Alpha virt. eigenvalues --    1.10187   1.12022   1.13916   1.15292   1.17921
 Alpha virt. eigenvalues --    1.19343   1.20176   1.21131   1.23601   1.24381
 Alpha virt. eigenvalues --    1.24806   1.25058   1.25908   1.26461   1.27540
 Alpha virt. eigenvalues --    1.28086   1.30403   1.31074   1.31985   1.32654
 Alpha virt. eigenvalues --    1.37891   1.39251   1.44931   1.45612   1.47865
 Alpha virt. eigenvalues --    1.51314   1.53535   1.54638   1.57242   1.58540
 Alpha virt. eigenvalues --    1.61795   1.63389   1.67186   1.68127   1.68648
 Alpha virt. eigenvalues --    1.70123   1.71518   1.72429   1.73088   1.75006
 Alpha virt. eigenvalues --    1.75788   1.75937   1.76495   1.77173   1.77620
 Alpha virt. eigenvalues --    1.77921   1.79570   1.79786   1.81649   1.83065
 Alpha virt. eigenvalues --    1.83676   1.85615   1.86330   1.88246   1.89954
 Alpha virt. eigenvalues --    1.91347   1.93164   1.93497   1.96001   1.96527
 Alpha virt. eigenvalues --    1.98250   1.99436   1.99804   2.01362   2.02209
 Alpha virt. eigenvalues --    2.04669   2.06801   2.07902   2.09179   2.11202
 Alpha virt. eigenvalues --    2.12683   2.14718   2.15527   2.16328   2.16771
 Alpha virt. eigenvalues --    2.18088   2.19987   2.22903   2.26051   2.26969
 Alpha virt. eigenvalues --    2.28912   2.30498   2.31016   2.31486   2.31809
 Alpha virt. eigenvalues --    2.33913   2.34561   2.34871   2.36564   2.37045
 Alpha virt. eigenvalues --    2.38594   2.40594   2.42695   2.50254   2.51326
 Alpha virt. eigenvalues --    2.54465   2.55573   2.56259   2.57856   2.59183
 Alpha virt. eigenvalues --    2.60279   2.63374   2.64479   2.65163   2.66051
 Alpha virt. eigenvalues --    2.66933   2.67298   2.68481   2.76274   2.76392
 Alpha virt. eigenvalues --    2.76899   2.79300   2.84920   2.87835   2.88292
 Alpha virt. eigenvalues --    2.89406   2.90411   2.91590   2.93317   2.97181
 Alpha virt. eigenvalues --    2.99354   3.02414   3.06837   3.07127   3.14083
 Alpha virt. eigenvalues --    3.16736   3.24366   3.25386   3.30763   3.33357
 Alpha virt. eigenvalues --    3.63926   3.66401
          Condensed to atoms (all electrons):
               1          2          3          4          5          6
     1  N    6.821258   0.408339  -0.114111   0.000085   0.002644  -0.000071
     2  S    0.408339  14.730015   0.123017  -0.022878   0.007580   0.000065
     3  C   -0.114111   0.123017   5.877831   0.320579   0.102560  -0.181725
     4  C    0.000085  -0.022878   0.320579   5.057763   0.215182   0.108014
     5  C    0.002644   0.007580   0.102560   0.215182   5.190192   0.229544
     6  C   -0.000071   0.000065  -0.181725   0.108014   0.229544   5.119231
     7  C   -0.000027   0.002468   0.076348  -0.126582   0.093793   0.273581
     8  C    0.004495  -0.048556   0.159134   0.058001  -0.165630   0.110119
     9  C   -0.000102  -0.020778  -0.073256   0.009425  -0.000206   0.011446
    10  C   -0.063117   0.143960  -0.111781  -0.002409  -0.000320  -0.000164
    11  C   -0.002708  -0.029503   0.006505  -0.000422  -0.000004   0.000001
    12  C   -0.000003   0.006147  -0.000063  -0.000005   0.000000   0.000000
    13  C   -0.000033   0.000182  -0.000132  -0.000008   0.000001  -0.000000
    14  C    0.000652   0.001785  -0.001536   0.000166   0.000009  -0.000001
    15  C    0.012943  -0.058216  -0.009214   0.000285   0.000072   0.000058
    16  N   -0.042823   0.379003  -0.049243   0.000483   0.000047  -0.000030
    17  H    0.333419  -0.020481   0.012224  -0.000513  -0.000106   0.000010
    18  H    0.040062  -0.019182  -0.053835   0.443178  -0.070666   0.012988
    19  H   -0.000022  -0.000176   0.017437  -0.074237   0.458722  -0.076485
    20  H    0.000000   0.000023  -0.001761   0.014673  -0.073047   0.450525
    21  H    0.000002  -0.000130   0.020387  -0.002117   0.015156  -0.073832
    22  H    0.000006   0.000253   0.011422  -0.000555   0.000028   0.000645
    23  H   -0.000003   0.000756  -0.005580  -0.000157   0.000126  -0.000371
    24  H    0.000756   0.010430  -0.019956  -0.000736   0.000007  -0.000392
    25  H    0.000108  -0.015970   0.001313  -0.000001  -0.000001   0.000001
    26  H    0.000002  -0.000156   0.000008   0.000000  -0.000000   0.000000
    27  H   -0.000000   0.000023  -0.000000   0.000000   0.000000  -0.000000
    28  H   -0.000003  -0.000191   0.000028   0.000010  -0.000002   0.000001
    29  H    0.008091  -0.010019   0.004822   0.000455   0.000615  -0.000100
    30  H   -0.000435  -0.016714  -0.003148   0.000376  -0.000021  -0.000008
               7          8          9         10         11         12
     1  N   -0.000027   0.004495  -0.000102  -0.063117  -0.002708  -0.000003
     2  S    0.002468  -0.048556  -0.020778   0.143960  -0.029503   0.006147
     3  C    0.076348   0.159134  -0.073256  -0.111781   0.006505  -0.000063
     4  C   -0.126582   0.058001   0.009425  -0.002409  -0.000422  -0.000005
     5  C    0.093793  -0.165630  -0.000206  -0.000320  -0.000004   0.000000
     6  C    0.273581   0.110119   0.011446  -0.000164   0.000001   0.000000
     7  C    5.059617   0.342461  -0.067892  -0.000083   0.000027  -0.000002
     8  C    0.342461   5.292082   0.422629   0.001677   0.000513   0.000059
     9  C   -0.067892   0.422629   4.609559  -0.007036  -0.000899  -0.000795
    10  C   -0.000083   0.001677  -0.007036   5.859549   0.271000   0.109187
    11  C    0.000027   0.000513  -0.000899   0.271000   5.110444   0.220054
    12  C   -0.000002   0.000059  -0.000795   0.109187   0.220054   5.146795
    13  C    0.000005  -0.000005  -0.000125  -0.191228   0.109572   0.248351
    14  C   -0.000031   0.000226  -0.000053   0.118224  -0.147083   0.094767
    15  C   -0.000103  -0.003369  -0.000205   0.170259   0.054388  -0.150938
    16  N    0.000210   0.000107  -0.029237  -0.111529   0.003082   0.001852
    17  H   -0.000005  -0.000129   0.000023  -0.002918   0.001186  -0.000018
    18  H   -0.001978   0.017341  -0.000225   0.001077  -0.000014  -0.000002
    19  H    0.014608  -0.001677   0.000030   0.000013  -0.000000  -0.000000
    20  H   -0.069710   0.016237  -0.000315  -0.000000  -0.000000   0.000000
    21  H    0.455730  -0.074422  -0.017693   0.000040  -0.000001  -0.000000
    22  H   -0.014207  -0.013209   0.366818   0.000248   0.000094   0.000031
    23  H   -0.001646  -0.012161   0.378243   0.001972  -0.001244   0.000281
    24  H    0.007545  -0.007352   0.377611  -0.005646  -0.000115   0.000436
    25  H   -0.000003  -0.000168  -0.000475  -0.056149   0.445483  -0.067761
    26  H   -0.000000  -0.000002  -0.000008   0.017307  -0.073471   0.457156
    27  H    0.000000  -0.000000   0.000000  -0.001533   0.014071  -0.067962
    28  H   -0.000002   0.000017  -0.000001   0.016578  -0.001758   0.014208
    29  H   -0.000032  -0.001401   0.000109  -0.074134   0.012903  -0.001754
    30  H    0.000013  -0.000767   0.000207   0.011228  -0.000075  -0.000051
              13         14         15         16         17         18
     1  N   -0.000033   0.000652   0.012943  -0.042823   0.333419   0.040062
     2  S    0.000182   0.001785  -0.058216   0.379003  -0.020481  -0.019182
     3  C   -0.000132  -0.001536  -0.009214  -0.049243   0.012224  -0.053835
     4  C   -0.000008   0.000166   0.000285   0.000483  -0.000513   0.443178
     5  C    0.000001   0.000009   0.000072   0.000047  -0.000106  -0.070666
     6  C   -0.000000  -0.000001   0.000058  -0.000030   0.000010   0.012988
     7  C    0.000005  -0.000031  -0.000103   0.000210  -0.000005  -0.001978
     8  C   -0.000005   0.000226  -0.003369   0.000107  -0.000129   0.017341
     9  C   -0.000125  -0.000053  -0.000205  -0.029237   0.000023  -0.000225
    10  C   -0.191228   0.118224   0.170259  -0.111529  -0.002918   0.001077
    11  C    0.109572  -0.147083   0.054388   0.003082   0.001186  -0.000014
    12  C    0.248351   0.094767  -0.150938   0.001852  -0.000018  -0.000002
    13  C    5.139937   0.254508   0.102981  -0.000030  -0.000006   0.000002
    14  C    0.254508   5.059693   0.287165  -0.000064  -0.000047   0.000024
    15  C    0.102981   0.287165   5.148781   0.007498  -0.001853   0.000050
    16  N   -0.000030  -0.000064   0.007498   6.832968  -0.000556   0.000357
    17  H   -0.000006  -0.000047  -0.001853  -0.000556   0.557164  -0.001126
    18  H    0.000002   0.000024   0.000050   0.000357  -0.001126   0.601017
    19  H    0.000000   0.000000  -0.000007   0.000002  -0.000003  -0.010770
    20  H   -0.000000   0.000000  -0.000000  -0.000000   0.000000  -0.000215
    21  H    0.000000  -0.000001   0.000002   0.000007  -0.000000   0.000021
    22  H   -0.000005  -0.000012   0.000019   0.000812  -0.000001   0.000005
    23  H    0.000210   0.000862  -0.001428   0.000176   0.000001   0.000005
    24  H   -0.000011  -0.000032  -0.000765   0.046006  -0.000036  -0.000074
    25  H    0.012813  -0.002040   0.014859   0.031888   0.000139  -0.000003
    26  H   -0.074148   0.014515  -0.001903  -0.000015  -0.000000  -0.000000
    27  H    0.449015  -0.068655   0.014728   0.000000  -0.000000   0.000000
    28  H   -0.072304   0.457217  -0.073486   0.000001   0.000002  -0.000001
    29  H    0.013638  -0.053821   0.448401   0.000422  -0.000196   0.000547
    30  H    0.000007  -0.000004  -0.000377   0.330437   0.001237   0.000078
              19         20         21         22         23         24
     1  N   -0.000022   0.000000   0.000002   0.000006  -0.000003   0.000756
     2  S   -0.000176   0.000023  -0.000130   0.000253   0.000756   0.010430
     3  C    0.017437  -0.001761   0.020387   0.011422  -0.005580  -0.019956
     4  C   -0.074237   0.014673  -0.002117  -0.000555  -0.000157  -0.000736
     5  C    0.458722  -0.073047   0.015156   0.000028   0.000126   0.000007
     6  C   -0.076485   0.450525  -0.073832   0.000645  -0.000371  -0.000392
     7  C    0.014608  -0.069710   0.455730  -0.014207  -0.001646   0.007545
     8  C   -0.001677   0.016237  -0.074422  -0.013209  -0.012161  -0.007352
     9  C    0.000030  -0.000315  -0.017693   0.366818   0.378243   0.377611
    10  C    0.000013  -0.000000   0.000040   0.000248   0.001972  -0.005646
    11  C   -0.000000  -0.000000  -0.000001   0.000094  -0.001244  -0.000115
    12  C   -0.000000   0.000000  -0.000000   0.000031   0.000281   0.000436
    13  C    0.000000  -0.000000   0.000000  -0.000005   0.000210  -0.000011
    14  C    0.000000   0.000000  -0.000001  -0.000012   0.000862  -0.000032
    15  C   -0.000007  -0.000000   0.000002   0.000019  -0.001428  -0.000765
    16  N    0.000002  -0.000000   0.000007   0.000812   0.000176   0.046006
    17  H   -0.000003   0.000000  -0.000000  -0.000001   0.000001  -0.000036
    18  H   -0.010770  -0.000215   0.000021   0.000005   0.000005  -0.000074
    19  H    0.668470  -0.012274  -0.000290  -0.000001  -0.000001   0.000001
    20  H   -0.012274   0.672317  -0.012685  -0.000017   0.000007   0.000006
    21  H   -0.000290  -0.012685   0.679014   0.007360   0.000894   0.000205
    22  H   -0.000001  -0.000017   0.007360   0.636833  -0.017533  -0.011652
    23  H   -0.000001   0.000007   0.000894  -0.017533   0.603476  -0.016909
    24  H    0.000001   0.000006   0.000205  -0.011652  -0.016909   0.557331
    25  H   -0.000000   0.000000  -0.000001   0.000001  -0.000019   0.001326
    26  H   -0.000000   0.000000  -0.000000   0.000001   0.000017  -0.000004
    27  H    0.000000   0.000000  -0.000000  -0.000000  -0.000006  -0.000000
    28  H   -0.000000   0.000000  -0.000000  -0.000000  -0.000002   0.000001
    29  H    0.000010  -0.000001  -0.000002  -0.000003   0.000151  -0.000123
    30  H   -0.000000   0.000000   0.000002  -0.000029  -0.000007  -0.001167
              25         26         27         28         29         30
     1  N    0.000108   0.000002  -0.000000  -0.000003   0.008091  -0.000435
     2  S   -0.015970  -0.000156   0.000023  -0.000191  -0.010019  -0.016714
     3  C    0.001313   0.000008  -0.000000   0.000028   0.004822  -0.003148
     4  C   -0.000001   0.000000   0.000000   0.000010   0.000455   0.000376
     5  C   -0.000001  -0.000000   0.000000  -0.000002   0.000615  -0.000021
     6  C    0.000001   0.000000  -0.000000   0.000001  -0.000100  -0.000008
     7  C   -0.000003  -0.000000   0.000000  -0.000002  -0.000032   0.000013
     8  C   -0.000168  -0.000002  -0.000000   0.000017  -0.001401  -0.000767
     9  C   -0.000475  -0.000008   0.000000  -0.000001   0.000109   0.000207
    10  C   -0.056149   0.017307  -0.001533   0.016578  -0.074134   0.011228
    11  C    0.445483  -0.073471   0.014071  -0.001758   0.012903  -0.000075
    12  C   -0.067761   0.457156  -0.067962   0.014208  -0.001754  -0.000051
    13  C    0.012813  -0.074148   0.449015  -0.072304   0.013638   0.000007
    14  C   -0.002040   0.014515  -0.068655   0.457217  -0.053821  -0.000004
    15  C    0.014859  -0.001903   0.014728  -0.073486   0.448401  -0.000377
    16  N    0.031888  -0.000015   0.000000   0.000001   0.000422   0.330437
    17  H    0.000139  -0.000000  -0.000000   0.000002  -0.000196   0.001237
    18  H   -0.000003  -0.000000   0.000000  -0.000001   0.000547   0.000078
    19  H   -0.000000  -0.000000   0.000000  -0.000000   0.000010  -0.000000
    20  H    0.000000   0.000000   0.000000   0.000000  -0.000001   0.000000
    21  H   -0.000001  -0.000000  -0.000000  -0.000000  -0.000002   0.000002
    22  H    0.000001   0.000001  -0.000000  -0.000000  -0.000003  -0.000029
    23  H   -0.000019   0.000017  -0.000006  -0.000002   0.000151  -0.000007
    24  H    0.001326  -0.000004  -0.000000   0.000001  -0.000123  -0.001167
    25  H    0.608100  -0.010749  -0.000204   0.000031  -0.000256  -0.001138
    26  H   -0.010749   0.662512  -0.012272  -0.000265   0.000033  -0.000002
    27  H   -0.000204  -0.012272   0.663850  -0.012180  -0.000244   0.000000
    28  H    0.000031  -0.000265  -0.012180   0.661856  -0.011774  -0.000000
    29  H   -0.000256   0.000033  -0.000244  -0.011774   0.636450  -0.000029
    30  H   -0.001138  -0.000002   0.000000  -0.000000  -0.000029   0.554702
 Mulliken charges:
               1
     1  N   -0.409405
     2  S    0.448904
     3  C   -0.108275
     4  C    0.001945
     5  C   -0.006276
     6  C    0.016950
     7  C   -0.044102
     8  C   -0.096250
     9  C    0.043199
    10  C   -0.094271
    11  C    0.007973
    12  C   -0.009972
    13  C    0.006814
    14  C   -0.016434
    15  C    0.039375
    16  N   -0.401830
    17  H    0.122589
    18  H    0.041338
    19  H    0.016650
    20  H    0.016239
    21  H    0.002356
    22  H    0.032648
    23  H    0.069894
    24  H    0.063309
    25  H    0.038876
    26  H    0.021444
    27  H    0.021369
    28  H    0.022018
    29  H    0.027239
    30  H    0.125685
 Sum of Mulliken charges =  -0.00000
 Mulliken charges with hydrogens summed into heavy atoms:
               1
     1  N   -0.286816
     2  S    0.448904
     3  C   -0.108275
     4  C    0.043282
     5  C    0.010375
     6  C    0.033190
     7  C   -0.041747
     8  C   -0.096250
     9  C    0.209050
    10  C   -0.094271
    11  C    0.046849
    12  C    0.011472
    13  C    0.028183
    14  C    0.005584
    15  C    0.066613
    16  N   -0.276145
 Electronic spatial extent (au):  <R**2>=           3585.3893
 Charge=             -0.0000 electrons
 Dipole moment (field-independent basis, Debye):
    X=             -0.3984    Y=             -1.8532    Z=             -0.0664  Tot=              1.8967
 Quadrupole moment (field-independent basis, Debye-Ang):
   XX=            -91.3561   YY=            -96.7709   ZZ=           -101.5508
   XY=              0.1791   XZ=             -0.1434   YZ=              1.2947
 Traceless Quadrupole moment (field-independent basis, Debye-Ang):
   XX=              5.2032   YY=             -0.2116   ZZ=             -4.9915
   XY=              0.1791   XZ=             -0.1434   YZ=              1.2947
 Octapole moment (field-independent basis, Debye-Ang**2):
  XXX=             -8.8792  YYY=             27.7507  ZZZ=             -1.6281  XYY=             -2.5887
  XXY=            -26.8571  XXZ=             -3.2371  XZZ=              2.8179  YZZ=             -8.9440
  YYZ=              3.7106  XYZ=             -3.3450
 Hexadecapole moment (field-independent basis, Debye-Ang**3):
 XXXX=          -2831.2294 YYYY=           -991.9310 ZZZZ=           -824.4787 XXXY=              7.6034
 XXXZ=            -90.5693 YYYX=            -12.3298 YYYZ=             11.8767 ZZZX=             -1.6799
 ZZZY=              7.6619 XXYY=           -636.6925 XXZZ=           -612.8416 YYZZ=           -306.2122
 XXYZ=              8.0175 YYXZ=             46.3668 ZZXY=              9.5689
 N-N= 1.218794783302D+03 E-N=-4.801187751200D+03  KE= 1.003234056258D+03
   1 Symmetry operations used in ECPInt.
 ECPInt:  NShTT=    9870 NPrTT=   36306 LenC2=    9477 LenP2D=   25354.
 LDataN:  DoStor=T MaxTD1= 5 Len=  102
 Calling FoFJK, ICntrl=      2127 FMM=F ISym2X=0 I1Cent= 0 IOpClX= 0 NMat=1 NMatS=1 NMatT=0.
 ***** Axes restored to original set *****
 -------------------------------------------------------------------
 Center     Atomic                   Forces (Hartrees/Bohr)
 Number     Number              X              Y              Z
 -------------------------------------------------------------------
      1        7          -0.014468028    0.010196632   -0.006532032
      2       16           0.002396011   -0.009510092   -0.001476831
      3        6           0.005775143   -0.007135691   -0.004758694
      4        6          -0.003177291   -0.001003766   -0.003479487
      5        6           0.000421813    0.000138228    0.001444063
      6        6          -0.000335059    0.000380736   -0.000314510
      7        6          -0.000336530   -0.001546528   -0.001905503
      8        6           0.007845161    0.001875881    0.011011812
      9        6          -0.005592041    0.002232983   -0.002163081
     10        6          -0.006444747   -0.004974095    0.005236654
     11        6           0.001017626   -0.002026694    0.002035767
     12        6          -0.000290871    0.000120731   -0.001632543
     13        6           0.001065326    0.000541001    0.000233445
     14        6          -0.000867652   -0.000783956    0.000258767
     15        6          -0.001782557   -0.000746193   -0.002315200
     16        7           0.014010190    0.010357147    0.004010835
     17        1           0.010424070   -0.004721106    0.003832424
     18        1           0.001623618   -0.006913374   -0.006823698
     19        1          -0.005797354   -0.001271979   -0.007079101
     20        1          -0.007201535    0.005624050   -0.000428716
     21        1          -0.000831638    0.005872809    0.006604166
     22        1          -0.002949345    0.004075333    0.005884258
     23        1           0.006358277    0.004291297   -0.001161155
     24        1           0.003273916   -0.004755770    0.003929839
     25        1          -0.000615723   -0.006072411    0.007917082
     26        1           0.006769725   -0.000041216    0.006065359
     27        1           0.006820173    0.005916980   -0.001156928
     28        1          -0.000313780    0.005410945   -0.007154281
     29        1          -0.006749986    0.000655909   -0.006887220
     30        1          -0.010046914   -0.006187792   -0.003195493
 -------------------------------------------------------------------
 Cartesian Forces:  Max     0.014468028 RMS     0.005276870

 GradGradGradGradGradGradGradGradGradGradGradGradGradGradGradGradGradGrad
 Berny optimization.
 FormGI is forming the generalized inverse of G from B-inverse, IUseBI=4.
 Internal  Forces:  Max     0.019794250 RMS     0.004718495
 Search for a local minimum.
 Step number   1 out of a maximum of  163
 All quantities printed in internal units (Hartrees-Bohrs-Radians)
 Mixed Optimization -- RFO/linear search
 Second derivative matrix not updated -- first step.
 ITU=  0
     Eigenvalues ---    0.00230   0.00262   0.00832   0.01471   0.01522
     Eigenvalues ---    0.01645   0.02219   0.02252   0.02271   0.02277
     Eigenvalues ---    0.02282   0.02284   0.02284   0.02293   0.02296
     Eigenvalues ---    0.02300   0.02306   0.02308   0.02312   0.02318
     Eigenvalues ---    0.02326   0.03359   0.03410   0.07341   0.07391
     Eigenvalues ---    0.07484   0.09032   0.10250   0.16000   0.16000
     Eigenvalues ---    0.16000   0.16000   0.16000   0.16000   0.16000
     Eigenvalues ---    0.16000   0.16000   0.16000   0.16000   0.16000
     Eigenvalues ---    0.16000   0.16000   0.16743   0.19475   0.22000
     Eigenvalues ---    0.22000   0.22000   0.22491   0.23488   0.24479
     Eigenvalues ---    0.24977   0.24993   0.24999   0.25156   0.25485
     Eigenvalues ---    0.32905   0.34707   0.35072   0.35078   0.35907
     Eigenvalues ---    0.35969   0.35981   0.36013   0.36015   0.36023
     Eigenvalues ---    0.36064   0.36206   0.36209   0.43366   0.43546
     Eigenvalues ---    0.43635   0.43734   0.46431   0.46459   0.47424
     Eigenvalues ---    0.47760   0.48037   0.48292   0.48371   0.48414
     Eigenvalues ---    0.48595   0.48726   0.63765   0.64768
 RFO step:  Lambda=-1.07028950D-02 EMin= 2.30000000D-03
 Linear search not attempted -- first point.
 Iteration  1 RMS(Cart)=  0.08568384 RMS(Int)=  0.00163049
 Iteration  2 RMS(Cart)=  0.00364074 RMS(Int)=  0.00007418
 Iteration  3 RMS(Cart)=  0.00000622 RMS(Int)=  0.00007406
 Iteration  4 RMS(Cart)=  0.00000000 RMS(Int)=  0.00007406
 Variable       Old X    -DE/DX   Delta X   Delta X   Delta X     New X
                                 (Linear)    (Quad)   (Total)
    R1        2.91056  -0.00020   0.00000  -0.00031  -0.00031   2.91025
    R2        1.90317   0.00973   0.00000   0.02048   0.02048   1.92365
    R3        3.42513   0.00186   0.00000   0.00711   0.00711   3.43223
    R4        3.41691  -0.00259   0.00000  -0.00977  -0.00977   3.40715
    R5        2.91780  -0.00025   0.00000  -0.00039  -0.00039   2.91740
    R6        2.61218   0.01334   0.00000   0.02754   0.02753   2.63972
    R7        2.62806   0.01979   0.00000   0.04191   0.04194   2.67000
    R8        2.61354   0.00772   0.00000   0.01540   0.01537   2.62892
    R9        2.03755   0.00984   0.00000   0.02641   0.02641   2.06396
   R10        2.61805   0.00790   0.00000   0.01517   0.01514   2.63319
   R11        2.03982   0.00923   0.00000   0.02486   0.02486   2.06468
   R12        2.61439   0.00896   0.00000   0.01736   0.01736   2.63175
   R13        2.04131   0.00915   0.00000   0.02469   0.02469   2.06600
   R14        2.62982   0.00915   0.00000   0.01916   0.01919   2.64901
   R15        2.04228   0.00885   0.00000   0.02392   0.02392   2.06620
   R16        2.82519   0.00624   0.00000   0.01837   0.01837   2.84356
   R17        2.05548   0.00769   0.00000   0.02129   0.02129   2.07677
   R18        2.06154   0.00767   0.00000   0.02143   0.02143   2.08297
   R19        2.05558   0.00651   0.00000   0.01801   0.01801   2.07358
   R20        2.60968   0.00993   0.00000   0.02006   0.02007   2.62975
   R21        2.61294   0.01064   0.00000   0.02156   0.02157   2.63451
   R22        2.61713   0.00941   0.00000   0.01915   0.01915   2.63628
   R23        2.03760   0.00999   0.00000   0.02679   0.02679   2.06439
   R24        2.61882   0.00957   0.00000   0.01934   0.01933   2.63815
   R25        2.04061   0.00908   0.00000   0.02450   0.02450   2.06511
   R26        2.62030   0.01004   0.00000   0.02030   0.02028   2.64058
   R27        2.04111   0.00910   0.00000   0.02457   0.02457   2.06567
   R28        2.61552   0.00817   0.00000   0.01647   0.01647   2.63199
   R29        2.04059   0.00897   0.00000   0.02418   0.02418   2.06477
   R30        2.04045   0.00956   0.00000   0.02577   0.02577   2.06623
   R31        1.90349   0.00991   0.00000   0.02087   0.02087   1.92436
    A1        1.97854  -0.01224   0.00000  -0.07171  -0.07171   1.90683
    A2        1.77813  -0.00351   0.00000  -0.01927  -0.01928   1.75885
    A3        1.96090  -0.00030   0.00000  -0.00408  -0.00403   1.95687
    A4        2.14596   0.00322   0.00000   0.01957   0.01958   2.16554
    A5        1.74850   0.00264   0.00000   0.00921   0.00920   1.75770
    A6        2.00919   0.00088   0.00000   0.00674   0.00678   2.01596
    A7        1.78645  -0.00275   0.00000  -0.01291  -0.01290   1.77354
    A8        2.05246  -0.00620   0.00000  -0.02519  -0.02521   2.02725
    A9        2.10771   0.00655   0.00000   0.02373   0.02371   2.13143
   A10        2.12276  -0.00034   0.00000   0.00139   0.00142   2.12418
   A11        2.09422   0.00037   0.00000   0.00251   0.00247   2.09669
   A12        2.05552   0.00009   0.00000   0.00036   0.00037   2.05589
   A13        2.13345  -0.00046   0.00000  -0.00286  -0.00285   2.13060
   A14        2.08352   0.00055   0.00000  -0.00016  -0.00022   2.08330
   A15        2.09743  -0.00068   0.00000  -0.00229  -0.00227   2.09517
   A16        2.10223   0.00013   0.00000   0.00246   0.00249   2.10472
   A17        2.09750   0.00056   0.00000  -0.00135  -0.00138   2.09613
   A18        2.09570  -0.00019   0.00000   0.00121   0.00123   2.09693
   A19        2.08997  -0.00037   0.00000   0.00014   0.00015   2.09013
   A20        2.11707   0.00384   0.00000   0.01509   0.01513   2.13220
   A21        2.09002  -0.00120   0.00000  -0.00330  -0.00332   2.08670
   A22        2.07610  -0.00265   0.00000  -0.01179  -0.01181   2.06429
   A23        2.05126  -0.00497   0.00000  -0.01742  -0.01739   2.03387
   A24        2.12612   0.01333   0.00000   0.05023   0.05015   2.17627
   A25        2.10576  -0.00836   0.00000  -0.03295  -0.03301   2.07274
   A26        1.92903  -0.00068   0.00000  -0.00568  -0.00568   1.92335
   A27        1.92012   0.00109   0.00000   0.00604   0.00596   1.92608
   A28        1.92558   0.00350   0.00000   0.02251   0.02244   1.94802
   A29        1.88865  -0.00107   0.00000  -0.01028  -0.01029   1.87836
   A30        1.91596  -0.00137   0.00000  -0.00745  -0.00744   1.90851
   A31        1.88358  -0.00157   0.00000  -0.00579  -0.00594   1.87764
   A32        2.11115  -0.00043   0.00000  -0.00234  -0.00245   2.10870
   A33        2.05340  -0.00153   0.00000  -0.00655  -0.00666   2.04674
   A34        2.11782   0.00194   0.00000   0.00794   0.00788   2.12570
   A35        2.08045  -0.00183   0.00000  -0.00718  -0.00716   2.07330
   A36        2.06879   0.00080   0.00000   0.00291   0.00289   2.07169
   A37        2.13391   0.00103   0.00000   0.00427   0.00425   2.13816
   A38        2.09376   0.00073   0.00000   0.00317   0.00317   2.09693
   A39        2.09335  -0.00067   0.00000  -0.00339  -0.00339   2.08995
   A40        2.09608  -0.00006   0.00000   0.00022   0.00021   2.09629
   A41        2.10037  -0.00003   0.00000  -0.00063  -0.00065   2.09973
   A42        2.09226   0.00003   0.00000   0.00038   0.00039   2.09265
   A43        2.09055   0.00000   0.00000   0.00025   0.00026   2.09081
   A44        2.09217   0.00061   0.00000   0.00235   0.00234   2.09451
   A45        2.09651   0.00007   0.00000   0.00100   0.00100   2.09751
   A46        2.09451  -0.00068   0.00000  -0.00335  -0.00335   2.09116
   A47        2.08172  -0.00142   0.00000  -0.00573  -0.00571   2.07601
   A48        2.08107   0.00216   0.00000   0.01137   0.01136   2.09243
   A49        2.12039  -0.00074   0.00000  -0.00564  -0.00565   2.11474
   A50        1.97900  -0.01258   0.00000  -0.07372  -0.07372   1.90527
    D1       -2.93517  -0.00152   0.00000  -0.04248  -0.04241  -2.97758
    D2        1.49154  -0.00270   0.00000  -0.04208  -0.04212   1.44942
    D3       -0.65241  -0.00119   0.00000  -0.03627  -0.03629  -0.68871
    D4        0.03630   0.00171   0.00000   0.07439   0.07437   0.11067
    D5       -3.12940   0.00163   0.00000   0.07130   0.07132  -3.05809
    D6        2.05448   0.00118   0.00000   0.06720   0.06716   2.12163
    D7       -1.11123   0.00111   0.00000   0.06411   0.06411  -1.04712
    D8       -2.32763  -0.00022   0.00000   0.05973   0.05974  -2.26789
    D9        0.78985  -0.00029   0.00000   0.05664   0.05669   0.84654
   D10       -2.17690  -0.00138   0.00000  -0.00996  -0.01004  -2.18694
   D11        0.92163  -0.00198   0.00000  -0.03457  -0.03454   0.88709
   D12        2.23081   0.00139   0.00000   0.00856   0.00850   2.23931
   D13       -0.95384   0.00079   0.00000  -0.01604  -0.01600  -0.96984
   D14        0.15840   0.00041   0.00000   0.00231   0.00229   0.16069
   D15       -3.02625  -0.00019   0.00000  -0.02229  -0.02221  -3.04847
   D16       -0.67335  -0.00139   0.00000  -0.03603  -0.03610  -0.70945
   D17        1.50989  -0.00262   0.00000  -0.03867  -0.03861   1.47128
   D18       -2.89512  -0.00074   0.00000  -0.03262  -0.03261  -2.92773
   D19        3.12729  -0.00020   0.00000  -0.00867  -0.00852   3.11877
   D20       -0.01562  -0.00007   0.00000  -0.00443  -0.00435  -0.01997
   D21        0.01003  -0.00023   0.00000  -0.00587  -0.00581   0.00421
   D22       -3.13288  -0.00010   0.00000  -0.00163  -0.00164  -3.13453
   D23       -3.12109   0.00024   0.00000   0.00450   0.00450  -3.11659
   D24        0.03065   0.00072   0.00000   0.02092   0.02121   0.05186
   D25       -0.00459   0.00008   0.00000   0.00093   0.00094  -0.00365
   D26       -3.13604   0.00056   0.00000   0.01735   0.01765  -3.11839
   D27       -0.00802   0.00023   0.00000   0.00684   0.00679  -0.00123
   D28        3.13655   0.00013   0.00000   0.00364   0.00361   3.14016
   D29        3.13495   0.00010   0.00000   0.00240   0.00244   3.13739
   D30       -0.00366  -0.00001   0.00000  -0.00079  -0.00075  -0.00441
   D31        0.00088  -0.00010   0.00000  -0.00296  -0.00300  -0.00211
   D32       -3.13758  -0.00011   0.00000  -0.00381  -0.00378  -3.14136
   D33        3.13949   0.00001   0.00000   0.00023   0.00020   3.13969
   D34        0.00102  -0.00000   0.00000  -0.00062  -0.00058   0.00044
   D35        0.00454  -0.00004   0.00000  -0.00199  -0.00191   0.00262
   D36       -3.13578   0.00000   0.00000  -0.00118  -0.00103  -3.13680
   D37       -3.14017  -0.00003   0.00000  -0.00114  -0.00114  -3.14131
   D38        0.00270   0.00001   0.00000  -0.00032  -0.00025   0.00245
   D39       -0.00269   0.00006   0.00000   0.00302   0.00293   0.00024
   D40        3.12888  -0.00028   0.00000  -0.01269  -0.01223   3.11664
   D41        3.13764   0.00002   0.00000   0.00222   0.00206   3.13970
   D42       -0.01398  -0.00032   0.00000  -0.01350  -0.01311  -0.02709
   D43       -2.73045  -0.00112   0.00000  -0.03853  -0.03859  -2.76905
   D44        1.46808  -0.00006   0.00000  -0.02604  -0.02605   1.44203
   D45       -0.60815  -0.00097   0.00000  -0.03665  -0.03678  -0.64493
   D46        0.42160  -0.00065   0.00000  -0.02171  -0.02164   0.39996
   D47       -1.66305   0.00041   0.00000  -0.00923  -0.00910  -1.67215
   D48        2.54391  -0.00050   0.00000  -0.01984  -0.01983   2.52408
   D49        3.10976  -0.00064   0.00000  -0.02143  -0.02149   3.08827
   D50       -0.03932  -0.00068   0.00000  -0.02295  -0.02301  -0.06233
   D51        0.01283   0.00007   0.00000   0.00446   0.00451   0.01733
   D52       -3.13625   0.00003   0.00000   0.00294   0.00299  -3.13327
   D53       -3.11271   0.00048   0.00000   0.01702   0.01704  -3.09567
   D54        0.02566   0.00047   0.00000   0.01717   0.01719   0.04285
   D55       -0.01435  -0.00019   0.00000  -0.00796  -0.00799  -0.02234
   D56        3.12402  -0.00020   0.00000  -0.00780  -0.00783   3.11618
   D57       -0.00337   0.00010   0.00000   0.00183   0.00183  -0.00154
   D58        3.13838  -0.00005   0.00000  -0.00226  -0.00226   3.13612
   D59       -3.13718   0.00014   0.00000   0.00342   0.00342  -3.13377
   D60        0.00456  -0.00001   0.00000  -0.00067  -0.00067   0.00389
   D61       -0.00434  -0.00013   0.00000  -0.00447  -0.00448  -0.00882
   D62        3.14055  -0.00014   0.00000  -0.00407  -0.00408   3.13647
   D63        3.13710   0.00002   0.00000  -0.00037  -0.00038   3.13672
   D64       -0.00120   0.00001   0.00000   0.00003   0.00002  -0.00118
   D65        0.00281   0.00001   0.00000   0.00095   0.00094   0.00375
   D66       -3.13696   0.00008   0.00000   0.00340   0.00339  -3.13357
   D67        3.14111   0.00002   0.00000   0.00055   0.00054  -3.14154
   D68        0.00134   0.00009   0.00000   0.00299   0.00299   0.00433
   D69        0.00639   0.00013   0.00000   0.00512   0.00511   0.01150
   D70       -3.13190   0.00014   0.00000   0.00493   0.00492  -3.12698
   D71       -3.13702   0.00006   0.00000   0.00268   0.00268  -3.13435
   D72        0.00787   0.00007   0.00000   0.00249   0.00249   0.01036
         Item               Value     Threshold  Converged?
 Maximum Force            0.019794     0.000450     NO 
 RMS     Force            0.004718     0.000300     NO 
 Maximum Displacement     0.370100     0.001800     NO 
 RMS     Displacement     0.087506     0.001200     NO 
 Predicted change in Energy=-5.764097D-03
 GradGradGradGradGradGradGradGradGradGradGradGradGradGradGradGradGradGrad

                          Input orientation:                          
 ---------------------------------------------------------------------
 Center     Atomic      Atomic             Coordinates (Angstroms)
 Number     Number       Type             X           Y           Z
 ---------------------------------------------------------------------
      1          7           0       -0.167531   -2.170931   -1.318212
      2         16           0        0.064554   -1.401188   -0.004688
      3          6           0       -1.348668   -0.260497   -0.025348
      4          6           0       -2.279752   -0.452231   -1.048866
      5          6           0       -3.408353    0.357398   -1.126941
      6          6           0       -3.599327    1.357032   -0.175156
      7          6           0       -2.667668    1.538184    0.844014
      8          6           0       -1.518730    0.742772    0.954869
      9          6           0       -0.546391    1.026453    2.067682
     10          6           0        1.436021   -0.237819   -0.132761
     11          6           0        2.493955   -0.280617    0.770293
     12          6           0        3.564013    0.596861    0.593672
     13          6           0        3.564282    1.496240   -0.474067
     14          6           0        2.499446    1.517158   -1.378630
     15          6           0        1.429064    0.641194   -1.214829
     16          7           0        0.354750   -2.075563    1.353398
     17          1           0        0.473572   -2.960399   -1.362399
     18          1           0       -2.088092   -1.251039   -1.768642
     19          1           0       -4.135010    0.207054   -1.928873
     20          1           0       -4.481836    2.000484   -0.224233
     21          1           0       -2.828591    2.322332    1.588801
     22          1           0       -1.051531    1.556910    2.886951
     23          1           0        0.271671    1.671174    1.707008
     24          1           0       -0.095343    0.104256    2.455190
     25          1           0        2.450464   -0.994804    1.595793
     26          1           0        4.400603    0.580155    1.296570
     27          1           0        4.402557    2.185296   -0.605891
     28          1           0        2.505340    2.216797   -2.217861
     29          1           0        0.592559    0.631999   -1.918887
     30          1           0       -0.236864   -2.898625    1.451124
 ---------------------------------------------------------------------
                    Distance matrix (angstroms):
                    1          2          3          4          5
     1  N    0.000000
     2  S    1.540037   0.000000
     3  C    2.591590   1.816260   0.000000
     4  C    2.736413   2.736166   1.396878   0.000000
     5  C    4.114846   4.051316   2.416113   1.391163   0.000000
     6  C    5.052754   4.589212   2.775664   2.403764   1.393425
     7  C    4.968243   4.101858   2.393910   2.774026   2.414027
     8  C    3.934756   2.832685   1.412904   2.454005   2.837802
     9  C    4.672374   3.249833   2.584698   3.860559   4.340976
    10  C    2.777336   1.802984   2.786852   3.833039   4.981027
    11  C    3.875390   2.785366   3.924182   5.111465   6.232479
    12  C    5.023982   4.073874   5.025205   6.160205   7.185523
    13  C    5.299731   4.567658   5.236846   6.187056   7.095128
    14  C    4.551749   4.041431   4.449653   5.179573   6.025818
    15  C    3.235405   2.738184   3.153364   3.870199   4.846531
    16  N    2.723853   1.543823   2.845530   3.917484   5.121750
    17  H    1.017952   2.107561   3.521042   3.737647   5.112002
    18  H    2.176613   2.787107   2.137053   1.092202   2.177599
    19  H    4.665684   4.891347   3.406716   2.156629   1.092579
    20  H    6.100059   5.682362   3.868893   3.397794   2.160319
    21  H    5.976736   4.977358   3.386245   3.867391   3.401815
    22  H    5.688730   4.284573   3.445685   4.586483   4.806741
    23  H    4.909850   3.523096   3.059070   4.314331   4.826992
    24  H    4.406841   2.888412   2.803023   4.166501   4.885874
    25  H    4.090061   2.901595   4.195320   5.446426   6.600566
    26  H    5.939142   4.941691   5.958883   7.155001   8.179414
    27  H    6.353724   5.660617   6.276585   7.197640   8.038844
    28  H    5.215914   4.893403   5.079122   5.602443   6.294381
    29  H    2.965630   2.841971   2.854891   3.191029   4.087772
    30  H    2.864188   2.110109   3.221149   4.050702   5.225557
                    6          7          8          9         10
     6  C    0.000000
     7  C    1.392663   0.000000
     8  C    2.446049   1.401794   0.000000
     9  C    3.802634   2.501809   1.504749   0.000000
    10  C    5.282052   4.576957   3.297734   3.220294   0.000000
    11  C    6.379957   5.473192   4.145243   3.554625   1.391604
    12  C    7.244473   6.307346   5.097650   4.387788   2.398488
    13  C    7.171193   6.369953   5.333534   4.855803   2.766396
    14  C    6.218442   5.624914   4.710693   4.625471   2.400627
    15  C    5.184405   4.671899   3.661611   3.850419   1.394125
    16  N    5.454715   4.738528   3.407604   3.308287   2.599061
    17  H    6.052955   5.913789   4.801300   5.357310   3.138592
    18  H    3.409555   3.865442   3.423006   4.720296   4.015233
    19  H    2.164470   3.407917   3.930380   5.433420   5.870291
    20  H    1.093280   2.155476   3.428136   4.657181   6.327669
    21  H    2.153459   1.093386   2.147700   2.667782   5.263560
    22  H    3.988448   2.604965   2.148030   1.098978   4.304373
    23  H    4.315768   3.066295   2.152482   1.102260   2.895637
    24  H    4.556980   3.356917   2.164415   1.097294   3.026480
    25  H    6.728103   5.759903   4.380007   3.645450   2.142433
    26  H    8.171193   7.147244   5.931417   5.026584   3.391286
    27  H    8.056158   7.246313   6.291143   5.743082   3.859491
    28  H    6.494520   6.049431   5.332177   5.394058   3.393556
    29  H    4.597627   4.368510   3.567673   4.164798   2.158300
    30  H    5.662293   5.095357   3.892201   3.985247   3.519535
                   11         12         13         14         15
    11  C    0.000000
    12  C    1.395058   0.000000
    13  C    2.418936   1.396048   0.000000
    14  C    2.801767   2.422855   1.397336   0.000000
    15  C    2.434017   2.798330   2.416400   1.392789   0.000000
    16  N    2.852725   4.244809   5.137947   4.997134   3.889821
    17  H    3.976375   5.102072   5.495748   4.914565   3.729103
    18  H    5.327576   6.398559   6.416603   5.372200   4.032077
    19  H    7.174015   8.111112   7.940879   6.784920   5.626478
    20  H    7.406360   8.208216   8.065773   7.092569   6.145542
    21  H    5.981203   6.695738   6.768063   6.151579   5.367885
    22  H    4.519648   5.242525   5.710154   5.550334   4.880214
    23  H    3.102494   3.637744   3.953350   3.808919   3.307197
    24  H    3.113113   4.135069   4.889890   4.840186   4.010132
    25  H    1.092430   2.185780   3.424939   3.893526   3.408716
    26  H    2.157129   1.092807   2.161898   3.413074   3.891131
    27  H    3.408427   2.159915   1.093106   2.159945   3.405395
    28  H    3.894389   3.413165   2.163648   1.092628   2.155683
    29  H    3.417582   3.891494   3.415487   2.170623   1.093400
    30  H    3.843809   5.234531   6.121267   5.915577   4.734231
                   16         17         18         19         20
    16  N    0.000000
    17  H    2.858777   0.000000
    18  H    4.049006   3.106295   0.000000
    19  H    6.011788   5.620737   2.518249   0.000000
    20  H    6.518869   7.103651   4.322917   2.498495   0.000000
    21  H    5.434202   6.893556   4.958805   4.307571   2.474652
    22  H    4.186200   6.386627   5.534761   5.875552   4.652227
    23  H    3.764303   5.559990   5.117417   5.897637   5.141398
    24  H    2.483575   4.928465   4.862985   5.962338   5.478714
    25  H    2.370404   4.064796   5.655402   7.565461   7.767949
    26  H    4.839937   5.918379   7.406212   9.132326   9.122933
    27  H    6.195036   6.518236   7.435652   8.863056   8.894507
    28  H    5.983584   5.627011   5.772981   6.943834   7.269249
    29  H    4.253857   3.637191   3.279375   4.746640   5.522146
    30  H    1.018327   2.902490   4.063063   6.022056   6.695363
                   21         22         23         24         25
[...]
     2  S    0.011114  -0.022346  -0.009504   0.232539  -0.011646   0.008261
     3  C    0.039984   0.249521  -0.100157  -0.037419   0.017524  -0.000187
     4  C   -0.133624  -0.078748   0.025455   0.003428  -0.007772   0.000032
     5  C    0.062013  -0.103535  -0.005774   0.000026   0.000010   0.000001
     6  C    0.416861   0.066485   0.016931  -0.000601   0.000176  -0.000007
     7  C    5.050945   0.455386  -0.078555  -0.000587   0.000006  -0.000025
     8  C    0.455386   5.225943   0.314271  -0.027760   0.011160  -0.000018
     9  C   -0.078555   0.314271   5.067738   0.011086   0.007801  -0.001221
    10  C   -0.000587  -0.027760   0.011086   5.507434   0.206009   0.049720
    11  C    0.000006   0.011160   0.007801   0.206009   5.243808   0.397066
    12  C   -0.000025  -0.000018  -0.001221   0.049720   0.397066   4.942536
    13  C   -0.000062  -0.000130   0.000637  -0.123588   0.049496   0.441711
    14  C    0.000052   0.000712  -0.000642   0.075937  -0.092680   0.035941
    15  C    0.001108  -0.022085   0.000352   0.333850  -0.097452  -0.081466
    16  N    0.002801   0.004983  -0.042874  -0.116501   0.013653  -0.002263
    17  H    0.000020  -0.000225   0.000181  -0.003880   0.004735  -0.000120
    18  H   -0.002730   0.006702   0.000005  -0.000972  -0.000375  -0.000001
    19  H    0.011620  -0.001735   0.000062   0.000047  -0.000001   0.000000
    20  H   -0.055602   0.013983  -0.000222  -0.000005   0.000001  -0.000000
    21  H    0.429518  -0.069065  -0.013615   0.000079  -0.000052   0.000001
    22  H   -0.002791  -0.051684   0.386680   0.000892   0.000576   0.000099
    23  H    0.000001  -0.009577   0.380679  -0.009002  -0.000465  -0.000003
    24  H   -0.000921  -0.027060   0.433518  -0.014273   0.004012  -0.000623
    25  H   -0.000009   0.000247   0.001276  -0.047267   0.430895  -0.056802
    26  H    0.000001   0.000016  -0.000099   0.012281  -0.054573   0.428035
    27  H   -0.000000  -0.000000   0.000005  -0.002646   0.009792  -0.048444
    28  H    0.000004   0.000065  -0.000012   0.011562  -0.001467   0.009668
    29  H   -0.000099  -0.001905  -0.000224  -0.063725   0.011837  -0.003580
    30  H   -0.000207  -0.005217   0.001749   0.017861  -0.003957   0.000041
              13         14         15         16         17         18
     1  N   -0.000331  -0.002109   0.005145  -0.111961   0.320176   0.021049
     2  S   -0.000314   0.004143  -0.038298   0.527163  -0.024912   0.001278
     3  C   -0.000278  -0.002533  -0.023061  -0.072594   0.019716  -0.055306
     4  C    0.000194   0.000665   0.015220   0.006105  -0.003776   0.440133
     5  C   -0.000011   0.000022   0.000044   0.001039  -0.000105  -0.060601
     6  C    0.000018  -0.000068  -0.000231  -0.000880   0.000013   0.010326
     7  C   -0.000062   0.000052   0.001108   0.002801   0.000020  -0.002730
     8  C   -0.000130   0.000712  -0.022085   0.004983  -0.000225   0.006702
     9  C    0.000637  -0.000642   0.000352  -0.042874   0.000181   0.000005
    10  C   -0.123588   0.075937   0.333850  -0.116501  -0.003880  -0.000972
    11  C    0.049496  -0.092680  -0.097452   0.013653   0.004735  -0.000375
    12  C    0.441711   0.035941  -0.081466  -0.002263  -0.000120  -0.000001
    13  C    4.906812   0.428513   0.047032   0.001165   0.000002   0.000014
    14  C    0.428513   4.985732   0.377044  -0.002139  -0.000105  -0.000007
    15  C    0.047032   0.377044   5.200126   0.026694  -0.006719   0.001454
    16  N    0.001165  -0.002139   0.026694   6.972917  -0.002761   0.001286
    17  H    0.000002  -0.000105  -0.006719  -0.002761   0.485118  -0.001491
    18  H    0.000014  -0.000007   0.001454   0.001286  -0.001491   0.473914
    19  H   -0.000000  -0.000000  -0.000015   0.000012  -0.000006  -0.006751
    20  H    0.000000   0.000000  -0.000000  -0.000004   0.000000  -0.000113
    21  H   -0.000002  -0.000001   0.000058   0.000104  -0.000001   0.000038
    22  H   -0.000039  -0.000033  -0.000200   0.001025  -0.000001   0.000004
    23  H    0.001130  -0.000509   0.002249   0.000291  -0.000001   0.000008
    24  H    0.000184   0.000024  -0.000735   0.010510  -0.000003  -0.000027
    25  H    0.009495  -0.002864   0.008919   0.019278   0.000200  -0.000009
    26  H   -0.051725   0.009937  -0.000877  -0.000138  -0.000002  -0.000000
    27  H    0.423263  -0.049119   0.009918   0.000003  -0.000000   0.000000
    28  H   -0.051245   0.428371  -0.052611  -0.000002   0.000005  -0.000005
    29  H    0.011792  -0.070757   0.444266   0.001293  -0.000348   0.000482
    30  H   -0.000020   0.000105  -0.000661   0.322589  -0.000464   0.000191
              19         20         21         22         23         24
     1  N   -0.000159   0.000003   0.000003   0.000010   0.000171   0.001118
     2  S   -0.000414   0.000036  -0.000209  -0.000112   0.001305   0.011278
     3  C    0.013678  -0.004765   0.025217   0.015422  -0.014763  -0.028909
     4  C   -0.056304   0.012479  -0.003468  -0.000949  -0.001279  -0.000631
     5  C    0.432015  -0.055366   0.012383   0.000321   0.000463  -0.000126
     6  C   -0.055928   0.430860  -0.059159   0.001044  -0.000946   0.000296
     7  C    0.011620  -0.055602   0.429518  -0.002791   0.000001  -0.000921
     8  C   -0.001735   0.013983  -0.069065  -0.051684  -0.009577  -0.027060
     9  C    0.000062  -0.000222  -0.013615   0.386680   0.380679   0.433518
    10  C    0.000047  -0.000005   0.000079   0.000892  -0.009002  -0.014273
    11  C   -0.000001   0.000001  -0.000052   0.000576  -0.000465   0.004012
    12  C    0.000000  -0.000000   0.000001   0.000099  -0.000003  -0.000623
    13  C   -0.000000   0.000000  -0.000002  -0.000039   0.001130   0.000184
    14  C   -0.000000   0.000000  -0.000001  -0.000033  -0.000509   0.000024
    15  C   -0.000015  -0.000000   0.000058  -0.000200   0.002249  -0.000735
    16  N    0.000012  -0.000004   0.000104   0.001025   0.000291   0.010510
    17  H   -0.000006   0.000000  -0.000001  -0.000001  -0.000001  -0.000003
    18  H   -0.006751  -0.000113   0.000038   0.000004   0.000008  -0.000027
    19  H    0.550989  -0.007931  -0.000249   0.000000  -0.000001  -0.000000
    20  H   -0.007931   0.554501  -0.008578  -0.000095   0.000007   0.000013
    21  H   -0.000249  -0.008578   0.568441   0.006644   0.000474  -0.000054
    22  H    0.000000  -0.000095   0.006644   0.555455  -0.022825  -0.016170
    23  H   -0.000001   0.000007   0.000474  -0.022825   0.547865  -0.026127
    24  H   -0.000000   0.000013  -0.000054  -0.016170  -0.026127   0.482323
    25  H   -0.000000   0.000000  -0.000003  -0.000005  -0.000132   0.001306
    26  H    0.000000  -0.000000   0.000000  -0.000001  -0.000007  -0.000024
    27  H   -0.000000   0.000000  -0.000000  -0.000000  -0.000000   0.000001
    28  H    0.000000  -0.000000  -0.000000   0.000000  -0.000021   0.000002
    29  H   -0.000032   0.000001   0.000001  -0.000014   0.000325  -0.000082
    30  H   -0.000002   0.000000   0.000002  -0.000010  -0.000061  -0.001168
              25         26         27         28         29         30
     1  N    0.000820   0.000012  -0.000001  -0.000002   0.010320  -0.002230
     2  S   -0.002535  -0.000400   0.000042  -0.000320  -0.000271  -0.025420
     3  C    0.000594   0.000023  -0.000004   0.000095   0.004072  -0.005483
     4  C   -0.000282  -0.000001   0.000001  -0.000054   0.001276   0.004144
     5  C    0.000000   0.000000  -0.000000  -0.000000   0.000406  -0.000170
     6  C    0.000007  -0.000000   0.000000  -0.000003   0.000006   0.000038
     7  C   -0.000009   0.000001  -0.000000   0.000004  -0.000099  -0.000207
     8  C    0.000247   0.000016  -0.000000   0.000065  -0.001905  -0.005217
     9  C    0.001276  -0.000099   0.000005  -0.000012  -0.000224   0.001749
    10  C   -0.047267   0.012281  -0.002646   0.011562  -0.063725   0.017861
    11  C    0.430895  -0.054573   0.009792  -0.001467   0.011837  -0.003957
    12  C   -0.056802   0.428035  -0.048444   0.009668  -0.003580   0.000041
    13  C    0.009495  -0.051725   0.423263  -0.051245   0.011792  -0.000020
    14  C   -0.002864   0.009937  -0.049119   0.428371  -0.070757   0.000105
    15  C    0.008919  -0.000877   0.009918  -0.052611   0.444266  -0.000661
    16  N    0.019278  -0.000138   0.000003  -0.000002   0.001293   0.322589
    17  H    0.000200  -0.000002  -0.000000   0.000005  -0.000348  -0.000464
    18  H   -0.000009  -0.000000   0.000000  -0.000005   0.000482   0.000191
    19  H   -0.000000   0.000000  -0.000000   0.000000  -0.000032  -0.000002
    20  H    0.000000  -0.000000   0.000000  -0.000000   0.000001   0.000000
    21  H   -0.000003   0.000000  -0.000000  -0.000000   0.000001   0.000002
    22  H   -0.000005  -0.000001  -0.000000   0.000000  -0.000014  -0.000010
    23  H   -0.000132  -0.000007  -0.000000  -0.000021   0.000325  -0.000061
    24  H    0.001306  -0.000024   0.000001   0.000002  -0.000082  -0.001168
    25  H    0.477534  -0.006512  -0.000141   0.000055  -0.000142  -0.001352
    26  H   -0.006512   0.546871  -0.007576  -0.000243   0.000071  -0.000003
    27  H   -0.000141  -0.007576   0.547551  -0.007386  -0.000171   0.000000
    28  H    0.000055  -0.000243  -0.007386   0.545321  -0.007279  -0.000000
    29  H   -0.000142   0.000071  -0.000171  -0.007279   0.518663  -0.000078
    30  H   -0.001352  -0.000003   0.000000  -0.000000  -0.000078   0.482144
 Mulliken charges:
               1
     1  N   -0.559309
     2  S    0.451621
     3  C    0.055291
     4  C   -0.125745
     5  C   -0.147317
     6  C   -0.088977
     7  C   -0.205732
     8  C    0.047714
     9  C   -0.392928
    10  C    0.064987
    11  C   -0.147465
    12  C   -0.118757
    13  C   -0.093714
    14  C   -0.123632
    15  C   -0.149067
    16  N   -0.560792
    17  H    0.214753
    18  H    0.171504
    19  H    0.121106
    20  H    0.120796
    21  H    0.111492
    22  H    0.126758
    23  H    0.150749
    24  H    0.172348
    25  H    0.167430
    26  H    0.124934
    27  H    0.124912
    28  H    0.125503
    29  H    0.143894
    30  H    0.217641
 Sum of Mulliken charges =  -0.00000
 Mulliken charges with hydrogens summed into heavy atoms:
               1
     1  N   -0.344555
     2  S    0.451621
     3  C    0.055291
     4  C    0.045760
     5  C   -0.026211
     6  C    0.031819
     7  C   -0.094240
     8  C    0.047714
     9  C    0.056927
    10  C    0.064987
    11  C    0.019966
    12  C    0.006177
    13  C    0.031198
    14  C    0.001871
    15  C   -0.005173
    16  N   -0.343151
 Electronic spatial extent (au):  <R**2>=           3662.0045
 Charge=              0.0000 electrons
 Dipole moment (field-independent basis, Debye):
    X=             -0.3731    Y=             -2.4927    Z=             -0.4567  Tot=              2.5615
 Quadrupole moment (field-independent basis, Debye-Ang):
   XX=            -89.6436   YY=           -101.3909   ZZ=           -100.7572
   XY=              0.6824   XZ=              0.3137   YZ=              0.3948
 Traceless Quadrupole moment (field-independent basis, Debye-Ang):
   XX=              7.6203   YY=             -4.1270   ZZ=             -3.4933
   XY=              0.6824   XZ=              0.3137   YZ=              0.3948
 Octapole moment (field-independent basis, Debye-Ang**2):
  XXX=             -6.4074  YYY=             10.0788  ZZZ=             -6.0588  XYY=              0.5953
  XXY=            -27.9632  XXZ=             -9.5957  XZZ=             -1.0871  YZZ=             -6.9802
  YYZ=              7.9417  XYZ=             -3.6960
 Hexadecapole moment (field-independent basis, Debye-Ang**3):
 XXXX=          -2954.8795 YYYY=          -1034.6421 ZZZZ=           -828.6826 XXXY=             31.7579
 XXXZ=            -93.6073 YYYX=            -37.4989 YYYZ=              5.4242 ZZZX=             11.3384
 ZZZY=             12.4360 XXYY=           -660.0261 XXZZ=           -632.3184 YYZZ=           -310.4701
 XXYZ=              8.5082 YYXZ=             42.9523 ZZXY=             29.4478
 N-N= 1.210804418398D+03 E-N=-4.790546668212D+03  KE= 1.006760384491D+03
 Breneman (CHELPG) radii used.
 Read replacement radii for each type of atom:
 Atom Element Radius
    1     7    1.70
    2    16    2.00
    3     6    1.50
    4     6    1.50
    5     6    1.50
    6     6    1.50
    7     6    1.50
    8     6    1.50
    9     6    1.50
   10     6    1.50
   11     6    1.50
   12     6    1.50
   13     6    1.50
   14     6    1.50
   15     6    1.50
   16     7    1.70
   17     1    1.45
   18     1    1.45
   19     1    1.45
   20     1    1.45
   21     1    1.45
   22     1    1.45
   23     1    1.45
   24     1    1.45
   25     1    1.45
   26     1    1.45
   27     1    1.45
   28     1    1.45
   29     1    1.45
   30     1    1.45
 Generate Potential Derived Charges using the Breneman model, NDens= 1.
 Grid spacing= 0.300 Box extension= 2.800
 NStep X,Y,Z=   50     39     37   Total possible points=       72150
 Number of Points to Fit=   18302

 **********************************************************************

            Electrostatic Properties Using The SCF Density.

 **********************************************************************

       Atomic Center    1 is at   0.151639  2.393341 -0.864616
       Atomic Center    2 is at  -0.054049  1.345041  0.258920
       Atomic Center    3 is at   1.360509  0.253936 -0.017718
       Atomic Center    4 is at   2.297739  0.646530 -0.974008
       Atomic Center    5 is at   3.443462 -0.114870 -1.178095
       Atomic Center    6 is at   3.644734 -1.265702 -0.419907
       Atomic Center    7 is at   2.705036 -1.643355  0.534624
       Atomic Center    8 is at   1.540844 -0.900128  0.769497
       Atomic Center    9 is at   0.565892 -1.369239  1.807823
       Atomic Center   10 is at  -1.448910  0.266093 -0.083985
       Atomic Center   11 is at  -2.453700  0.062621  0.856767
       Atomic Center   12 is at  -3.548806 -0.726065  0.507065
       Atomic Center   13 is at  -3.625857 -1.297810 -0.762698
       Atomic Center   14 is at  -2.613601 -1.074465 -1.697952
       Atomic Center   15 is at  -1.521622 -0.278383 -1.364824
       Atomic Center   16 is at  -0.300789  1.708480  1.748269
       Atomic Center   17 is at  -0.603937  3.077159 -0.775816
       Atomic Center   18 is at   2.093206  1.555377 -1.542377
       Atomic Center   19 is at   4.175133  0.192629 -1.928512
       Atomic Center   20 is at   4.540248 -1.873955 -0.568547
       Atomic Center   21 is at   2.872136 -2.545021  1.129830
       Atomic Center   22 is at   1.023784 -2.143297  2.438301
       Atomic Center   23 is at  -0.330102 -1.804104  1.336081
       Atomic Center   24 is at   0.221884 -0.535316  2.435407
       Atomic Center   25 is at  -2.349834  0.523185  1.840734
       Atomic Center   26 is at  -4.346375 -0.897010  1.233919
       Atomic Center   27 is at  -4.483977 -1.919654 -1.028641
       Atomic Center   28 is at  -2.679777 -1.516429 -2.694687
       Atomic Center   29 is at  -0.729550 -0.068971 -2.087891
       Atomic Center   30 is at   0.431660  2.367029  2.024380
   18302 points will be used for fitting atomic charges
 Fitting point charges to electrostatic potential
 Charges from ESP fit, RMS=   0.00364 RRMS=   0.32024:
 ESP charges:
               1
     1  N   -0.690687
     2  S    0.427178
     3  C    0.032893
     4  C   -0.015934
     5  C   -0.200043
     6  C   -0.025779
     7  C   -0.209299
     8  C    0.117152
     9  C   -0.201011
    10  C    0.201416
    11  C   -0.078820
    12  C   -0.096044
    13  C   -0.110771
    14  C   -0.055310
    15  C   -0.166967
    16  N   -0.701800
    17  H    0.313376
    18  H    0.111653
    19  H    0.120780
    20  H    0.091564
    21  H    0.120279
    22  H    0.069160
    23  H    0.032913
    24  H    0.084152
    25  H    0.105557
    26  H    0.098594
    27  H    0.101264
    28  H    0.096927
    29  H    0.094524
    30  H    0.333082
 Sum of ESP charges =  -0.00000
 ESP charges with hydrogens summed into heavy atoms:
               1
     1  N   -0.377311
     2  S    0.427178
     3  C    0.032893
     4  C    0.095719
     5  C   -0.079263
     6  C    0.065785
     7  C   -0.089020
     8  C    0.117152
     9  C   -0.014786
    10  C    0.201416
    11  C    0.026737
    12  C    0.002550
    13  C   -0.009507
    14  C    0.041617
    15  C   -0.072443
    16  N   -0.368718
 Charge=  -0.00000 Dipole=    -0.3610    -2.4201    -0.4278 Tot=     2.4840
 -----------------------------------------------------------------

              Electrostatic Properties (Atomic Units)

 -----------------------------------------------------------------
    Center     Electric         -------- Electric Field --------
               Potential          X             Y             Z
 -----------------------------------------------------------------
    1 Atom    -18.427294
    2 Atom    -59.074024
    3 Atom    -14.732651
    4 Atom    -14.756676
    5 Atom    -14.757965
    6 Atom    -14.753760
    7 Atom    -14.757851
    8 Atom    -14.735365
    9 Atom    -14.769945
   10 Atom    -14.730933
   11 Atom    -14.749241
   12 Atom    -14.749443
   13 Atom    -14.747457
   14 Atom    -14.748479
   15 Atom    -14.745300
   16 Atom    -18.426134
   17 Atom     -1.051173
   18 Atom     -1.102941
   19 Atom     -1.098276
   20 Atom     -1.095046
   21 Atom     -1.097606
   22 Atom     -1.113029
   23 Atom     -1.109170
   24 Atom     -1.115711
   25 Atom     -1.095357
   26 Atom     -1.092243
   27 Atom     -1.090388
   28 Atom     -1.091038
   29 Atom     -1.087879
   30 Atom     -1.050618
 -----------------------------------------------------------------
 Unable to Open any file for archive entry.
 1\1\GINC-NOTCH028\SP\RPBE1PBE\def2TZVP\C13H14N2S1\U1414944\10-Feb-2025
 \0\\#N Guess=Read Geom=Check Integral(Ultrafine) Density Pop=(ChelpG,R
 eadRadii) NMR pbe1pbe EmpiricalDispersion=GD3BJ def2TZVP\\SDI0125_1\\0
 ,1\N,0,-0.1472873988,-2.135997284,-1.3506574629\S,0,0.0647225106,-1.35
 03369575,-0.0310505628\C,0,-1.3576570376,-0.234886206,-0.0558848223\C,
 0,-2.3025722462,-0.4206011902,-1.0656696926\C,0,-3.4538555436,0.359076
 8771,-1.0923919431\C,0,-3.6529269673,1.3201507972,-0.1042219385\C,0,-2
 .7054911504,1.4916614263,0.900632909\C,0,-1.5355175071,0.7232904233,0.
 9611476778\C,0,-0.5524197998,0.966498387,2.0670798686\C,0,1.4509821642
 ,-0.213685605,-0.1479200232\C,0,2.4641870315,-0.2089577323,0.805710243
 8\C,0,3.5520079519,0.6435602228,0.6228592843\C,0,3.6136294132,1.473685
 5996,-0.4961677156\C,0,2.5931065031,1.448319637,-1.4486045186\C,0,1.50
 82824217,0.5921344808,-1.2835517182\N,0,0.3280945578,-2.021654948,1.34
 41209726\H,0,0.6123510652,-2.8179025065,-1.4165621731\H,0,-2.099474990
 9,-1.185771571,-1.8167658045\H,0,-4.191559855,0.2139317929,-1.88469803
 59\H,0,-4.5527391515,1.9400646896,-0.1116784543\H,0,-2.8708546855,2.24
 43398728,1.6760833376\H,0,-1.0076030372,1.5850243111,2.8522977294\H,0,
 0.3367419255,1.4980687455,1.69121099\H,0,-0.1982143965,0.020166016,2.4
 990810327\H,0,2.3723631552,-0.8696391269,1.6695190573\H,0,4.3560132945
 ,0.6607767181,1.3624095691\H,0,4.4661034491,2.1437343536,-0.6307357186
 \H,0,2.6472025154,2.0933017363,-2.3285266749\H,0,0.7099928477,0.536568
 7861,-2.0276643123\H,0,-0.3984413908,-2.7288863354,1.4796796139\\Versi
 on=ES64L-G16RevC.01\State=1-A\HF=-1010.8135209\RMSD=4.030e-09\Dipole=0
 .1403491,0.9974036,0.0325702\Quadrupole=5.6550741,-2.916669,-2.7384051
 ,0.6000341,-0.1908951,-0.3711461\PG=C01 [X(C13H14N2S1)]\\@
 The archive entry for this job was punched.


 The arm of the moral universe is long, but it bends toward justice.
 -- Martin Luther King, Jr.
 Job cpu time:       0 days  1 hours 15 minutes 45.5 seconds.
 Elapsed time:       0 days  0 hours  5 minutes  6.9 seconds.
 File lengths (MBytes):  RWF=    209 Int=      0 D2E=      0 Chk=     32 Scr=      2
 Normal termination of Gaussian 16 at Mon Feb 10 20:09:55 2025.
