 Entering Gaussian System, Link 0=g16
 Input=SDI0125_2.com
 Output=SDI0125_2.log
 Initial command:
 /uufs/chpc.utah.edu/sys/installdir/gaussian16/C01/AVX/g16/l1.exe "/scratch/general/vast/u1414944/3119879-notchpeak.peaks/Gau-811798.inp" -scrdir="/scratch/general/vast/u1414944/3119879-notchpeak.peaks/"
 Entering Link 1 = /uufs/chpc.utah.edu/sys/installdir/gaussian16/C01/AVX/g16/l1.exe PID=    811799.
  
 Copyright (c) 1988-2019, Gaussian, Inc.  All Rights Reserved.
  
 This is part of the Gaussian(R) 16 program.  It is based on
 the Gaussian(R) 09 system (copyright 2009, Gaussian, Inc.),
 the Gaussian(R) 03 system (copyright 2003, Gaussian, Inc.),
 the Gaussian(R) 98 system (copyright 1998, Gaussian, Inc.),
 the Gaussian(R) 94 system (copyright 1995, Gaussian, Inc.),
 the Gaussian 92(TM) system (copyright 1992, Gaussian, Inc.),
 the Gaussian 90(TM) system (copyright 1990, Gaussian, Inc.),
 the Gaussian 88(TM) system (copyright 1988, Gaussian, Inc.),
 the Gaussian 86(TM) system (copyright 1986, Carnegie Mellon
 University), and the Gaussian 82(TM) system (copyright 1983,
 Carnegie Mellon University). Gaussian is a federally registered
 trademark of Gaussian, Inc.
  
 This software contains proprietary and confidential information,
 including trade secrets, belonging to Gaussian, Inc.
  
 This software is provided under written license and may be
 used, copied, transmitted, or stored only in accord with that
 written license.
  
 The following legend is applicable only to US Government
 contracts under FAR:
  
                    RESTRICTED RIGHTS LEGEND
  
 Use, reproduction and disclosure by the US Government is
 subject to restrictions as set forth in subparagraphs (a)
 and (c) of the Commercial Computer Software - Restricted
 Rights clause in FAR 52.227-19.
  
 Gaussian, Inc.
 340 Quinnipiac St., Bldg. 40, Wallingford CT 06492
  
  
 ---------------------------------------------------------------
 Warning -- This program may not be used in any manner that
 competes with the business of Gaussian, Inc. or will provide
 assistance to any competitor of Gaussian, Inc.  The licensee
 of this program is prohibited from giving any competitor of
 Gaussian, Inc. access to this program.  By using this program,
 the user acknowledges that Gaussian, Inc. is engaged in the
 business of creating and licensing software in the field of
 computational chemistry and represents and warrants to the
 licensee that it is not a competitor of Gaussian, Inc. and that
 it will not use this program in any manner prohibited above.
 ---------------------------------------------------------------
  

 Cite this work as:
 Gaussian 16, Revision C.01,
 M. J. Frisch, G. W. Trucks, H. B. Schlegel, G. E. Scuseria, 
 M. A. Robb, J. R. Cheeseman, G. Scalmani, V. Barone, 
 G. A. Petersson, H. Nakatsuji, X. Li, M. Caricato, A. V. Marenich, 
 J. Bloino, B. G. Janesko, R. Gomperts, B. Mennucci, H. P. Hratchian, 
 J. V. Ortiz, A. F. Izmaylov, J. L. Sonnenberg, D. Williams-Young, 
 F. Ding, F. Lipparini, F. Egidi, J. Goings, B. Peng, A. Petrone, 
 T. Henderson, D. Ranasinghe, V. G. Zakrzewski, J. Gao, N. Rega, 
 G. Zheng, W. Liang, M. Hada, M. Ehara, K. Toyota, R. Fukuda, 
 J. Hasegawa, M. Ishida, T. Nakajima, Y. Honda, O. Kitao, H. Nakai, 
 T. Vreven, K. Throssell, J. A. Montgomery, Jr., J. E. Peralta, 
 F. Ogliaro, M. J. Bearpark, J. J. Heyd, E. N. Brothers, K. N. Kudin, 
 V. N. Staroverov, T. A. Keith, R. Kobayashi, J. Normand, 
 K. Raghavachari, A. P. Rendell, J. C. Burant, S. S. Iyengar, 
 J. Tomasi, M. Cossi, J. M. Millam, M. Klene, C. Adamo, R. Cammi, 
 J. W. Ochterski, R. L. Martin, K. Morokuma, O. Farkas, 
 J. B. Foresman, and D. J. Fox, Gaussian, Inc., Wallingford CT, 2019.
 
 ******************************************
 Gaussian 16:  ES64L-G16RevC.01  3-Jul-2019
                10-Feb-2025 
 ******************************************
 %NProcShared=16
 Will use up to   16 processors via shared memory.
 %Mem=40GB
 %chk=SDI0125_2.chk
 ----------------------------------------------------------------------
 #N OPT FREQ=NORAMAN Integral(Ultrafine) pbe1pbe EmpiricalDispersion=GD
 3BJ def2SVP
 ----------------------------------------------------------------------
 1/18=20,19=15,26=4,38=1/1,3;
 2/9=110,12=2,17=6,18=5,40=1/2;
 3/5=43,7=101,11=2,25=1,30=1,71=1,74=-13,75=-5,124=41/1,2,3;
 4//1;
 5/5=2,38=5/2;
 6/7=2,8=2,9=2,10=2,28=1/1;
 7//1,2,3,16;
 1/18=20,19=15,26=4/3(2);
 2/9=110/2;
 99//99;
 2/9=110/2;
 3/5=43,7=101,11=2,25=1,30=1,71=1,74=-13,75=-5,124=41/1,2,3;
 4/5=5,16=3,69=1/1;
 5/5=2,38=5/2;
 7//1,2,3,16;
 1/18=20,19=15,26=4/3(-5);
 2/9=110/2;
 6/7=2,8=2,9=2,10=2,19=2,28=1/1;
 99/9=1/99;
 ---------
 SDI0125_2
 ---------
 Symbolic Z-matrix:
 Charge =  0 Multiplicity = 1
 N                     0.15641  -2.30797  -1.10981 
 S                     0.07739  -1.40645   0.13484 
 C                    -1.32571  -0.25192   0.04046 
 C                    -2.10496  -0.36508  -1.09612 
 C                    -3.18523   0.47679  -1.28808 
 C                    -3.47232   1.43441  -0.3297 
 C                    -2.68286   1.54483   0.8012 
 C                    -1.59151   0.707     1.0101 
 C                    -0.73794   0.85214   2.22643 
 C                     1.42504  -0.23867  -0.17515 
 C                     1.54059   0.33123  -1.42833 
 C                     2.567     1.22802  -1.66991 
 C                     3.4625    1.54553  -0.66012 
 C                     3.34041   0.9644    0.59165 
 C                     2.31491   0.06626   0.8365 
 N                     0.06581  -1.95161   1.57772 
 H                    -0.31667  -3.19126  -1.00381 
 H                    -1.84393  -1.1236   -1.82014 
 H                    -3.79608   0.38587  -2.17339 
 H                    -4.314     2.09807  -0.46329 
 H                    -2.91382   2.29616   1.54287 
 H                     0.14389   1.44991   1.99092 
 H                    -0.40782  -0.12917   2.55793 
 H                    -1.28548   1.34914   3.02348 
 H                     0.838     0.05436  -2.19748 
 H                     2.67026   1.67949  -2.64538 
 H                     4.26175   2.24644  -0.85134 
 H                     4.04272   1.20912   1.37471 
 H                     2.19402  -0.40637   1.80006 
 H                     0.54092  -2.83542   1.67117 
 

 GradGradGradGradGradGradGradGradGradGradGradGradGradGradGradGradGradGrad
 Berny optimization.
 Initialization pass.
                           ----------------------------
                           !    Initial Parameters    !
                           ! (Angstroms and Degrees)  !
 --------------------------                            --------------------------
 ! Name  Definition              Value          Derivative Info.                !
 --------------------------------------------------------------------------------
 ! R1    R(1,2)                  1.5389         estimate D2E/DX2                !
 ! R2    R(1,17)                 1.0076         estimate D2E/DX2                !
 ! R3    R(2,3)                  1.8195         estimate D2E/DX2                !
 ! R4    R(2,10)                 1.81           estimate D2E/DX2                !
 ! R5    R(2,16)                 1.5425         estimate D2E/DX2                !
 ! R6    R(3,4)                  1.3827         estimate D2E/DX2                !
 ! R7    R(3,8)                  1.3894         estimate D2E/DX2                !
 ! R8    R(4,5)                  1.383          estimate D2E/DX2                !
 ! R9    R(4,18)                 1.0806         estimate D2E/DX2                !
 ! R10   R(5,6)                  1.3849         estimate D2E/DX2                !
 ! R11   R(5,19)                 1.0794         estimate D2E/DX2                !
 ! R12   R(6,7)                  1.3836         estimate D2E/DX2                !
 ! R13   R(6,20)                 1.0801         estimate D2E/DX2                !
 ! R14   R(7,8)                  1.3916         estimate D2E/DX2                !
 ! R15   R(7,21)                 1.0807         estimate D2E/DX2                !
 ! R16   R(8,9)                  1.493          estimate D2E/DX2                !
 ! R17   R(9,22)                 1.0911         estimate D2E/DX2                !
 ! R18   R(9,23)                 1.0871         estimate D2E/DX2                !
 ! R19   R(9,24)                 1.0872         estimate D2E/DX2                !
 ! R20   R(10,11)                1.3815         estimate D2E/DX2                !
 ! R21   R(10,15)                1.3814         estimate D2E/DX2                !
 ! R22   R(11,12)                1.3842         estimate D2E/DX2                !
 ! R23   R(11,25)                1.0779         estimate D2E/DX2                !
 ! R24   R(12,13)                1.3865         estimate D2E/DX2                !
 ! R25   R(12,26)                1.0798         estimate D2E/DX2                !
 ! R26   R(13,14)                1.3855         estimate D2E/DX2                !
 ! R27   R(13,27)                1.0801         estimate D2E/DX2                !
 ! R28   R(14,15)                1.385          estimate D2E/DX2                !
 ! R29   R(14,28)                1.08           estimate D2E/DX2                !
 ! R30   R(15,29)                1.08           estimate D2E/DX2                !
 ! R31   R(16,30)                1.0078         estimate D2E/DX2                !
 ! A1    A(2,1,17)             113.8517         estimate D2E/DX2                !
 ! A2    A(1,2,3)              111.6772         estimate D2E/DX2                !
 ! A3    A(1,2,10)             101.6086         estimate D2E/DX2                !
 ! A4    A(1,2,16)             123.3613         estimate D2E/DX2                !
 ! A5    A(3,2,10)              98.9688         estimate D2E/DX2                !
 ! A6    A(3,2,16)             105.4855         estimate D2E/DX2                !
 ! A7    A(10,2,16)            113.1928         estimate D2E/DX2                !
 ! A8    A(2,3,4)              115.1702         estimate D2E/DX2                !
 ! A9    A(2,3,8)              123.317          estimate D2E/DX2                !
 ! A10   A(4,3,8)              121.489          estimate D2E/DX2                !
 ! A11   A(3,4,5)              120.2987         estimate D2E/DX2                !
 ! A12   A(3,4,18)             118.1686         estimate D2E/DX2                !
 ! A13   A(5,4,18)             121.5327         estimate D2E/DX2                !
 ! A14   A(4,5,6)              119.1304         estimate D2E/DX2                !
 ! A15   A(4,5,19)             120.3056         estimate D2E/DX2                !
 ! A16   A(6,5,19)             120.564          estimate D2E/DX2                !
 ! A17   A(5,6,7)              120.1672         estimate D2E/DX2                !
 ! A18   A(5,6,20)             120.0527         estimate D2E/DX2                !
 ! A19   A(7,6,20)             119.7801         estimate D2E/DX2                !
 ! A20   A(6,7,8)              121.4743         estimate D2E/DX2                !
 ! A21   A(6,7,21)             119.6358         estimate D2E/DX2                !
 ! A22   A(8,7,21)             118.8899         estimate D2E/DX2                !
 ! A23   A(3,8,7)              117.4376         estimate D2E/DX2                !
 ! A24   A(3,8,9)              121.7544         estimate D2E/DX2                !
 ! A25   A(7,8,9)              120.805          estimate D2E/DX2                !
 ! A26   A(8,9,22)             109.8453         estimate D2E/DX2                !
 ! A27   A(8,9,23)             109.529          estimate D2E/DX2                !
 ! A28   A(8,9,24)             110.7174         estimate D2E/DX2                !
 ! A29   A(22,9,23)            108.3572         estimate D2E/DX2                !
 ! A30   A(22,9,24)            108.3499         estimate D2E/DX2                !
 ! A31   A(23,9,24)            109.9992         estimate D2E/DX2                !
 ! A32   A(2,10,11)            118.9331         estimate D2E/DX2                !
 ! A33   A(2,10,15)            119.7777         estimate D2E/DX2                !
 ! A34   A(11,10,15)           121.2892         estimate D2E/DX2                !
 ! A35   A(10,11,12)           119.182          estimate D2E/DX2                !
 ! A36   A(10,11,25)           119.13           estimate D2E/DX2                !
 ! A37   A(12,11,25)           121.6812         estimate D2E/DX2                !
 ! A38   A(11,12,13)           120.0106         estimate D2E/DX2                !
 ! A39   A(11,12,26)           119.9622         estimate D2E/DX2                !
 ! A40   A(13,12,26)           120.0272         estimate D2E/DX2                !
 ! A41   A(12,13,14)           120.3347         estimate D2E/DX2                !
 ! A42   A(12,13,27)           119.8403         estimate D2E/DX2                !
 ! A43   A(14,13,27)           119.8246         estimate D2E/DX2                !
 ! A44   A(13,14,15)           119.7997         estimate D2E/DX2                !
 ! A45   A(13,14,28)           120.1827         estimate D2E/DX2                !
 ! A46   A(15,14,28)           120.0176         estimate D2E/DX2                !
 ! A47   A(10,15,14)           119.3828         estimate D2E/DX2                !
 ! A48   A(10,15,29)           118.99           estimate D2E/DX2                !
 ! A49   A(14,15,29)           121.6268         estimate D2E/DX2                !
 ! A50   A(2,16,30)            113.1509         estimate D2E/DX2                !
 ! D1    D(17,1,2,3)           -93.3915         estimate D2E/DX2                !
 ! D2    D(17,1,2,10)          161.9583         estimate D2E/DX2                !
 ! D3    D(17,1,2,16)           33.8882         estimate D2E/DX2                !
 ! D4    D(1,2,3,4)              0.8892         estimate D2E/DX2                !
 ! D5    D(1,2,3,8)           -177.36           estimate D2E/DX2                !
 ! D6    D(10,2,3,4)           107.2659         estimate D2E/DX2                !
 ! D7    D(10,2,3,8)           -70.9833         estimate D2E/DX2                !
 ! D8    D(16,2,3,4)          -135.5117         estimate D2E/DX2                !
 ! D9    D(16,2,3,8)            46.2392         estimate D2E/DX2                !
 ! D10   D(1,2,10,11)           46.1739         estimate D2E/DX2                !
 ! D11   D(1,2,10,15)         -133.8142         estimate D2E/DX2                !
 ! D12   D(3,2,10,11)          -68.2937         estimate D2E/DX2                !
 ! D13   D(3,2,10,15)          111.7182         estimate D2E/DX2                !
 ! D14   D(16,2,10,11)        -179.4974         estimate D2E/DX2                !
 ! D15   D(16,2,10,15)           0.5145         estimate D2E/DX2                !
 ! D16   D(1,2,16,30)           27.8206         estimate D2E/DX2                !
 ! D17   D(3,2,16,30)          157.7112         estimate D2E/DX2                !
 ! D18   D(10,2,16,30)         -95.1496         estimate D2E/DX2                !
 ! D19   D(2,3,4,5)           -178.8463         estimate D2E/DX2                !
 ! D20   D(2,3,4,18)             1.115          estimate D2E/DX2                !
 ! D21   D(8,3,4,5)             -0.562          estimate D2E/DX2                !
 ! D22   D(8,3,4,18)           179.3993         estimate D2E/DX2                !
 ! D23   D(2,3,8,7)            178.7409         estimate D2E/DX2                !
 ! D24   D(2,3,8,9)             -0.6273         estimate D2E/DX2                !
 ! D25   D(4,3,8,7)              0.5992         estimate D2E/DX2                !
 ! D26   D(4,3,8,9)           -178.7691         estimate D2E/DX2                !
 ! D27   D(3,4,5,6)              0.1637         estimate D2E/DX2                !
 ! D28   D(3,4,5,19)          -179.7475         estimate D2E/DX2                !
 ! D29   D(18,4,5,6)          -179.7962         estimate D2E/DX2                !
 ! D30   D(18,4,5,19)            0.2925         estimate D2E/DX2                !
 ! D31   D(4,5,6,7)              0.1695         estimate D2E/DX2                !
 ! D32   D(4,5,6,20)          -179.8451         estimate D2E/DX2                !
 ! D33   D(19,5,6,7)          -179.9194         estimate D2E/DX2                !
 ! D34   D(19,5,6,20)            0.0659         estimate D2E/DX2                !
 ! D35   D(5,6,7,8)             -0.1184         estimate D2E/DX2                !
 ! D36   D(5,6,7,21)           179.9079         estimate D2E/DX2                !
 ! D37   D(20,6,7,8)           179.8962         estimate D2E/DX2                !
 ! D38   D(20,6,7,21)           -0.0775         estimate D2E/DX2                !
 ! D39   D(6,7,8,3)             -0.2601         estimate D2E/DX2                !
 ! D40   D(6,7,8,9)            179.1145         estimate D2E/DX2                !
 ! D41   D(21,7,8,3)           179.7138         estimate D2E/DX2                !
 ! D42   D(21,7,8,9)            -0.9116         estimate D2E/DX2                !
 ! D43   D(3,8,9,22)            82.3996         estimate D2E/DX2                !
 ! D44   D(3,8,9,23)           -36.4999         estimate D2E/DX2                !
 ! D45   D(3,8,9,24)          -157.9743         estimate D2E/DX2                !
 ! D46   D(7,8,9,22)           -96.9477         estimate D2E/DX2                !
 ! D47   D(7,8,9,23)           144.1529         estimate D2E/DX2                !
 ! D48   D(7,8,9,24)            22.6784         estimate D2E/DX2                !
 ! D49   D(2,10,11,12)         179.8112         estimate D2E/DX2                !
 ! D50   D(2,10,11,25)          -1.1273         estimate D2E/DX2                !
 ! D51   D(15,10,11,12)         -0.2009         estimate D2E/DX2                !
 ! D52   D(15,10,11,25)        178.8606         estimate D2E/DX2                !
 ! D53   D(2,10,15,14)        -179.7819         estimate D2E/DX2                !
 ! D54   D(2,10,15,29)           0.4231         estimate D2E/DX2                !
 ! D55   D(11,10,15,14)          0.2303         estimate D2E/DX2                !
 ! D56   D(11,10,15,29)       -179.5647         estimate D2E/DX2                !
 ! D57   D(10,11,12,13)         -0.0709         estimate D2E/DX2                !
 ! D58   D(10,11,12,26)        179.881          estimate D2E/DX2                !
 ! D59   D(25,11,12,13)       -179.1075         estimate D2E/DX2                !
 ! D60   D(25,11,12,26)          0.8444         estimate D2E/DX2                !
 ! D61   D(11,12,13,14)          0.3113         estimate D2E/DX2                !
 ! D62   D(11,12,13,27)       -179.935          estimate D2E/DX2                !
 ! D63   D(26,12,13,14)       -179.6405         estimate D2E/DX2                !
 ! D64   D(26,12,13,27)          0.1132         estimate D2E/DX2                !
 ! D65   D(12,13,14,15)         -0.2815         estimate D2E/DX2                !
 ! D66   D(12,13,14,28)        179.6438         estimate D2E/DX2                !
 ! D67   D(27,13,14,15)        179.9648         estimate D2E/DX2                !
 ! D68   D(27,13,14,28)         -0.11           estimate D2E/DX2                !
 ! D69   D(13,14,15,10)          0.0126         estimate D2E/DX2                !
 ! D70   D(13,14,15,29)        179.802          estimate D2E/DX2                !
 ! D71   D(28,14,15,10)       -179.9128         estimate D2E/DX2                !
 ! D72   D(28,14,15,29)         -0.1233         estimate D2E/DX2                !
 --------------------------------------------------------------------------------
 Trust Radius=3.00D-01 FncErr=1.00D-07 GrdErr=1.00D-06 EigMax=2.50D+02 EigMin=1.00D-04
 Number of steps in this run=    163 maximum allowed number of steps=    180.
 GradGradGradGradGradGradGradGradGradGradGradGradGradGradGradGradGradGrad

                          Input orientation:                          
 ---------------------------------------------------------------------
 Center     Atomic      Atomic             Coordinates (Angstroms)
 Number     Number       Type             X           Y           Z
 ---------------------------------------------------------------------
      1          7           0        0.156408   -2.307969   -1.109805
      2         16           0        0.077390   -1.406449    0.134837
      3          6           0       -1.325707   -0.251922    0.040461
      4          6           0       -2.104958   -0.365079   -1.096115
      5          6           0       -3.185231    0.476789   -1.288083
      6          6           0       -3.472325    1.434411   -0.329699
      7          6           0       -2.682864    1.544827    0.801198
      8          6           0       -1.591507    0.707001    1.010103
      9          6           0       -0.737942    0.852137    2.226425
     10          6           0        1.425036   -0.238673   -0.175147
     11          6           0        1.540590    0.331230   -1.428328
     12          6           0        2.567004    1.228022   -1.669911
     13          6           0        3.462496    1.545530   -0.660122
     14          6           0        3.340409    0.964402    0.591650
     15          6           0        2.314913    0.066260    0.836503
     16          7           0        0.065812   -1.951605    1.577723
     17          1           0       -0.316674   -3.191262   -1.003811
     18          1           0       -1.843930   -1.123603   -1.820143
     19          1           0       -3.796075    0.385871   -2.173388
     20          1           0       -4.313996    2.098069   -0.463294
     21          1           0       -2.913819    2.296157    1.542872
     22          1           0        0.143885    1.449910    1.990919
     23          1           0       -0.407816   -0.129173    2.557926
     24          1           0       -1.285484    1.349137    3.023482
     25          1           0        0.837996    0.054359   -2.197482
     26          1           0        2.670265    1.679489   -2.645383
     27          1           0        4.261745    2.246439   -0.851345
     28          1           0        4.042722    1.209122    1.374714
     29          1           0        2.194020   -0.406369    1.800063
     30          1           0        0.540919   -2.835420    1.671166
 ---------------------------------------------------------------------
                    Distance matrix (angstroms):
                    1          2          3          4          5
     1  N    0.000000
     2  S    1.538868   0.000000
     3  C    2.783362   1.819483   0.000000
     4  C    2.981406   2.713363   1.382694   0.000000
     5  C    4.353529   4.026907   2.398725   1.382962   0.000000
     6  C    5.270832   4.570203   2.754761   2.386472   1.384905
     7  C    5.153391   4.095494   2.376743   2.753455   2.399619
     8  C    4.079125   2.831604   1.389385   2.418500   2.806174
     9  C    4.681513   3.184449   2.518502   3.793365   4.299055
    10  C    2.600959   1.809956   2.759211   3.650345   4.796360
    11  C    2.997130   2.757529   3.273081   3.726289   4.730141
    12  C    4.316008   4.049164   4.502089   4.969350   5.813635
    13  C    5.097243   4.561258   5.162221   5.902292   6.762308
    14  C    4.872497   4.059175   4.853441   5.853896   6.808461
    15  C    3.752895   2.769064   3.740192   4.843173   5.910498
    16  N    2.712566   1.542482   2.681123   3.791928   4.967819
    17  H    1.007595   2.153454   3.278470   3.345712   4.665193
    18  H    2.430772   2.755616   2.119016   1.080607   2.154863
    19  H    4.900011   4.852221   3.377962   2.141103   1.079427
    20  H    6.309964   5.650104   3.834853   3.368591   2.140778
    21  H    6.136853   4.963787   3.357387   3.834147   3.376102
    22  H    4.871992   3.407088   2.976613   4.228624   4.773032
    23  H    4.303226   2.781766   2.682391   4.035835   4.782574
    24  H    5.704169   4.218407   3.385768   4.536646   4.791620
    25  H    2.688530   2.855204   3.127907   3.170160   4.146301
    26  H    4.957549   4.896492   5.187667   5.420631   6.129892
    27  H    6.137037   5.641362   6.185204   6.885844   7.666802
    28  H    5.800535   4.909416   5.721443   6.810072   7.737578
    29  H    4.029303   2.872849   3.938087   5.183702   6.265218
    30  H    2.856546   2.148750   3.580217   4.556435   5.797593
                    6          7          8          9         10
     6  C    0.000000
     7  C    1.383607   0.000000
     8  C    2.421088   1.391637   0.000000
     9  C    3.788095   2.508748   1.493010   0.000000
    10  C    5.177570   4.583554   3.376189   3.411142   0.000000
    11  C    5.249124   4.927592   3.987127   4.338233   1.381522
    12  C    6.189690   5.811012   4.974651   5.123026   2.385289
    13  C    6.943577   6.316716   5.388481   5.143600   2.751331
    14  C    6.890801   6.054802   4.956325   4.395229   2.388309
    15  C    6.060032   5.212023   3.962425   3.445201   1.381413
    16  N    5.255642   4.514781   3.183879   2.987943   2.802531
    17  H    5.639983   5.593519   4.569191   5.192395   3.526757
    18  H    3.378835   3.833505   3.380107   4.636968   3.765003
    19  H    2.145563   3.380915   3.885597   5.378470   5.625213
    20  H    1.080139   2.136728   3.393805   4.644900   6.203215
    21  H    2.135663   1.080702   2.134893   2.699423   5.310613
    22  H    4.296799   3.068380   2.127323   1.091062   3.030594
    23  H    4.491591   3.326291   2.120393   1.087127   3.292571
    24  H    4.004168   2.632396   2.135341   1.087250   4.483223
    25  H    4.896123   4.859016   4.076399   4.763505   2.126105
    26  H    6.569160   6.368127   5.698334   6.002907   3.366304
    27  H    7.794058   7.172918   6.332095   6.034369   3.831441
    28  H    7.709196   6.758338   5.668299   4.869045   3.369045
    29  H    6.327070   5.346859   4.024158   3.219009   2.126244
    30  H    6.192014   5.507830   4.187242   3.942318   3.306604
                   11         12         13         14         15
    11  C    0.000000
    12  C    1.384242   0.000000
    13  C    2.399664   1.386503   0.000000
    14  C    2.778591   2.404643   1.385477   0.000000
    15  C    2.408162   2.774050   2.396888   1.385011   0.000000
    16  N    4.052487   5.187786   5.364267   4.494266   3.111213
    17  H    4.004696   5.318774   6.069385   5.761015   4.574216
    18  H    3.704731   5.000905   6.052113   6.087190   5.076369
    19  H    5.388701   6.438283   7.504774   7.675255   6.819515
    20  H    6.191056   7.039962   7.798580   7.809483   7.054088
    21  H    5.703571   6.442228   6.787784   6.464810   5.728092
    22  H    3.859206   4.395726   4.248568   3.522987   2.821441
    23  H    4.460771   5.344730   5.304693   4.371652   3.227189
    24  H    5.370423   6.073242   6.012555   5.240298   4.403580
    25  H    1.077912   2.155293   3.387487   3.856100   3.374387
    26  H    2.138969   1.079829   2.141690   3.382133   3.853870
    27  H    3.377221   2.139946   1.080111   2.138858   3.375228
    28  H    3.858549   3.383466   2.142519   1.079963   2.140357
    29  H    3.375430   3.853708   3.386952   2.157193   1.080018
    30  H    4.542452   5.637320   5.758752   4.841606   3.501923
                   16         17         18         19         20
    16  N    0.000000
    17  H    2.889181   0.000000
    18  H    3.984745   2.697057   0.000000
    19  H    5.869310   5.125429   2.492823   0.000000
    20  H    6.304627   6.651898   4.280354   2.474729   0.000000
    21  H    5.188728   6.583504   4.914193   4.270616   2.454473
    22  H    3.427409   5.542653   5.009848   5.830688   5.129910
    23  H    2.122823   4.697943   4.713683   5.842167   5.417252
    24  H    3.848522   6.145967   5.466901   5.851360   4.678717
    25  H    4.344230   3.645842   2.953423   4.645976   5.807510
    26  H    6.148385   5.944810   5.377388   6.611337   7.329162
    27  H    6.413252   7.110116   7.040953   8.374842   8.585798
    28  H    5.084017   6.635141   7.092347   8.643698   8.602513
    29  H    2.639406   4.681979   5.470407   7.231680   7.331389
    30  H    1.007764   2.831535   4.561475   6.630749   7.243303
                   21         22         23         24         25
    21  H    0.000000
    22  H    3.204128   0.000000
    23  H    3.632164   1.766176   0.000000
    24  H    2.395940   1.766194   1.781136   0.000000
    25  H    5.752566   4.469010   4.919313   5.783086   0.000000
    26  H    7.007406   5.284940   6.310330   6.920485   2.489753
    27  H    7.564619   5.066526   6.250717   6.825774   4.282448
    28  H    7.042967   3.954569   4.795656   5.579232   4.936024
    29  H    5.784446   2.772228   2.724105   4.084790   4.246344
    30  H    6.187468   4.315546   3.001702   4.761831   4.837924
                   26         27         28         29         30
    26  H    0.000000
    27  H    2.464308   0.000000
    28  H    4.273881   2.465630   0.000000
    29  H    4.933517   4.282854   2.491673   0.000000
    30  H    6.599326   6.784754   5.358062   2.941028   0.000000
 Stoichiometry    C13H14N2S
 Framework group  C1[X(C13H14N2S)]
 Deg. of freedom    84
 Full point group                 C1      NOp   1
 Largest Abelian subgroup         C1      NOp   1
 Largest concise Abelian subgroup C1      NOp   1
                         Standard orientation:                         
 ---------------------------------------------------------------------
 Center     Atomic      Atomic             Coordinates (Angstroms)
 Number     Number       Type             X           Y           Z
 ---------------------------------------------------------------------
      1          7           0       -0.199575    2.266887   -1.235390
      2         16           0       -0.071573    1.431969    0.050940
      3          6           0        1.325338    0.269576   -0.038522
      4          6           0        2.058395    0.320171   -1.209808
      5          6           0        3.129160   -0.534107   -1.400212
      6          6           0        3.453502   -1.440803   -0.404890
      7          6           0        2.710019   -1.488929    0.760993
      8          6           0        1.628855   -0.637759    0.968955
      9          6           0        0.824715   -0.715848    2.224478
     10          6           0       -1.431861    0.253810   -0.142697
     11          6           0       -1.598317   -0.380975   -1.358404
     12          6           0       -2.634590   -1.285954   -1.510971
     13          6           0       -3.489112   -1.546925   -0.450747
     14          6           0       -3.316173   -0.901027    0.762700
     15          6           0       -2.280686    0.005476    0.918496
     16          7           0       -0.001409    2.052373    1.461410
     17          1           0        0.278347    3.153016   -1.195221
     18          1           0        1.769300    1.040316   -1.961823
     19          1           0        3.704022   -0.491935   -2.312855
     20          1           0        4.288399   -2.113278   -0.536895
     21          1           0        2.969781   -2.200863    1.531441
     22          1           0       -0.066517   -1.322370    2.056393
     23          1           0        0.509251    0.282624    2.516679
     24          1           0        1.403313   -1.171905    3.024071
     25          1           0       -0.926908   -0.147282   -2.168645
     26          1           0       -2.777470   -1.787871   -2.456326
     27          1           0       -4.296166   -2.254370   -0.572511
     28          1           0       -3.986708   -1.101881    1.585112
     29          1           0       -2.120643    0.527841    1.850141
     30          1           0       -0.471413    2.941405    1.527034
 ---------------------------------------------------------------------
 Rotational constants (GHZ):           0.7635787           0.3802440           0.3601761
 Standard basis: def2SVP (5D, 7F)
 There are   314 symmetry adapted cartesian basis functions of A   symmetry.
 There are   298 symmetry adapted basis functions of A   symmetry.
   298 basis functions,   510 primitive gaussians,   314 cartesian basis functions
    61 alpha electrons       61 beta electrons
       nuclear repulsion energy      1216.2274131747 Hartrees.
 NAtoms=   30 NActive=   30 NUniq=   30 SFac= 1.00D+00 NAtFMM=   60 NAOKFM=F Big=F
 Integral buffers will be    131072 words long.
 Raffenetti 2 integral format.
 Two-electron integral symmetry is turned on.
 Nuclear repulsion after empirical dispersion term =     1216.1880636766 Hartrees.
 One-electron integrals computed using PRISM.
   1 Symmetry operations used in ECPInt.
 ECPInt:  NShTT=    9870 NPrTT=   36306 LenC2=    9481 LenP2D=   25294.
 LDataN:  DoStor=T MaxTD1= 4 Len=   56
 NBasis=   298 RedAO= T EigKep=  2.34D-04  NBF=   298
 NBsUse=   298 1.00D-06 EigRej= -1.00D+00 NBFU=   298
 ExpMin= 1.22D-01 ExpMax= 9.18D+03 ExpMxC= 1.38D+03 IAcc=3 IRadAn=         5 AccDes= 0.00D+00
 Harris functional with IExCor= 1009 and IRadAn=       5 diagonalized for initial guess.
 HarFok:  IExCor= 1009 AccDes= 0.00D+00 IRadAn=         5 IDoV= 1 UseB2=F ITyADJ=14
 ICtDFT=  3500011 ScaDFX=  1.000000  1.000000  1.000000  1.000000
 FoFCou: FMM=F IPFlag=           0 FMFlag=      100000 FMFlg1=           0
         NFxFlg=           0 DoJE=T BraDBF=F KetDBF=T FulRan=T
         wScrn=  0.000000 ICntrl=       500 IOpCl=  0 I1Cent=   200000004 NGrid=           0
         NMat0=    1 NMatS0=      1 NMatT0=    0 NMatD0=    1 NMtDS0=    0 NMtDT0=    0
 Petite list used in FoFCou.
 Requested convergence on RMS density matrix=1.00D-08 within 128 cycles.
 Requested convergence on MAX density matrix=1.00D-06.
 Requested convergence on             energy=1.00D-06.
 No special actions if energy rises.
 Integral accuracy reduced to 1.0D-05 until final iterations.
 Initial convergence to 1.0D-05 achieved.  Increase integral accuracy.
 SCF Done:  E(RPBE1PBE) =  -1009.97935018     A.U. after   14 cycles
            NFock= 14  Conv=0.71D-08     -V/T= 2.0067

 **********************************************************************

            Population analysis using the SCF Density.

 **********************************************************************

 Orbital symmetries:
       Occupied  (A) (A) (A) (A) (A) (A) (A) (A) (A) (A) (A) (A)
                 (A) (A) (A) (A) (A) (A) (A) (A) (A) (A) (A) (A)
                 (A) (A) (A) (A) (A) (A) (A) (A) (A) (A) (A) (A)
                 (A) (A) (A) (A) (A) (A) (A) (A) (A) (A) (A) (A)
                 (A) (A) (A) (A) (A) (A) (A) (A) (A) (A) (A) (A)
                 (A)
       Virtual   (A) (A) (A) (A) (A) (A) (A) (A) (A) (A) (A) (A)
                 (A) (A) (A) (A) (A) (A) (A) (A) (A) (A) (A) (A)
                 (A) (A) (A) (A) (A) (A) (A) (A) (A) (A) (A) (A)
                 (A) (A) (A) (A) (A) (A) (A) (A) (A) (A) (A) (A)
                 (A) (A) (A) (A) (A) (A) (A) (A) (A) (A) (A) (A)
                 (A) (A) (A) (A) (A) (A) (A) (A) (A) (A) (A) (A)
                 (A) (A) (A) (A) (A) (A) (A) (A) (A) (A) (A) (A)
                 (A) (A) (A) (A) (A) (A) (A) (A) (A) (A) (A) (A)
                 (A) (A) (A) (A) (A) (A) (A) (A) (A) (A) (A) (A)
                 (A) (A) (A) (A) (A) (A) (A) (A) (A) (A) (A) (A)
                 (A) (A) (A) (A) (A) (A) (A) (A) (A) (A) (A) (A)
                 (A) (A) (A) (A) (A) (A) (A) (A) (A) (A) (A) (A)
                 (A) (A) (A) (A) (A) (A) (A) (A) (A) (A) (A) (A)
                 (A) (A) (A) (A) (A) (A) (A) (A) (A) (A) (A) (A)
                 (A) (A) (A) (A) (A) (A) (A) (A) (A) (A) (A) (A)
                 (A) (A) (A) (A) (A) (A) (A) (A) (A) (A) (A) (A)
                 (A) (A) (A) (A) (A) (A) (A) (A) (A) (A) (A) (A)
                 (A) (A) (A) (A) (A) (A) (A) (A) (A) (A) (A) (A)
                 (A) (A) (A) (A) (A) (A) (A) (A) (A) (A) (A) (A)
                 (A) (A) (A) (A) (A) (A) (A) (A) (A)
 The electronic state is 1-A.
 Alpha  occ. eigenvalues --  -89.18540 -14.34836 -14.34705 -10.26172 -10.25784
 Alpha  occ. eigenvalues --  -10.25526 -10.25096 -10.24915 -10.24831 -10.24769
 Alpha  occ. eigenvalues --  -10.24663 -10.24468 -10.24359 -10.24065 -10.23905
 Alpha  occ. eigenvalues --  -10.21516  -8.15913  -6.10059  -6.09935  -6.09925
 Alpha  occ. eigenvalues --   -1.00834  -0.89356  -0.89188  -0.85485  -0.79969
 Alpha  occ. eigenvalues --   -0.78837  -0.77890  -0.77661  -0.70839  -0.68596
 Alpha  occ. eigenvalues --   -0.63643  -0.63123  -0.61844  -0.59514  -0.55841
 Alpha  occ. eigenvalues --   -0.53420  -0.52640  -0.49557  -0.48658  -0.47942
 Alpha  occ. eigenvalues --   -0.47021  -0.45939  -0.45304  -0.44843  -0.43658
 Alpha  occ. eigenvalues --   -0.42852  -0.40283  -0.40024  -0.38634  -0.37914
 Alpha  occ. eigenvalues --   -0.37521  -0.36804  -0.36242  -0.34181  -0.29398
 Alpha  occ. eigenvalues --   -0.28080  -0.27596  -0.26411  -0.26249  -0.25659
 Alpha  occ. eigenvalues --   -0.24590
 Alpha virt. eigenvalues --   -0.03438  -0.01757  -0.01032  -0.00481   0.05975
 Alpha virt. eigenvalues --    0.07511   0.08584   0.09119   0.09442   0.10067
 Alpha virt. eigenvalues --    0.10620   0.11596   0.12583   0.12878   0.14099
 Alpha virt. eigenvalues --    0.14600   0.15688   0.16149   0.16852   0.16957
 Alpha virt. eigenvalues --    0.18628   0.19160   0.20401   0.22609   0.24943
 Alpha virt. eigenvalues --    0.28048   0.29149   0.29691   0.30280   0.30491
 Alpha virt. eigenvalues --    0.31267   0.33013   0.34219   0.35449   0.37424
 Alpha virt. eigenvalues --    0.40277   0.40964   0.41867   0.42632   0.43528
 Alpha virt. eigenvalues --    0.44584   0.44931   0.45363   0.46252   0.46923
 Alpha virt. eigenvalues --    0.48385   0.48819   0.49950   0.50417   0.50503
 Alpha virt. eigenvalues --    0.51269   0.51746   0.52949   0.54295   0.54800
 Alpha virt. eigenvalues --    0.55603   0.56947   0.57973   0.59348   0.60666
 Alpha virt. eigenvalues --    0.61933   0.62152   0.63520   0.64217   0.64915
 Alpha virt. eigenvalues --    0.66384   0.67258   0.67403   0.68056   0.68280
 Alpha virt. eigenvalues --    0.69633   0.69785   0.70667   0.71239   0.71962
 Alpha virt. eigenvalues --    0.72691   0.73463   0.74506   0.74789   0.75521
 Alpha virt. eigenvalues --    0.75802   0.75926   0.77242   0.77692   0.78648
 Alpha virt. eigenvalues --    0.79502   0.79853   0.81141   0.81549   0.82090
 Alpha virt. eigenvalues --    0.84389   0.85126   0.86806   0.87882   0.88384
 Alpha virt. eigenvalues --    0.89926   0.92492   0.95143   0.97534   0.98522
 Alpha virt. eigenvalues --    1.00722   1.03338   1.04692   1.06724   1.07998
 Alpha virt. eigenvalues --    1.09544   1.10414   1.13096   1.14081   1.17534
 Alpha virt. eigenvalues --    1.18378   1.19334   1.20074   1.21963   1.22297
 Alpha virt. eigenvalues --    1.24102   1.24408   1.25779   1.26102   1.27128
 Alpha virt. eigenvalues --    1.27525   1.28680   1.30656   1.31688   1.32559
 Alpha virt. eigenvalues --    1.34453   1.38780   1.43292   1.47671   1.49046
 Alpha virt. eigenvalues --    1.51438   1.53752   1.54432   1.57789   1.58982
 Alpha virt. eigenvalues --    1.60623   1.62071   1.64979   1.68441   1.69087
 Alpha virt. eigenvalues --    1.70314   1.71386   1.72155   1.72821   1.73499
 Alpha virt. eigenvalues --    1.75182   1.75629   1.76454   1.76972   1.77394
 Alpha virt. eigenvalues --    1.77865   1.78108   1.79502   1.81825   1.82551
 Alpha virt. eigenvalues --    1.83767   1.84827   1.85486   1.87405   1.89823
 Alpha virt. eigenvalues --    1.90772   1.91665   1.93739   1.95916   1.96413
 Alpha virt. eigenvalues --    1.97556   1.98755   1.99289   2.00858   2.01534
 Alpha virt. eigenvalues --    2.04374   2.06642   2.08482   2.08884   2.10944
 Alpha virt. eigenvalues --    2.13778   2.15258   2.15539   2.16022   2.16743
 Alpha virt. eigenvalues --    2.18482   2.19020   2.23215   2.26312   2.27884
 Alpha virt. eigenvalues --    2.29085   2.30303   2.31297   2.31685   2.32091
 Alpha virt. eigenvalues --    2.33018   2.34255   2.34535   2.36919   2.37441
 Alpha virt. eigenvalues --    2.38521   2.41366   2.42159   2.50595   2.50790
 Alpha virt. eigenvalues --    2.54091   2.54307   2.55944   2.58036   2.59419
 Alpha virt. eigenvalues --    2.61722   2.63399   2.64019   2.65397   2.65815
 Alpha virt. eigenvalues --    2.66833   2.67174   2.68088   2.76281   2.76615
 Alpha virt. eigenvalues --    2.76732   2.79572   2.85026   2.86327   2.87885
 Alpha virt. eigenvalues --    2.89284   2.90358   2.92079   2.93113   2.97015
 Alpha virt. eigenvalues --    2.99245   3.02000   3.06870   3.07431   3.13714
 Alpha virt. eigenvalues --    3.16758   3.24725   3.26066   3.29107   3.33191
 Alpha virt. eigenvalues --    3.63775   3.66419
          Condensed to atoms (all electrons):
               1          2          3          4          5          6
     1  N    6.824898   0.392276  -0.073392   0.006329   0.002363  -0.000048
     2  S    0.392276  14.728118   0.109641  -0.032398   0.005541   0.000189
     3  C   -0.073392   0.109641   5.877616   0.306483   0.090748  -0.178183
     4  C    0.006329  -0.032398   0.306483   5.073610   0.247716   0.098463
     5  C    0.002363   0.005541   0.090748   0.247716   5.131806   0.248310
     6  C   -0.000048   0.000189  -0.178183   0.098463   0.248310   5.110126
     7  C   -0.000034   0.001178   0.076643  -0.125537   0.085596   0.280131
     8  C    0.002268  -0.029999   0.175929   0.066063  -0.150536   0.101489
     9  C    0.000020  -0.013624  -0.079033   0.010699  -0.000008   0.012013
    10  C   -0.098769   0.145550  -0.102125  -0.008651  -0.000656  -0.000144
    11  C    0.008760  -0.041530  -0.012073   0.002652  -0.000078   0.000068
    12  C    0.000845   0.000322  -0.000796   0.000111   0.000013  -0.000003
    13  C   -0.000033   0.000468  -0.000142  -0.000007   0.000000  -0.000000
    14  C   -0.000149   0.005026  -0.000390   0.000015   0.000001   0.000000
    15  C   -0.000196  -0.029609  -0.003675  -0.000405   0.000024  -0.000006
    16  N   -0.034005   0.369996  -0.076286  -0.000144  -0.000037  -0.000042
    17  H    0.329457  -0.014381  -0.003366   0.000252  -0.000059  -0.000008
    18  H    0.035936  -0.010215  -0.074743   0.431467  -0.055492   0.013300
    19  H   -0.000010  -0.000198   0.017108  -0.074236   0.458437  -0.075108
    20  H    0.000000   0.000024  -0.001625   0.014900  -0.073578   0.450127
    21  H    0.000001  -0.000083   0.020861  -0.002299   0.015449  -0.075578
    22  H   -0.000005   0.001339  -0.005996  -0.000220   0.000112  -0.000396
    23  H    0.000370   0.005852  -0.012775  -0.000685  -0.000008  -0.000478
    24  H    0.000005   0.000074   0.011776  -0.000546   0.000019   0.000708
    25  H    0.011638  -0.010985   0.001249   0.002486   0.000268  -0.000011
    26  H   -0.000013  -0.000155   0.000022   0.000001  -0.000001   0.000000
    27  H    0.000000   0.000021  -0.000001   0.000000   0.000000   0.000000
    28  H    0.000003  -0.000181   0.000011   0.000000  -0.000000   0.000000
    29  H    0.000546  -0.007308   0.000590  -0.000017   0.000002   0.000002
    30  H   -0.002026  -0.013535   0.009756  -0.000118  -0.000016   0.000004
               7          8          9         10         11         12
     1  N   -0.000034   0.002268   0.000020  -0.098769   0.008760   0.000845
     2  S    0.001178  -0.029999  -0.013624   0.145550  -0.041530   0.000322
     3  C    0.076643   0.175929  -0.079033  -0.102125  -0.012073  -0.000796
     4  C   -0.125537   0.066063   0.010699  -0.008651   0.002652   0.000111
     5  C    0.085596  -0.150536  -0.000008  -0.000656  -0.000078   0.000013
     6  C    0.280131   0.101489   0.012013  -0.000144   0.000068  -0.000003
     7  C    5.055425   0.347196  -0.069308   0.000044  -0.000264  -0.000028
     8  C    0.347196   5.234325   0.422580  -0.006356   0.000803   0.000037
     9  C   -0.069308   0.422580   4.637252  -0.010410   0.000734  -0.000001
    10  C    0.000044  -0.006356  -0.010410   5.810060   0.215111   0.108645
    11  C   -0.000264   0.000803   0.000734   0.215111   5.069697   0.291771
    12  C   -0.000028   0.000037  -0.000001   0.108645   0.291771   5.070114
    13  C    0.000004   0.000045  -0.000104  -0.183692   0.094282   0.262388
    14  C    0.000003  -0.000015  -0.000496   0.102555  -0.138869   0.091494
    15  C    0.000120   0.001438   0.000139   0.253737   0.059660  -0.147905
    16  N    0.000268   0.000641  -0.039012  -0.073337   0.004182  -0.000002
    17  H    0.000010  -0.000253  -0.000054   0.011147  -0.000738  -0.000004
    18  H   -0.002135   0.017061  -0.000167  -0.001101   0.000859   0.000147
    19  H    0.014448  -0.001583   0.000027   0.000013  -0.000001   0.000000
    20  H   -0.068595   0.015975  -0.000305  -0.000001  -0.000000   0.000000
    21  H    0.454735  -0.072014  -0.018616   0.000025   0.000002   0.000000
    22  H   -0.001579  -0.012717   0.377916   0.001039  -0.000704   0.000113
    23  H    0.007437  -0.008743   0.373762  -0.000585  -0.000382  -0.000028
    24  H   -0.012943  -0.014126   0.364932   0.000159  -0.000003  -0.000002
    25  H   -0.000058   0.000295   0.000029  -0.065223   0.446343  -0.057665
    26  H   -0.000000   0.000004   0.000002   0.016540  -0.070588   0.454244
    27  H    0.000000  -0.000000   0.000000  -0.001540   0.014328  -0.068190
    28  H   -0.000000  -0.000003  -0.000001   0.017122  -0.001847   0.014386
    29  H    0.000014  -0.000097   0.000378  -0.074216   0.014735  -0.001986
    30  H    0.000007  -0.000335   0.001020  -0.002998  -0.000414  -0.000018
              13         14         15         16         17         18
     1  N   -0.000033  -0.000149  -0.000196  -0.034005   0.329457   0.035936
     2  S    0.000468   0.005026  -0.029609   0.369996  -0.014381  -0.010215
     3  C   -0.000142  -0.000390  -0.003675  -0.076286  -0.003366  -0.074743
     4  C   -0.000007   0.000015  -0.000405  -0.000144   0.000252   0.431467
     5  C    0.000000   0.000001   0.000024  -0.000037  -0.000059  -0.055492
     6  C   -0.000000   0.000000  -0.000006  -0.000042  -0.000008   0.013300
     7  C    0.000004   0.000003   0.000120   0.000268   0.000010  -0.002135
     8  C    0.000045  -0.000015   0.001438   0.000641  -0.000253   0.017061
     9  C   -0.000104  -0.000496   0.000139  -0.039012  -0.000054  -0.000167
    10  C   -0.183692   0.102555   0.253737  -0.073337   0.011147  -0.001101
    11  C    0.094282  -0.138869   0.059660   0.004182  -0.000738   0.000859
    12  C    0.262388   0.091494  -0.147905  -0.000002  -0.000004   0.000147
    13  C    5.125664   0.262338   0.102864  -0.000035   0.000005   0.000001
    14  C    0.262338   5.102479   0.239313   0.001523  -0.000011   0.000001
    15  C    0.102864   0.239313   5.135033   0.007844  -0.000081  -0.000086
    16  N   -0.000035   0.001523   0.007844   6.842681  -0.002834   0.000981
    17  H    0.000005  -0.000011  -0.000081  -0.002834   0.551052  -0.000122
    18  H    0.000001   0.000001  -0.000086   0.000981  -0.000122   0.635499
    19  H    0.000000  -0.000000   0.000000   0.000003   0.000005  -0.011399
    20  H   -0.000000  -0.000000   0.000000  -0.000000   0.000000  -0.000246
    21  H    0.000000   0.000000  -0.000001   0.000007   0.000000   0.000033
    22  H    0.000042   0.000296   0.004782  -0.000427   0.000002   0.000005
    23  H    0.000017   0.000112   0.001271   0.043922   0.000030  -0.000093
    24  H   -0.000003   0.000033   0.000006   0.001069  -0.000001   0.000005
    25  H    0.013353  -0.001769   0.014080   0.000242  -0.000539   0.000864
    26  H   -0.072874   0.014398  -0.001797   0.000001  -0.000001  -0.000004
    27  H    0.448990  -0.068390   0.014551  -0.000000   0.000000   0.000000
    28  H   -0.072716   0.457785  -0.074821  -0.000005  -0.000000  -0.000000
    29  H    0.012865  -0.053685   0.433593   0.025643  -0.000097  -0.000007
    30  H    0.000003  -0.000046   0.000656   0.329831   0.002430  -0.000113
              19         20         21         22         23         24
     1  N   -0.000010   0.000000   0.000001  -0.000005   0.000370   0.000005
     2  S   -0.000198   0.000024  -0.000083   0.001339   0.005852   0.000074
     3  C    0.017108  -0.001625   0.020861  -0.005996  -0.012775   0.011776
     4  C   -0.074236   0.014900  -0.002299  -0.000220  -0.000685  -0.000546
     5  C    0.458437  -0.073578   0.015449   0.000112  -0.000008   0.000019
     6  C   -0.075108   0.450127  -0.075578  -0.000396  -0.000478   0.000708
     7  C    0.014448  -0.068595   0.454735  -0.001579   0.007437  -0.012943
     8  C   -0.001583   0.015975  -0.072014  -0.012717  -0.008743  -0.014126
     9  C    0.000027  -0.000305  -0.018616   0.377916   0.373762   0.364932
    10  C    0.000013  -0.000001   0.000025   0.001039  -0.000585   0.000159
    11  C   -0.000001  -0.000000   0.000002  -0.000704  -0.000382  -0.000003
    12  C    0.000000   0.000000   0.000000   0.000113  -0.000028  -0.000002
    13  C    0.000000  -0.000000   0.000000   0.000042   0.000017  -0.000003
    14  C   -0.000000  -0.000000   0.000000   0.000296   0.000112   0.000033
    15  C    0.000000   0.000000  -0.000001   0.004782   0.001271   0.000006
    16  N    0.000003  -0.000000   0.000007  -0.000427   0.043922   0.001069
    17  H    0.000005   0.000000   0.000000   0.000002   0.000030  -0.000001
    18  H   -0.011399  -0.000246   0.000033   0.000005  -0.000093   0.000005
    19  H    0.668395  -0.012189  -0.000294  -0.000001   0.000000  -0.000001
    20  H   -0.012189   0.671256  -0.012634   0.000007   0.000006  -0.000017
    21  H   -0.000294  -0.012634   0.679031   0.000846   0.000250   0.007258
    22  H   -0.000001   0.000007   0.000846   0.602451  -0.016221  -0.016253
    23  H    0.000000   0.000006   0.000250  -0.016221   0.537860  -0.010326
    24  H   -0.000001  -0.000017   0.007258  -0.016253  -0.010326   0.639567
    25  H    0.000004  -0.000000  -0.000001   0.000006  -0.000031  -0.000001
    26  H   -0.000000   0.000000  -0.000000  -0.000004  -0.000000   0.000000
    27  H    0.000000   0.000000   0.000000  -0.000003   0.000000  -0.000000
    28  H   -0.000000   0.000000  -0.000000   0.000031  -0.000002   0.000001
    29  H   -0.000000   0.000000  -0.000002  -0.000552   0.000545   0.000091
    30  H   -0.000000   0.000000  -0.000001   0.000017  -0.001323  -0.000041
              25         26         27         28         29         30
     1  N    0.011638  -0.000013   0.000000   0.000003   0.000546  -0.002026
     2  S   -0.010985  -0.000155   0.000021  -0.000181  -0.007308  -0.013535
     3  C    0.001249   0.000022  -0.000001   0.000011   0.000590   0.009756
     4  C    0.002486   0.000001   0.000000   0.000000  -0.000017  -0.000118
     5  C    0.000268  -0.000001   0.000000  -0.000000   0.000002  -0.000016
     6  C   -0.000011   0.000000   0.000000   0.000000   0.000002   0.000004
     7  C   -0.000058  -0.000000   0.000000  -0.000000   0.000014   0.000007
     8  C    0.000295   0.000004  -0.000000  -0.000003  -0.000097  -0.000335
     9  C    0.000029   0.000002   0.000000  -0.000001   0.000378   0.001020
    10  C   -0.065223   0.016540  -0.001540   0.017122  -0.074216  -0.002998
    11  C    0.446343  -0.070588   0.014328  -0.001847   0.014735  -0.000414
    12  C   -0.057665   0.454244  -0.068190   0.014386  -0.001986  -0.000018
    13  C    0.013353  -0.072874   0.448990  -0.072716   0.012865   0.000003
    14  C   -0.001769   0.014398  -0.068390   0.457785  -0.053685  -0.000046
    15  C    0.014080  -0.001797   0.014551  -0.074821   0.433593   0.000656
    16  N    0.000242   0.000001  -0.000000  -0.000005   0.025643   0.329831
    17  H   -0.000539  -0.000001   0.000000  -0.000000  -0.000097   0.002430
    18  H    0.000864  -0.000004   0.000000  -0.000000  -0.000007  -0.000113
    19  H    0.000004  -0.000000   0.000000  -0.000000  -0.000000  -0.000000
    20  H   -0.000000   0.000000   0.000000   0.000000   0.000000   0.000000
    21  H   -0.000001  -0.000000   0.000000  -0.000000  -0.000002  -0.000001
    22  H    0.000006  -0.000004  -0.000003   0.000031  -0.000552   0.000017
    23  H   -0.000031  -0.000000   0.000000  -0.000002   0.000545  -0.001323
    24  H   -0.000001   0.000000  -0.000000   0.000001   0.000091  -0.000041
    25  H    0.630070  -0.011606  -0.000232   0.000027  -0.000250  -0.000009
    26  H   -0.011606   0.662491  -0.012246  -0.000269   0.000044   0.000000
    27  H   -0.000232  -0.012246   0.663799  -0.012288  -0.000240  -0.000000
    28  H    0.000027  -0.000269  -0.012288   0.663113  -0.011298   0.000002
    29  H   -0.000250   0.000044  -0.000240  -0.011298   0.640762   0.000493
    30  H   -0.000009   0.000000  -0.000000   0.000002   0.000493   0.548597
 Mulliken charges:
               1
     1  N   -0.407036
     2  S    0.438582
     3  C   -0.073830
     4  C   -0.015985
     5  C   -0.005935
     6  C    0.015075
     7  C   -0.042777
     8  C   -0.089372
     9  C    0.029635
    10  C   -0.051948
    11  C    0.043505
    12  C   -0.018001
    13  C    0.006277
    14  C   -0.013553
    15  C   -0.010527
    16  N   -0.402667
    17  H    0.128158
    18  H    0.019765
    19  H    0.016580
    20  H    0.016896
    21  H    0.003026
    22  H    0.066073
    23  H    0.080244
    24  H    0.028559
    25  H    0.027426
    26  H    0.021810
    27  H    0.021441
    28  H    0.020950
    29  H    0.019454
    30  H    0.128178
 Sum of Mulliken charges =  -0.00000
 Mulliken charges with hydrogens summed into heavy atoms:
               1
     1  N   -0.278878
     2  S    0.438582
     3  C   -0.073830
     4  C    0.003780
     5  C    0.010645
     6  C    0.031971
     7  C   -0.039752
     8  C   -0.089372
     9  C    0.204510
    10  C   -0.051948
    11  C    0.070931
    12  C    0.003809
    13  C    0.027718
    14  C    0.007397
    15  C    0.008927
    16  N   -0.274489
 Electronic spatial extent (au):  <R**2>=           3579.5890
 Charge=              0.0000 electrons
 Dipole moment (field-independent basis, Debye):
    X=             -0.2539    Y=             -1.7450    Z=             -0.1207  Tot=              1.7676
 Quadrupole moment (field-independent basis, Debye-Ang):
   XX=            -92.7560   YY=            -96.4836   ZZ=           -100.2082
   XY=              1.2301   XZ=             -5.4353   YZ=              0.5767
 Traceless Quadrupole moment (field-independent basis, Debye-Ang):
   XX=              3.7266   YY=             -0.0010   ZZ=             -3.7256
   XY=              1.2301   XZ=             -5.4353   YZ=              0.5767
 Octapole moment (field-independent basis, Debye-Ang**2):
  XXX=             -5.9802  YYY=             35.8140  ZZZ=             -5.1053  XYY=              1.2480
  XXY=            -32.9099  XXZ=             -2.5536  XZZ=             -0.4158  YZZ=            -12.1064
  YYZ=              4.2178  XYZ=            -16.1498
 Hexadecapole moment (field-independent basis, Debye-Ang**3):
 XXXX=          -2795.9950 YYYY=           -954.4062 ZZZZ=           -927.3730 XXXY=             13.5679
 XXXZ=            -70.3316 YYYX=              0.9627 YYYZ=              8.0198 ZZZX=            -16.2146
 ZZZY=              4.5347 XXYY=           -606.5217 XXZZ=           -593.8945 YYZZ=           -335.7582
 XXYZ=             10.8148 YYXZ=             -6.5985 ZZXY=              7.0178
 N-N= 1.216188063677D+03 E-N=-4.795911799853D+03  KE= 1.003246358879D+03
   1 Symmetry operations used in ECPInt.
 ECPInt:  NShTT=    9870 NPrTT=   36306 LenC2=    9481 LenP2D=   25294.
 LDataN:  DoStor=T MaxTD1= 5 Len=  102
 Calling FoFJK, ICntrl=      2127 FMM=F ISym2X=0 I1Cent= 0 IOpClX= 0 NMat=1 NMatS=1 NMatT=0.
 ***** Axes restored to original set *****
 -------------------------------------------------------------------
 Center     Atomic                   Forces (Hartrees/Bohr)
 Number     Number              X              Y              Z
 -------------------------------------------------------------------
      1        7           0.011735821    0.008822196   -0.011428148
      2       16           0.002895909   -0.007392094    0.000248546
      3        6           0.005411593   -0.007021220    0.000179547
      4        6           0.000650442   -0.003655768   -0.002368784
      5        6           0.000121620    0.000601659    0.001549383
      6        6          -0.000453638    0.000074486   -0.000888667
      7        6           0.000147902   -0.001175548   -0.001536811
      8        6           0.005317502    0.002853910    0.011893239
      9        6          -0.005685151    0.002359033   -0.002330836
     10        6          -0.006009727   -0.005414955    0.001115144
     11        6           0.000733462    0.001216379   -0.003508996
     12        6          -0.001569164   -0.000639065    0.000264515
     13        6           0.001259030    0.000418857    0.000970625
     14        6           0.000125887    0.000485528   -0.001738519
     15        6          -0.002839937   -0.003727504    0.002849088
     16        7          -0.011764609    0.011345657    0.006047620
     17        1          -0.009719113   -0.005746392    0.005645724
     18        1           0.002455438   -0.006454952   -0.006663415
     19        1          -0.004964866   -0.001139264   -0.007573786
     20        1          -0.007049554    0.005728939   -0.001078423
     21        1          -0.001554141    0.005868849    0.006552506
     22        1           0.006633283    0.004271526   -0.000523859
     23        1           0.002688002   -0.004972544    0.004243185
     24        1          -0.003369576    0.004678538    0.005607255
     25        1          -0.005657621   -0.001659176   -0.008126008
     26        1           0.000617462    0.003562949   -0.008322295
     27        1           0.006652287    0.005947680   -0.001606029
     28        1           0.005666936    0.001772057    0.006642857
     29        1          -0.001452908   -0.004234324    0.008766042
     30        1           0.008977432   -0.006775436   -0.004880703
 -------------------------------------------------------------------
 Cartesian Forces:  Max     0.011893239 RMS     0.005192981

 GradGradGradGradGradGradGradGradGradGradGradGradGradGradGradGradGradGrad
 Berny optimization.
 FormGI is forming the generalized inverse of G from B-inverse, IUseBI=4.
 Internal  Forces:  Max     0.021846821 RMS     0.005051090
 Search for a local minimum.
 Step number   1 out of a maximum of  163
 All quantities printed in internal units (Hartrees-Bohrs-Radians)
 Mixed Optimization -- RFO/linear search
 Second derivative matrix not updated -- first step.
 ITU=  0
     Eigenvalues ---    0.00230   0.00239   0.00858   0.01472   0.01511
     Eigenvalues ---    0.01659   0.02226   0.02253   0.02273   0.02278
     Eigenvalues ---    0.02283   0.02284   0.02286   0.02296   0.02297
     Eigenvalues ---    0.02303   0.02306   0.02309   0.02315   0.02316
     Eigenvalues ---    0.02329   0.03380   0.03428   0.07296   0.07393
     Eigenvalues ---    0.07562   0.09018   0.10587   0.15998   0.16000
     Eigenvalues ---    0.16000   0.16000   0.16000   0.16000   0.16000
     Eigenvalues ---    0.16000   0.16000   0.16000   0.16000   0.16000
     Eigenvalues ---    0.16000   0.16000   0.16770   0.19304   0.22000
     Eigenvalues ---    0.22000   0.22000   0.22490   0.23497   0.24477
     Eigenvalues ---    0.24640   0.24988   0.24998   0.25000   0.25348
     Eigenvalues ---    0.33122   0.34690   0.35132   0.35147   0.35910
     Eigenvalues ---    0.35921   0.35978   0.35981   0.35992   0.35999
     Eigenvalues ---    0.36015   0.36064   0.36248   0.43383   0.43609
     Eigenvalues ---    0.43628   0.43787   0.46349   0.46378   0.47492
     Eigenvalues ---    0.47860   0.48060   0.48270   0.48434   0.48464
     Eigenvalues ---    0.48547   0.48747   0.64168   0.65121
 RFO step:  Lambda=-1.26395338D-02 EMin= 2.30000000D-03
 Linear search not attempted -- first point.
 Iteration  1 RMS(Cart)=  0.11356661 RMS(Int)=  0.00243755
 Iteration  2 RMS(Cart)=  0.00787751 RMS(Int)=  0.00009256
 Iteration  3 RMS(Cart)=  0.00002423 RMS(Int)=  0.00009170
 Iteration  4 RMS(Cart)=  0.00000001 RMS(Int)=  0.00009170
 Variable       Old X    -DE/DX   Delta X   Delta X   Delta X     New X
                                 (Linear)    (Quad)   (Total)
    R1        2.90804   0.00298   0.00000   0.00449   0.00449   2.91253
    R2        1.90408   0.01019   0.00000   0.02140   0.02140   1.92548
    R3        3.43832   0.00064   0.00000   0.00248   0.00248   3.44081
    R4        3.42032  -0.00285   0.00000  -0.01069  -0.01069   3.40963
    R5        2.91487  -0.00050   0.00000  -0.00077  -0.00077   2.91410
    R6        2.61291   0.01026   0.00000   0.02116   0.02115   2.63406
    R7        2.62556   0.02185   0.00000   0.04579   0.04582   2.67138
    R8        2.61342   0.00798   0.00000   0.01570   0.01567   2.62909
    R9        2.04205   0.00959   0.00000   0.02579   0.02579   2.06784
   R10        2.61709   0.00769   0.00000   0.01463   0.01460   2.63169
   R11        2.03982   0.00912   0.00000   0.02442   0.02442   2.06425
   R12        2.61464   0.00934   0.00000   0.01821   0.01822   2.63286
   R13        2.04117   0.00915   0.00000   0.02456   0.02456   2.06573
   R14        2.62981   0.00925   0.00000   0.01946   0.01950   2.64932
   R15        2.04223   0.00891   0.00000   0.02397   0.02397   2.06620
   R16        2.82138   0.00647   0.00000   0.01881   0.01881   2.84019
   R17        2.06181   0.00781   0.00000   0.02173   0.02173   2.08354
   R18        2.05437   0.00660   0.00000   0.01812   0.01812   2.07250
   R19        2.05460   0.00795   0.00000   0.02183   0.02183   2.07644
   R20        2.61070   0.01303   0.00000   0.02620   0.02620   2.63690
   R21        2.61049   0.00732   0.00000   0.01468   0.01468   2.62518
   R22        2.61584   0.00788   0.00000   0.01600   0.01600   2.63184
   R23        2.03696   0.00991   0.00000   0.02642   0.02642   2.06338
   R24        2.62011   0.01052   0.00000   0.02131   0.02131   2.64142
   R25        2.04058   0.00907   0.00000   0.02432   0.02432   2.06490
   R26        2.61817   0.00924   0.00000   0.01851   0.01851   2.63668
   R27        2.04111   0.00907   0.00000   0.02434   0.02434   2.06546
   R28        2.61729   0.00972   0.00000   0.01955   0.01954   2.63683
   R29        2.04084   0.00890   0.00000   0.02389   0.02389   2.06473
   R30        2.04094   0.00984   0.00000   0.02640   0.02640   2.06734
   R31        1.90440   0.00972   0.00000   0.02042   0.02042   1.92482
    A1        1.98709  -0.01212   0.00000  -0.07019  -0.07019   1.91690
    A2        1.94913  -0.00227   0.00000  -0.01409  -0.01406   1.93508
    A3        1.77340  -0.00098   0.00000  -0.00316  -0.00310   1.77030
    A4        2.15306   0.00298   0.00000   0.01574   0.01571   2.16877
    A5        1.72733   0.00336   0.00000   0.01602   0.01604   1.74337
    A6        1.84107  -0.00124   0.00000  -0.00650  -0.00645   1.83462
    A7        1.97559  -0.00169   0.00000  -0.00758  -0.00756   1.96802
    A8        2.01010  -0.01369   0.00000  -0.05343  -0.05345   1.95665
    A9        2.15229   0.01330   0.00000   0.04938   0.04936   2.20165
   A10        2.12038   0.00039   0.00000   0.00397   0.00400   2.12438
   A11        2.09961   0.00039   0.00000   0.00190   0.00187   2.10148
   A12        2.06243  -0.00008   0.00000  -0.00031  -0.00029   2.06214
   A13        2.12115  -0.00030   0.00000  -0.00160  -0.00158   2.11957
   A14        2.07922   0.00071   0.00000   0.00010   0.00003   2.07925
   A15        2.09973  -0.00079   0.00000  -0.00254  -0.00251   2.09722
   A16        2.10424   0.00007   0.00000   0.00244   0.00247   2.10671
   A17        2.09731   0.00061   0.00000  -0.00088  -0.00090   2.09642
   A18        2.09531  -0.00019   0.00000   0.00110   0.00111   2.09642
   A19        2.09056  -0.00042   0.00000  -0.00022  -0.00022   2.09034
   A20        2.12013   0.00356   0.00000   0.01441   0.01447   2.13459
   A21        2.08804  -0.00115   0.00000  -0.00358  -0.00361   2.08443
   A22        2.07502  -0.00240   0.00000  -0.01083  -0.01086   2.06416
   A23        2.04967  -0.00566   0.00000  -0.01952  -0.01949   2.03018
   A24        2.12501   0.01468   0.00000   0.05481   0.05469   2.17971
   A25        2.10845  -0.00903   0.00000  -0.03548  -0.03556   2.07288
   A26        1.91716   0.00106   0.00000   0.00535   0.00527   1.92243
   A27        1.91164   0.00361   0.00000   0.02339   0.02331   1.93495
   A28        1.93238  -0.00068   0.00000  -0.00567  -0.00568   1.92670
   A29        1.89119  -0.00152   0.00000  -0.00525  -0.00539   1.88580
   A30        1.89106  -0.00129   0.00000  -0.01237  -0.01238   1.87868
   A31        1.91985  -0.00125   0.00000  -0.00585  -0.00586   1.91399
   A32        2.07577   0.00580   0.00000   0.02174   0.02173   2.09750
   A33        2.09052  -0.00815   0.00000  -0.03138  -0.03139   2.05913
   A34        2.11690   0.00235   0.00000   0.00963   0.00963   2.12652
   A35        2.08012  -0.00198   0.00000  -0.00763  -0.00762   2.07249
   A36        2.07921   0.00261   0.00000   0.01322   0.01321   2.09242
   A37        2.12374  -0.00063   0.00000  -0.00556  -0.00556   2.11817
   A38        2.09458   0.00041   0.00000   0.00202   0.00202   2.09660
   A39        2.09374  -0.00057   0.00000  -0.00312  -0.00313   2.09061
   A40        2.09487   0.00016   0.00000   0.00110   0.00110   2.09596
   A41        2.10024   0.00010   0.00000   0.00006   0.00005   2.10029
   A42        2.09161  -0.00008   0.00000  -0.00018  -0.00018   2.09143
   A43        2.09133  -0.00002   0.00000   0.00013   0.00013   2.09146
   A44        2.09090   0.00081   0.00000   0.00300   0.00299   2.09389
   A45        2.09758  -0.00007   0.00000   0.00043   0.00044   2.09802
   A46        2.09470  -0.00074   0.00000  -0.00343  -0.00343   2.09127
   A47        2.08362  -0.00168   0.00000  -0.00709  -0.00710   2.07653
   A48        2.07677   0.00059   0.00000   0.00207   0.00207   2.07884
   A49        2.12279   0.00110   0.00000   0.00503   0.00503   2.12782
   A50        1.97486  -0.01255   0.00000  -0.07272  -0.07272   1.90214
    D1       -1.62999   0.00361   0.00000   0.05524   0.05528  -1.57471
    D2        2.82671   0.00102   0.00000   0.04320   0.04319   2.86990
    D3        0.59146   0.00210   0.00000   0.04494   0.04489   0.63635
    D4        0.01552   0.00144   0.00000   0.07072   0.07074   0.08626
    D5       -3.09552   0.00154   0.00000   0.07400   0.07412  -3.02140
    D6        1.87214   0.00125   0.00000   0.07061   0.07054   1.94269
    D7       -1.23889   0.00136   0.00000   0.07390   0.07392  -1.16497
    D8       -2.36512   0.00034   0.00000   0.06660   0.06651  -2.29862
    D9        0.80703   0.00044   0.00000   0.06989   0.06989   0.87691
   D10        0.80589  -0.00138   0.00000  -0.01750  -0.01747   0.78842
   D11       -2.33550  -0.00115   0.00000  -0.00923  -0.00925  -2.34474
   D12       -1.19195   0.00028   0.00000  -0.00655  -0.00655  -1.19850
   D13        1.94985   0.00051   0.00000   0.00171   0.00168   1.95153
   D14       -3.13282   0.00051   0.00000  -0.00496  -0.00493  -3.13775
   D15        0.00898   0.00074   0.00000   0.00331   0.00329   0.01227
   D16        0.48556   0.00257   0.00000   0.04946   0.04949   0.53505
   D17        2.75258   0.00052   0.00000   0.03553   0.03550   2.78808
   D18       -1.66067   0.00306   0.00000   0.04756   0.04757  -1.61310
   D19       -3.12146  -0.00030   0.00000  -0.00225  -0.00219  -3.12365
   D20        0.01946  -0.00030   0.00000  -0.00334  -0.00336   0.01610
   D21       -0.00981  -0.00015   0.00000  -0.00457  -0.00446  -0.01427
   D22        3.13111  -0.00015   0.00000  -0.00566  -0.00563   3.12547
   D23        3.11962  -0.00028   0.00000  -0.00429  -0.00442   3.11520
   D24       -0.01095   0.00039   0.00000   0.01591   0.01619   0.00524
   D25        0.01046   0.00005   0.00000   0.00009   0.00011   0.01057
   D26       -3.12011   0.00072   0.00000   0.02029   0.02072  -3.09939
   D27        0.00286   0.00013   0.00000   0.00539   0.00530   0.00815
   D28       -3.13719   0.00006   0.00000   0.00189   0.00184  -3.13535
   D29       -3.13804   0.00014   0.00000   0.00652   0.00651  -3.13153
   D30        0.00511   0.00007   0.00000   0.00302   0.00305   0.00815
   D31        0.00296  -0.00004   0.00000  -0.00194  -0.00199   0.00097
   D32       -3.13889  -0.00009   0.00000  -0.00414  -0.00407   3.14022
   D33       -3.14019   0.00002   0.00000   0.00156   0.00149  -3.13870
   D34        0.00115  -0.00003   0.00000  -0.00064  -0.00060   0.00055
   D35       -0.00207  -0.00002   0.00000  -0.00246  -0.00233  -0.00440
   D36        3.13999  -0.00004   0.00000  -0.00215  -0.00195   3.13804
   D37        3.13978   0.00003   0.00000  -0.00027  -0.00025   3.13953
   D38       -0.00135   0.00001   0.00000   0.00004   0.00013  -0.00122
   D39       -0.00454   0.00002   0.00000   0.00339   0.00325  -0.00129
   D40        3.12614  -0.00048   0.00000  -0.01601  -0.01543   3.11070
   D41        3.13660   0.00004   0.00000   0.00309   0.00287   3.13947
   D42       -0.01591  -0.00046   0.00000  -0.01632  -0.01581  -0.03172
   D43        1.43814  -0.00011   0.00000  -0.02782  -0.02787   1.41027
   D44       -0.63704  -0.00109   0.00000  -0.03887  -0.03902  -0.67607
   D45       -2.75717  -0.00147   0.00000  -0.04333  -0.04343  -2.80060
   D46       -1.69206   0.00055   0.00000  -0.00707  -0.00692  -1.69897
   D47        2.51594  -0.00043   0.00000  -0.01811  -0.01807   2.49787
   D48        0.39581  -0.00081   0.00000  -0.02258  -0.02248   0.37334
   D49        3.13830   0.00004   0.00000   0.00200   0.00214   3.14044
   D50       -0.01967   0.00008   0.00000   0.00376   0.00387  -0.01581
   D51       -0.00351  -0.00019   0.00000  -0.00639  -0.00642  -0.00992
   D52        3.12171  -0.00015   0.00000  -0.00464  -0.00469   3.11702
   D53       -3.13779  -0.00021   0.00000  -0.00669  -0.00659   3.13881
   D54        0.00738  -0.00024   0.00000  -0.00784  -0.00775  -0.00037
   D55        0.00402   0.00003   0.00000   0.00177   0.00178   0.00580
   D56       -3.13400  -0.00001   0.00000   0.00063   0.00061  -3.13338
   D57       -0.00124   0.00022   0.00000   0.00666   0.00667   0.00543
   D58        3.13952   0.00006   0.00000   0.00196   0.00194   3.14146
   D59       -3.12602   0.00015   0.00000   0.00469   0.00473  -3.12129
   D60        0.01474  -0.00001   0.00000  -0.00002   0.00000   0.01474
   D61        0.00543  -0.00010   0.00000  -0.00245  -0.00248   0.00295
   D62       -3.14046  -0.00007   0.00000  -0.00197  -0.00200   3.14073
   D63       -3.13532   0.00006   0.00000   0.00226   0.00227  -3.13305
   D64        0.00198   0.00009   0.00000   0.00274   0.00275   0.00473
   D65       -0.00491  -0.00007   0.00000  -0.00222  -0.00224  -0.00715
   D66        3.13538   0.00001   0.00000  -0.00013  -0.00012   3.13526
   D67        3.14098  -0.00010   0.00000  -0.00270  -0.00273   3.13825
   D68       -0.00192  -0.00002   0.00000  -0.00061  -0.00060  -0.00252
   D69        0.00022   0.00011   0.00000   0.00258   0.00260   0.00282
   D70        3.13814   0.00014   0.00000   0.00374   0.00379  -3.14125
   D71       -3.14007   0.00003   0.00000   0.00049   0.00049  -3.13958
   D72       -0.00215   0.00006   0.00000   0.00166   0.00168  -0.00047
         Item               Value     Threshold  Converged?
 Maximum Force            0.021847     0.000450     NO 
 RMS     Force            0.005051     0.000300     NO 
 Maximum Displacement     0.474837     0.001800     NO 
 RMS     Displacement     0.118982     0.001200     NO 
 Predicted change in Energy=-6.881270D-03
 GradGradGradGradGradGradGradGradGradGradGradGradGradGradGradGradGradGrad

                          Input orientation:                          
 ---------------------------------------------------------------------
 Center     Atomic      Atomic             Coordinates (Angstroms)
 Number     Number       Type             X           Y           Z
 ---------------------------------------------------------------------
      1          7           0        0.122847   -2.252225   -1.212817
      2         16           0        0.084667   -1.415227    0.080785
      3          6           0       -1.325252   -0.263170    0.066652
      4          6           0       -2.140961   -0.446045   -1.048738
      5          6           0       -3.258750    0.359125   -1.243238
      6          6           0       -3.546069    1.356107   -0.314317
      7          6           0       -2.719702    1.539689    0.792281
      8          6           0       -1.587925    0.744902    1.022240
      9          6           0       -0.729354    1.038315    2.220434
     10          6           0        1.436182   -0.254379   -0.204391
     11          6           0        1.565633    0.381721   -1.439595
     12          6           0        2.619141    1.273206   -1.626726
     13          6           0        3.527309    1.513251   -0.591644
     14          6           0        3.388087    0.860421    0.633595
     15          6           0        2.333024   -0.030767    0.832673
     16          7           0        0.101446   -2.012808    1.502266
     17          1           0       -0.414605   -3.108590   -1.086405
     18          1           0       -1.874648   -1.234309   -1.759444
     19          1           0       -3.898550    0.208510   -2.115708
     20          1           0       -4.419516    1.998821   -0.451995
     21          1           0       -2.953936    2.328018    1.512810
     22          1           0        0.134746    1.656693    1.926183
     23          1           0       -0.347978    0.110758    2.664260
     24          1           0       -1.300462    1.600410    2.972266
     25          1           0        0.855590    0.164959   -2.240275
     26          1           0        2.736638    1.780645   -2.587294
     27          1           0        4.352789    2.213241   -0.744052
     28          1           0        4.102638    1.045173    1.439247
     29          1           0        2.193495   -0.559447    1.780219
     30          1           0        0.626760   -2.885359    1.488712
 ---------------------------------------------------------------------
                    Distance matrix (angstroms):
                    1          2          3          4          5
     1  N    0.000000
     2  S    1.541243   0.000000
     3  C    2.773152   1.820798   0.000000
     4  C    2.900696   2.677416   1.393886   0.000000
     5  C    4.272619   4.009963   2.416916   1.391252   0.000000
     6  C    5.223822   4.584609   2.774748   2.400303   1.392631
     7  C    5.145786   4.135485   2.391930   2.769012   2.414051
     8  C    4.111569   2.889647   1.413633   2.452173   2.841280
     9  C    4.831264   3.355681   2.586066   3.857907   4.342369
    10  C    2.594834   1.804296   2.774718   3.680436   4.847472
    11  C    3.011766   2.780978   3.322932   3.817958   4.828431
    12  C    4.339524   4.070236   4.559190   5.093963   5.960890
    13  C    5.114198   4.569455   5.209258   6.014736   6.914273
    14  C    4.874382   4.049291   4.878468   5.925156   6.924901
    15  C    3.742164   2.745391   3.744834   4.871212   5.977404
    16  N    2.725703   1.542075   2.675386   3.740422   4.945178
    17  H    1.018918   2.116384   3.202379   3.173463   4.487628
    18  H    2.307583   2.694084   2.139994   1.094252   2.172842
    19  H    4.800215   4.829816   3.406911   2.157774   1.092352
    20  H    6.267639   5.676904   3.867825   3.394891   2.159177
    21  H    6.154207   5.029482   3.385003   3.862367   3.400772
    22  H    5.013293   3.583950   3.045542   4.295406   4.821279
    23  H    4.564766   3.031527   2.800438   4.160669   4.878814
    24  H    5.863748   4.401513   3.451977   4.589433   4.811046
    25  H    2.726787   2.911809   3.203323   3.282135   4.237875
    26  H    4.998513   4.936111   5.264937   5.578196   6.306495
    27  H    6.168674   5.662420   6.247400   7.023776   7.849998
    28  H    5.809046   4.903374   5.749588   6.884499   7.864885
    29  H    4.013895   2.840351   3.925006   5.177197   6.301750
    30  H    2.820115   2.106517   3.564896   4.477632   5.752167
                    6          7          8          9         10
     6  C    0.000000
     7  C    1.393249   0.000000
     8  C    2.448323   1.401958   0.000000
     9  C    3.802610   2.500497   1.502965   0.000000
    10  C    5.237230   4.635020   3.412977   3.498626   0.000000
    11  C    5.324019   4.968527   4.017146   4.369656   1.395389
    12  C    6.303896   5.867354   4.999553   5.105706   2.399155
    13  C    7.080556   6.398522   5.418542   5.123722   2.765374
    14  C    7.016179   6.147494   4.992504   4.416223   2.398944
    15  C    6.148393   5.291314   4.001430   3.528027   1.389183
    16  N    5.287148   4.591644   3.269460   3.242737   2.790389
    17  H    5.507786   5.518100   4.546698   5.313291   3.514239
    18  H    3.404747   3.862704   3.425968   4.723976   3.786826
    19  H    2.164771   3.408536   3.933627   5.434566   5.685663
    20  H    1.093135   2.156013   3.429809   4.656366   6.279126
    21  H    2.152585   1.093385   2.147766   2.666990   5.375006
    22  H    4.319560   3.073646   2.148505   1.102563   3.144086
    23  H    4.544294   3.342338   2.153100   1.096718   3.397898
    24  H    3.987990   2.601974   2.148751   1.098803   4.584825
    25  H    4.950026   4.885590   4.117173   4.813806   2.158184
    26  H    6.694704   6.422712   5.727421   5.973141   3.392748
    27  H    7.956840   7.268708   6.369293   5.999734   3.858365
    28  H    7.853304   6.870767   5.713717   4.894736   3.391219
    29  H    6.403048   5.433406   4.071241   3.360012   2.145988
    30  H    6.217191   5.591501   4.277994   4.215410   3.231689
                   11         12         13         14         15
    11  C    0.000000
    12  C    1.392710   0.000000
    13  C    2.418171   1.397779   0.000000
    14  C    2.801537   2.422957   1.395271   0.000000
    15  C    2.433565   2.798366   2.416399   1.395352   0.000000
    16  N    4.065976   5.189149   5.343602   4.451072   3.058886
    17  H    4.028443   5.356836   6.094660   5.759506   4.550310
    18  H    3.814367   5.147755   6.172032   6.149058   5.086462
    19  H    5.508578   6.622158   7.692106   7.815289   6.898023
    20  H    6.277928   7.172810   7.962870   7.964492   7.167035
    21  H    5.738578   6.482939   6.862879   6.568723   5.829099
    22  H    3.873171   4.352291   4.227234   3.590134   2.979213
    23  H    4.536183   5.344870   5.252213   4.317844   3.250001
    24  H    5.400391   6.051535   6.001368   5.291452   4.521152
    25  H    1.091895   2.171350   3.416717   3.893115   3.415279
    26  H    2.155331   1.092699   2.163164   3.412525   3.891053
    27  H    3.406829   2.160629   1.092993   2.158399   3.406037
    28  H    3.894136   3.413642   2.162087   1.092607   2.158034
    29  H    3.412801   3.891922   3.420653   2.181243   1.093989
    30  H    4.486678   5.564997   5.664700   4.731492   3.389752
                   16         17         18         19         20
    16  N    0.000000
    17  H    2.858017   0.000000
    18  H    3.892270   2.469339   0.000000
    19  H    5.833006   4.919399   2.510942   0.000000
    20  H    6.352276   6.521306   4.317280   2.498912   0.000000
    21  H    5.308319   6.539176   4.956076   4.307058   2.473207
    22  H    3.694057   5.664397   5.097001   5.890807   5.149183
    23  H    2.462061   4.943291   4.869198   5.955184   5.463813
    24  H    4.145069   6.279509   5.545666   5.880045   4.648956
    25  H    4.395227   3.696071   3.105375   4.755971   5.864106
    26  H    6.169200   6.007297   5.571287   6.835183   7.471121
    27  H    6.401512   7.153121   7.190104   8.601452   8.779784
    28  H    5.036343   6.636124   7.152315   8.795267   8.781421
    29  H    2.562457   4.638733   5.434560   7.271934   7.433669
    30  H    1.018569   2.786665   4.419676   6.560664   7.286046
                   21         22         23         24         25
[...]
     1  N    0.000254   0.011889  -0.002521  -0.111132   0.019679  -0.001734
     2  S    0.019420  -0.008351  -0.022810   0.240654  -0.001667   0.000761
     3  C    0.099708   0.135347  -0.092004  -0.056508   0.017630   0.001885
     4  C   -0.194478   0.088429   0.040811  -0.017694   0.011100  -0.000252
     5  C    0.089334  -0.134749  -0.012095   0.004768  -0.002623  -0.000117
     6  C    0.412952   0.074043   0.022842  -0.002058   0.000998  -0.000010
     7  C    5.089422   0.408311  -0.103155   0.002970  -0.002459   0.000051
     8  C    0.408311   5.189009   0.284123  -0.015978  -0.002156   0.000319
     9  C   -0.103155   0.284123   5.157184   0.005519   0.003881  -0.000122
    10  C    0.002970  -0.015978   0.005519   5.250754   0.382348   0.042402
    11  C   -0.002459  -0.002156   0.003881   0.382348   5.055217   0.405129
    12  C    0.000051   0.000319  -0.000122   0.042402   0.405129   4.942595
    13  C   -0.000055  -0.000031  -0.000216  -0.073867   0.018251   0.460273
    14  C    0.000126   0.000910  -0.000555  -0.001998  -0.066899   0.014343
    15  C    0.000389  -0.006138   0.006308   0.371166  -0.050861  -0.080692
    16  N    0.001525   0.014677  -0.051929  -0.100506   0.012091  -0.001612
    17  H    0.000258  -0.000469  -0.000118   0.019409  -0.003431   0.000151
    18  H   -0.006916   0.016989   0.000817  -0.010577   0.003955  -0.000048
    19  H    0.010836  -0.001814   0.000025   0.000111  -0.000038  -0.000003
    20  H   -0.053345   0.013756  -0.000204  -0.000010   0.000001   0.000000
    21  H    0.423354  -0.060595  -0.014850   0.000076  -0.000010   0.000000
    22  H   -0.005228  -0.025106   0.397484  -0.000954   0.000372   0.000052
    23  H   -0.002512  -0.038496   0.426961  -0.000700  -0.000885   0.000099
    24  H    0.002984  -0.054749   0.380609   0.000492  -0.000061  -0.000002
    25  H   -0.000284   0.000239   0.000160  -0.052812   0.430050  -0.065183
    26  H    0.000005   0.000019  -0.000008   0.009924  -0.049186   0.424017
    27  H   -0.000000   0.000001   0.000001  -0.001784   0.009363  -0.047379
    28  H   -0.000000   0.000009   0.000010   0.009406  -0.000623   0.008674
    29  H    0.000400   0.003348  -0.006683  -0.051751   0.005690  -0.001131
    30  H    0.000047  -0.000443   0.000697  -0.007683   0.000982   0.000064
              13         14         15         16         17         18
     1  N    0.000567  -0.001374   0.009434  -0.077015   0.320610   0.032043
     2  S    0.001470   0.008735  -0.047426   0.492356  -0.029162  -0.007100
     3  C   -0.000229  -0.001627  -0.014955  -0.081576  -0.004338  -0.082954
     4  C    0.000277  -0.000305   0.001130   0.007228   0.000914   0.443362
     5  C   -0.000014   0.000035   0.000556  -0.001679   0.001058  -0.061850
     6  C    0.000010  -0.000017  -0.000122   0.000144  -0.000224   0.013743
     7  C   -0.000055   0.000126   0.000389   0.001525   0.000258  -0.006916
     8  C   -0.000031   0.000910  -0.006138   0.014677  -0.000469   0.016989
     9  C   -0.000216  -0.000555   0.006308  -0.051929  -0.000118   0.000817
    10  C   -0.073867  -0.001998   0.371166  -0.100506   0.019409  -0.010577
    11  C    0.018251  -0.066899  -0.050861   0.012091  -0.003431   0.003955
    12  C    0.460273   0.014343  -0.080692  -0.001612   0.000151  -0.000048
    13  C    4.861504   0.485394   0.011457   0.000449  -0.000026   0.000039
    14  C    0.485394   4.914256   0.423759   0.002474   0.000068  -0.000003
    15  C    0.011457   0.423759   5.172911   0.021686  -0.001083  -0.000709
    16  N    0.000449   0.002474   0.021686   6.994478  -0.003245   0.003315
    17  H   -0.000026   0.000068  -0.001083  -0.003245   0.486751  -0.006217
    18  H    0.000039  -0.000003  -0.000709   0.003315  -0.006217   0.516498
    19  H   -0.000000   0.000000   0.000006  -0.000007   0.000035  -0.007155
    20  H    0.000000  -0.000000   0.000000  -0.000002  -0.000000  -0.000136
    21  H   -0.000001   0.000006  -0.000026   0.000020   0.000001   0.000049
    22  H   -0.000039   0.002914  -0.003640  -0.001298   0.000000   0.000019
    23  H   -0.000054   0.000131  -0.000254   0.008624   0.000066  -0.000104
    24  H   -0.000007   0.000029   0.000280   0.001888   0.000001  -0.000007
    25  H    0.010879  -0.003398   0.012779   0.000896  -0.001223   0.001007
    26  H   -0.051852   0.009735  -0.000786   0.000004  -0.000001  -0.000023
    27  H    0.421255  -0.048633   0.009683   0.000001   0.000000   0.000000
    28  H   -0.046418   0.423398  -0.051228   0.000009  -0.000001   0.000000
    29  H    0.005840  -0.042246   0.415435   0.029479  -0.000117  -0.000069
    30  H   -0.000051   0.000236   0.001115   0.310242  -0.000045  -0.000071
              19         20         21         22         23         24
     1  N    0.000048   0.000000   0.000012   0.000024   0.000422   0.000008
     2  S   -0.000291   0.000015  -0.000038   0.001582   0.003874   0.000249
     3  C    0.012921  -0.004396   0.021947  -0.009518  -0.011542   0.016320
     4  C   -0.055186   0.012781  -0.003881   0.000369  -0.000676  -0.001629
     5  C    0.429711  -0.054664   0.012440   0.000053   0.000169   0.000434
     6  C   -0.052342   0.427347  -0.057138  -0.000343  -0.000234   0.000862
     7  C    0.010836  -0.053345   0.423354  -0.005228  -0.002512   0.002984
     8  C   -0.001814   0.013756  -0.060595  -0.025106  -0.038496  -0.054749
     9  C    0.000025  -0.000204  -0.014850   0.397484   0.426961   0.380609
    10  C    0.000111  -0.000010   0.000076  -0.000954  -0.000700   0.000492
    11  C   -0.000038   0.000001  -0.000010   0.000372  -0.000885  -0.000061
    12  C   -0.000003   0.000000   0.000000   0.000052   0.000099  -0.000002
    13  C   -0.000000   0.000000  -0.000001  -0.000039  -0.000054  -0.000007
    14  C    0.000000  -0.000000   0.000006   0.002914   0.000131   0.000029
    15  C    0.000006   0.000000  -0.000026  -0.003640  -0.000254   0.000280
    16  N   -0.000007  -0.000002   0.000020  -0.001298   0.008624   0.001888
    17  H    0.000035  -0.000000   0.000001   0.000000   0.000066   0.000001
    18  H   -0.007155  -0.000136   0.000049   0.000019  -0.000104  -0.000007
    19  H    0.549807  -0.007573  -0.000270  -0.000003   0.000000  -0.000000
    20  H   -0.007573   0.553468  -0.008138   0.000015   0.000009  -0.000109
    21  H   -0.000270  -0.008138   0.567262   0.000233   0.000029   0.006699
    22  H   -0.000003   0.000015   0.000233   0.549207  -0.028759  -0.019444
    23  H    0.000000   0.000009   0.000029  -0.028759   0.475444  -0.014625
    24  H   -0.000000  -0.000109   0.006699  -0.019444  -0.014625   0.560845
    25  H   -0.000029   0.000001  -0.000002   0.000027  -0.000020  -0.000001
    26  H    0.000000  -0.000000   0.000000  -0.000002   0.000000   0.000000
    27  H    0.000000   0.000000   0.000000  -0.000002  -0.000000  -0.000000
    28  H   -0.000000   0.000000   0.000000   0.000060   0.000006  -0.000002
    29  H    0.000000  -0.000000   0.000000  -0.002195  -0.000079   0.000340
    30  H   -0.000001   0.000000  -0.000003   0.000172  -0.000555  -0.000071
              25         26         27         28         29         30
     1  N    0.012026  -0.000145  -0.000000  -0.000001   0.002149  -0.002372
     2  S    0.001091  -0.000402   0.000044  -0.000354  -0.004847  -0.018876
     3  C   -0.000493   0.000052  -0.000008   0.000027  -0.004190   0.015578
     4  C    0.004000  -0.000053   0.000001   0.000002  -0.000799  -0.000862
     5  C   -0.000341   0.000006   0.000000  -0.000000   0.000072  -0.000006
     6  C    0.000170  -0.000002   0.000000   0.000000  -0.000029   0.000011
     7  C   -0.000284   0.000005  -0.000000  -0.000000   0.000400   0.000047
     8  C    0.000239   0.000019   0.000001   0.000009   0.003348  -0.000443
     9  C    0.000160  -0.000008   0.000001   0.000010  -0.006683   0.000697
    10  C   -0.052812   0.009924  -0.001784   0.009406  -0.051751  -0.007683
    11  C    0.430050  -0.049186   0.009363  -0.000623   0.005690   0.000982
    12  C   -0.065183   0.424017  -0.047379   0.008674  -0.001131   0.000064
    13  C    0.010879  -0.051852   0.421255  -0.046418   0.005840  -0.000051
    14  C   -0.003398   0.009735  -0.048633   0.423398  -0.042246   0.000236
    15  C    0.012779  -0.000786   0.009683  -0.051228   0.415435   0.001115
    16  N    0.000896   0.000004   0.000001   0.000009   0.029479   0.310242
    17  H   -0.001223  -0.000001   0.000000  -0.000001  -0.000117  -0.000045
    18  H    0.001007  -0.000023   0.000000   0.000000  -0.000069  -0.000071
    19  H   -0.000029   0.000000   0.000000  -0.000000   0.000000  -0.000001
    20  H    0.000001  -0.000000   0.000000   0.000000  -0.000000   0.000000
    21  H   -0.000002   0.000000   0.000000   0.000000   0.000000  -0.000003
    22  H    0.000027  -0.000002  -0.000002   0.000060  -0.002195   0.000172
    23  H   -0.000020   0.000000  -0.000000   0.000006  -0.000079  -0.000555
    24  H   -0.000001   0.000000  -0.000000  -0.000002   0.000340  -0.000071
    25  H    0.512890  -0.007386  -0.000185   0.000061  -0.000194  -0.000016
    26  H   -0.007386   0.548654  -0.007382  -0.000256   0.000113   0.000000
    27  H   -0.000185  -0.007382   0.548149  -0.007411  -0.000207  -0.000000
    28  H    0.000061  -0.000256  -0.007411   0.544868  -0.005444   0.000008
    29  H   -0.000194   0.000113  -0.000207  -0.005444   0.490532  -0.001825
    30  H   -0.000016   0.000000  -0.000000   0.000008  -0.001825   0.485609
 Mulliken charges:
               1
     1  N   -0.566142
     2  S    0.445996
     3  C    0.091198
     4  C   -0.151403
     5  C   -0.162717
     6  C   -0.091422
     7  C   -0.193916
     8  C    0.107658
     9  C   -0.420160
    10  C    0.166013
    11  C   -0.195834
    12  C   -0.102531
    13  C   -0.104805
    14  C   -0.119491
    15  C   -0.200175
    16  N   -0.582716
    17  H    0.220379
    18  H    0.152102
    19  H    0.121210
    20  H    0.121182
    21  H    0.112827
    22  H    0.143949
    23  H    0.183663
    24  H    0.118669
    25  H    0.145290
    26  H    0.124956
    27  H    0.124494
    28  H    0.125199
    29  H    0.168408
    30  H    0.218120
 Sum of Mulliken charges =  -0.00000
 Mulliken charges with hydrogens summed into heavy atoms:
               1
     1  N   -0.345763
     2  S    0.445996
     3  C    0.091198
     4  C    0.000699
     5  C   -0.041507
     6  C    0.029760
     7  C   -0.081089
     8  C    0.107658
     9  C    0.026120
    10  C    0.166013
    11  C   -0.050544
    12  C    0.022425
    13  C    0.019689
    14  C    0.005708
    15  C   -0.031767
    16  N   -0.364596
 Electronic spatial extent (au):  <R**2>=           3681.5272
 Charge=              0.0000 electrons
 Dipole moment (field-independent basis, Debye):
    X=             -0.2878    Y=             -2.1070    Z=             -1.6027  Tot=              2.6629
 Quadrupole moment (field-independent basis, Debye-Ang):
   XX=            -91.1944   YY=           -100.5862   ZZ=            -99.9490
   XY=              4.3728   XZ=             -3.6308   YZ=             -2.0189
 Traceless Quadrupole moment (field-independent basis, Debye-Ang):
   XX=              6.0488   YY=             -3.3430   ZZ=             -2.7058
   XY=              4.3728   XZ=             -3.6308   YZ=             -2.0189
 Octapole moment (field-independent basis, Debye-Ang**2):
  XXX=             -4.8635  YYY=             -4.9429  ZZZ=             -8.7970  XYY=             17.4298
  XXY=            -28.1970  XXZ=            -26.9868  XZZ=            -17.5228  YZZ=              9.6632
  YYZ=             11.5777  XYZ=             -3.5983
 Hexadecapole moment (field-independent basis, Debye-Ang**3):
 XXXX=          -2958.5936 YYYY=          -1048.0013 ZZZZ=           -950.6372 XXXY=             49.6803
 XXXZ=            -37.4395 YYYX=             29.8790 YYYZ=             12.4259 ZZZX=            -11.3775
 ZZZY=             -2.4226 XXYY=           -638.3273 XXZZ=           -604.0398 YYZZ=           -320.6234
 XXYZ=              3.1234 YYXZ=             -7.8395 ZZXY=             -0.7642
 N-N= 1.206002866249D+03 E-N=-4.780867822192D+03  KE= 1.006755382644D+03
 Breneman (CHELPG) radii used.
 Read replacement radii for each type of atom:
 Atom Element Radius
    1     7    1.70
    2    16    2.00
    3     6    1.50
    4     6    1.50
    5     6    1.50
    6     6    1.50
    7     6    1.50
    8     6    1.50
    9     6    1.50
   10     6    1.50
   11     6    1.50
   12     6    1.50
   13     6    1.50
   14     6    1.50
   15     6    1.50
   16     7    1.70
   17     1    1.45
   18     1    1.45
   19     1    1.45
   20     1    1.45
   21     1    1.45
   22     1    1.45
   23     1    1.45
   24     1    1.45
   25     1    1.45
   26     1    1.45
   27     1    1.45
   28     1    1.45
   29     1    1.45
   30     1    1.45
 Generate Potential Derived Charges using the Breneman model, NDens= 1.
 Grid spacing= 0.300 Box extension= 2.800
 NStep X,Y,Z=   50     40     39   Total possible points=       78000
 Number of Points to Fit=   18072

 **********************************************************************

            Electrostatic Properties Using The SCF Density.

 **********************************************************************

       Atomic Center    1 is at  -0.242380  2.546562  0.263938
       Atomic Center    2 is at  -0.083009  1.105523  0.820554
       Atomic Center    3 is at   1.332845  0.235178  0.094996
       Atomic Center    4 is at   2.016073  0.990979 -0.855079
       Atomic Center    5 is at   3.134659  0.469753 -1.498394
       Atomic Center    6 is at   3.555067 -0.819114 -1.186307
       Atomic Center    7 is at   2.856475 -1.570783 -0.244532
       Atomic Center    8 is at   1.728821 -1.076096  0.423056
       Atomic Center    9 is at   1.014401 -1.950385  1.406762
       Atomic Center   10 is at  -1.472103  0.287313  0.021204
       Atomic Center   11 is at  -1.823298  0.591869 -1.293308
       Atomic Center   12 is at  -2.904100 -0.070544 -1.867030
       Atomic Center   13 is at  -3.624675 -1.013248 -1.129676
       Atomic Center   14 is at  -3.270080 -1.294947  0.187817
       Atomic Center   15 is at  -2.183814 -0.642290  0.771121
       Atomic Center   16 is at   0.047053  0.772148  2.330578
       Atomic Center   17 is at   0.475500  3.120924  0.716986
       Atomic Center   18 is at   1.643505  1.992901 -1.083931
       Atomic Center   19 is at   3.669588  1.068756 -2.238459
       Atomic Center   20 is at   4.430566 -1.248134 -1.679588
       Atomic Center   21 is at   3.192655 -2.584148 -0.009509
       Atomic Center   22 is at   0.023383 -2.239114  1.020615
       Atomic Center   23 is at   0.847034 -1.412814  2.349352
       Atomic Center   24 is at   1.585888 -2.870558  1.587852
       Atomic Center   25 is at  -1.261352  1.351132 -1.838988
       Atomic Center   26 is at  -3.193120  0.155466 -2.896064
       Atomic Center   27 is at  -4.473735 -1.526992 -1.586697
       Atomic Center   28 is at  -3.841403 -2.023717  0.767331
       Atomic Center   29 is at  -1.881430 -0.834213  1.803663
       Atomic Center   30 is at  -0.683277  1.305060  2.813190
   18072 points will be used for fitting atomic charges
 Fitting point charges to electrostatic potential
 Charges from ESP fit, RMS=   0.00393 RRMS=   0.30572:
 ESP charges:
               1
     1  N   -0.717425
     2  S    0.506033
     3  C   -0.002147
     4  C   -0.079492
     5  C   -0.154675
     6  C   -0.041928
     7  C   -0.207304
     8  C    0.177643
     9  C   -0.263332
    10  C    0.109816
    11  C   -0.134646
    12  C   -0.067732
    13  C   -0.097672
    14  C   -0.103901
    15  C   -0.057630
    16  N   -0.698656
    17  H    0.329397
    18  H    0.119459
    19  H    0.109171
    20  H    0.095378
    21  H    0.117533
    22  H    0.034568
    23  H    0.114524
    24  H    0.084047
    25  H    0.118118
    26  H    0.095593
    27  H    0.100540
    28  H    0.097537
    29  H    0.105048
    30  H    0.312134
 Sum of ESP charges =   0.00000
 ESP charges with hydrogens summed into heavy atoms:
               1
     1  N   -0.388028
     2  S    0.506033
     3  C   -0.002147
     4  C    0.039967
     5  C   -0.045504
     6  C    0.053449
     7  C   -0.089771
     8  C    0.177643
     9  C   -0.030193
    10  C    0.109816
    11  C   -0.016528
    12  C    0.027861
    13  C    0.002868
    14  C   -0.006364
    15  C    0.047418
    16  N   -0.386521
 Charge=   0.00000 Dipole=    -0.2744    -2.0489    -1.5409 Tot=     2.5783
 -----------------------------------------------------------------

              Electrostatic Properties (Atomic Units)

 -----------------------------------------------------------------
    Center     Electric         -------- Electric Field --------
               Potential          X             Y             Z
 -----------------------------------------------------------------
    1 Atom    -18.425511
    2 Atom    -59.074801
    3 Atom    -14.732106
    4 Atom    -14.752439
    5 Atom    -14.755580
    6 Atom    -14.752738
    7 Atom    -14.756982
    8 Atom    -14.734846
    9 Atom    -14.772286
   10 Atom    -14.730848
   11 Atom    -14.746893
   12 Atom    -14.749129
   13 Atom    -14.747396
   14 Atom    -14.748082
   15 Atom    -14.746011
   16 Atom    -18.425326
   17 Atom     -1.050667
   18 Atom     -1.094505
   19 Atom     -1.095585
   20 Atom     -1.094019
   21 Atom     -1.097422
   22 Atom     -1.110065
   23 Atom     -1.118871
   24 Atom     -1.115134
   25 Atom     -1.092727
   26 Atom     -1.091831
   27 Atom     -1.090292
   28 Atom     -1.090487
   29 Atom     -1.088263
   30 Atom     -1.049891
 -----------------------------------------------------------------
 Unable to Open any file for archive entry.
 1\1\GINC-NOTCH029\SP\RPBE1PBE\def2TZVP\C13H14N2S1\U1414944\10-Feb-2025
 \0\\#N Guess=Read Geom=Check Integral(Ultrafine) Density Pop=(ChelpG,R
 eadRadii) NMR pbe1pbe EmpiricalDispersion=GD3BJ def2TZVP\\SDI0125_2\\0
 ,1\N,0,0.145429449,-2.2494258501,-1.2026544342\S,0,0.0908911544,-1.354
 7755371,0.0655890009\C,0,-1.329772984,-0.2277297991,0.0578588808\C,0,-
 2.110386025,-0.3333088423,-1.0911288351\C,0,-3.2452120999,0.4570345072
 ,-1.2469939096\C,0,-3.5836161631,1.3598819044,-0.2441641293\C,0,-2.788
 4482846,1.4665863047,0.8943870031\C,0,-1.6417056467,0.6849744359,1.084
 2739859\C,0,-0.8222613293,0.8707874671,2.3238059372\C,0,1.4581953713,-
 0.2321214314,-0.2632533887\C,0,1.7043004532,0.2391234003,-1.552203518\
 C,0,2.7726324499,1.1075175046,-1.7537993866\C,0,3.5845064343,1.4863326
 133,-0.6818991806\C,0,3.3341666015,0.9943828926,0.5972383011\C,0,2.261
 4930374,0.1288406062,0.81261315\N,0,0.0798620603,-1.9100121763,1.51466
 37408\H,0,-0.5654202813,-2.9780075032,-1.0828337564\H,0,-1.8007799409,
 -1.0427695965,-1.8630341754\H,0,-3.8564623939,0.3662318088,-2.14742556
 89\H,0,-4.4701578392,1.9903910744,-0.346068955\H,0,-3.0608429448,2.182
 162897,1.6747161351\H,0,0.1522468341,1.3240898051,2.0800009614\H,0,-0.
 6157042147,-0.0977906278,2.797792354\H,0,-1.3371334699,1.5385486151,3.
 027447094\H,0,1.0720538131,-0.0925840055,-2.3769856077\H,0,2.979907309
 ,1.4867564611,-2.7571631744\H,0,4.423033124,2.1664787615,-0.8491673881
 \H,0,3.9766708771,1.2819835128,1.4325990171\H,0,2.0395727322,-0.280753
 349,1.801247763\H,0,0.8162249417,-2.6211885797,1.5625274306\\Version=E
 S64L-G16RevC.01\State=1-A\HF=-1010.811354\RMSD=3.553e-09\Dipole=0.1078
 26,1.0392251,-0.0775139\Quadrupole=5.1271345,-3.7241718,-1.4029627,1.2
 427684,3.5575753,0.26485\PG=C01 [X(C13H14N2S1)]\\@
 The archive entry for this job was punched.


 IT IS NOT EASY TO DESCRIBE
     THE SEA WITH THE MOUTH

                   -- KOKYU
 Job cpu time:       0 days  1 hours 13 minutes 29.2 seconds.
 Elapsed time:       0 days  0 hours  4 minutes 58.0 seconds.
 File lengths (MBytes):  RWF=    209 Int=      0 D2E=      0 Chk=     32 Scr=      2
 Normal termination of Gaussian 16 at Mon Feb 10 20:10:14 2025.
