 Entering Gaussian System, Link 0=g16
 Input=SDI0122_2.com
 Output=SDI0122_2.log
 Initial command:
 /uufs/chpc.utah.edu/sys/installdir/gaussian16/C01/AVX/g16/l1.exe "/scratch/general/vast/u1414944/3119873-notchpeak.peaks/Gau-825931.inp" -scrdir="/scratch/general/vast/u1414944/3119873-notchpeak.peaks/"
 Entering Link 1 = /uufs/chpc.utah.edu/sys/installdir/gaussian16/C01/AVX/g16/l1.exe PID=    825932.
  
 Copyright (c) 1988-2019, Gaussian, Inc.  All Rights Reserved.
  
 This is part of the Gaussian(R) 16 program.  It is based on
 the Gaussian(R) 09 system (copyright 2009, Gaussian, Inc.),
 the Gaussian(R) 03 system (copyright 2003, Gaussian, Inc.),
 the Gaussian(R) 98 system (copyright 1998, Gaussian, Inc.),
 the Gaussian(R) 94 system (copyright 1995, Gaussian, Inc.),
 the Gaussian 92(TM) system (copyright 1992, Gaussian, Inc.),
 the Gaussian 90(TM) system (copyright 1990, Gaussian, Inc.),
 the Gaussian 88(TM) system (copyright 1988, Gaussian, Inc.),
 the Gaussian 86(TM) system (copyright 1986, Carnegie Mellon
 University), and the Gaussian 82(TM) system (copyright 1983,
 Carnegie Mellon University). Gaussian is a federally registered
 trademark of Gaussian, Inc.
  
 This software contains proprietary and confidential information,
 including trade secrets, belonging to Gaussian, Inc.
  
 This software is provided under written license and may be
 used, copied, transmitted, or stored only in accord with that
 written license.
  
 The following legend is applicable only to US Government
 contracts under FAR:
  
                    RESTRICTED RIGHTS LEGEND
  
 Use, reproduction and disclosure by the US Government is
 subject to restrictions as set forth in subparagraphs (a)
 and (c) of the Commercial Computer Software - Restricted
 Rights clause in FAR 52.227-19.
  
 Gaussian, Inc.
 340 Quinnipiac St., Bldg. 40, Wallingford CT 06492
  
  
 ---------------------------------------------------------------
 Warning -- This program may not be used in any manner that
 competes with the business of Gaussian, Inc. or will provide
 assistance to any competitor of Gaussian, Inc.  The licensee
 of this program is prohibited from giving any competitor of
 Gaussian, Inc. access to this program.  By using this program,
 the user acknowledges that Gaussian, Inc. is engaged in the
 business of creating and licensing software in the field of
 computational chemistry and represents and warrants to the
 licensee that it is not a competitor of Gaussian, Inc. and that
 it will not use this program in any manner prohibited above.
 ---------------------------------------------------------------
  

 Cite this work as:
 Gaussian 16, Revision C.01,
 M. J. Frisch, G. W. Trucks, H. B. Schlegel, G. E. Scuseria, 
 M. A. Robb, J. R. Cheeseman, G. Scalmani, V. Barone, 
 G. A. Petersson, H. Nakatsuji, X. Li, M. Caricato, A. V. Marenich, 
 J. Bloino, B. G. Janesko, R. Gomperts, B. Mennucci, H. P. Hratchian, 
 J. V. Ortiz, A. F. Izmaylov, J. L. Sonnenberg, D. Williams-Young, 
 F. Ding, F. Lipparini, F. Egidi, J. Goings, B. Peng, A. Petrone, 
 T. Henderson, D. Ranasinghe, V. G. Zakrzewski, J. Gao, N. Rega, 
 G. Zheng, W. Liang, M. Hada, M. Ehara, K. Toyota, R. Fukuda, 
 J. Hasegawa, M. Ishida, T. Nakajima, Y. Honda, O. Kitao, H. Nakai, 
 T. Vreven, K. Throssell, J. A. Montgomery, Jr., J. E. Peralta, 
 F. Ogliaro, M. J. Bearpark, J. J. Heyd, E. N. Brothers, K. N. Kudin, 
 V. N. Staroverov, T. A. Keith, R. Kobayashi, J. Normand, 
 K. Raghavachari, A. P. Rendell, J. C. Burant, S. S. Iyengar, 
 J. Tomasi, M. Cossi, J. M. Millam, M. Klene, C. Adamo, R. Cammi, 
 J. W. Ochterski, R. L. Martin, K. Morokuma, O. Farkas, 
 J. B. Foresman, and D. J. Fox, Gaussian, Inc., Wallingford CT, 2019.
 
 ******************************************
 Gaussian 16:  ES64L-G16RevC.01  3-Jul-2019
                10-Feb-2025 
 ******************************************
 %NProcShared=16
 Will use up to   16 processors via shared memory.
 %Mem=40GB
 %chk=SDI0122_2.chk
 ----------------------------------------------------------------------
 #N OPT FREQ=NORAMAN Integral(Ultrafine) pbe1pbe EmpiricalDispersion=GD
 3BJ def2SVP
 ----------------------------------------------------------------------
 1/18=20,19=15,26=4,38=1/1,3;
 2/9=110,12=2,17=6,18=5,40=1/2;
 3/5=43,7=101,11=2,25=1,30=1,71=1,74=-13,75=-5,124=41/1,2,3;
 4//1;
 5/5=2,38=5/2;
 6/7=2,8=2,9=2,10=2,28=1/1;
 7//1,2,3,16;
 1/18=20,19=15,26=4/3(2);
 2/9=110/2;
 99//99;
 2/9=110/2;
 3/5=43,7=101,11=2,25=1,30=1,71=1,74=-13,75=-5,124=41/1,2,3;
 4/5=5,16=3,69=1/1;
 5/5=2,38=5/2;
 7//1,2,3,16;
 1/18=20,19=15,26=4/3(-5);
 2/9=110/2;
 6/7=2,8=2,9=2,10=2,19=2,28=1/1;
 99/9=1/99;
 ---------
 SDI0122_2
 ---------
 Symbolic Z-matrix:
 Charge =  0 Multiplicity = 1
 N                    -1.45316  -0.41687  -1.6146 
 S                    -1.00423  -0.72607  -0.1911 
 C                     0.74906  -0.24836  -0.05817 
 C                     1.36459   0.31453  -1.1586 
 C                     2.69182   0.69959  -1.07472 
 C                     3.39005   0.51656   0.10811 
 C                     2.76632  -0.05321   1.20663 
 C                     1.43868  -0.43835   1.1244 
 C                    -1.67575   0.57774   0.90507 
 C                    -1.70673   1.94668   0.31398 
 C                    -2.97727   1.18048   0.4961 
 N                    -1.30874  -2.15446   0.27308 
 H                    -1.92498  -1.18878  -2.05219 
 H                     0.78637   0.43424  -2.06167 
 H                     3.18134   1.14064  -1.93012 
 H                     4.42556   0.81579   0.17503 
 H                     3.31385  -0.19858   2.12609 
 H                     0.94552  -0.88985   1.97329 
 H                    -1.43623   0.42651   1.94661 
 H                    -1.50063   2.79276   0.95286 
 H                    -1.32876   2.03889  -0.69264 
 H                    -3.67442   1.47946   1.26454 
 H                    -3.43404   0.76935  -0.3915 
 H                    -1.01559  -2.36577   1.21251 
 

 GradGradGradGradGradGradGradGradGradGradGradGradGradGradGradGradGradGrad
 Berny optimization.
 Initialization pass.
                           ----------------------------
                           !    Initial Parameters    !
                           ! (Angstroms and Degrees)  !
 --------------------------                            --------------------------
 ! Name  Definition              Value          Derivative Info.                !
 --------------------------------------------------------------------------------
 ! R1    R(1,2)                  1.5243         estimate D2E/DX2                !
 ! R2    R(1,13)                 1.005          estimate D2E/DX2                !
 ! R3    R(2,3)                  1.8221         estimate D2E/DX2                !
 ! R4    R(2,9)                  1.831          estimate D2E/DX2                !
 ! R5    R(2,12)                 1.5325         estimate D2E/DX2                !
 ! R6    R(3,4)                  1.3808         estimate D2E/DX2                !
 ! R7    R(3,8)                  1.3821         estimate D2E/DX2                !
 ! R8    R(4,5)                  1.3845         estimate D2E/DX2                !
 ! R9    R(4,14)                 1.079          estimate D2E/DX2                !
 ! R10   R(5,6)                  1.3857         estimate D2E/DX2                !
 ! R11   R(5,15)                 1.0798         estimate D2E/DX2                !
 ! R12   R(6,7)                  1.3858         estimate D2E/DX2                !
 ! R13   R(6,16)                 1.08           estimate D2E/DX2                !
 ! R14   R(7,8)                  1.3848         estimate D2E/DX2                !
 ! R15   R(7,17)                 1.08           estimate D2E/DX2                !
 ! R16   R(8,18)                 1.0806         estimate D2E/DX2                !
 ! R17   R(9,10)                 1.4914         estimate D2E/DX2                !
 ! R18   R(9,11)                 1.4915         estimate D2E/DX2                !
 ! R19   R(9,19)                 1.0794         estimate D2E/DX2                !
 ! R20   R(10,11)                1.4948         estimate D2E/DX2                !
 ! R21   R(10,20)                1.08           estimate D2E/DX2                !
 ! R22   R(10,21)                1.0792         estimate D2E/DX2                !
 ! R23   R(11,22)                1.0798         estimate D2E/DX2                !
 ! R24   R(11,23)                1.0796         estimate D2E/DX2                !
 ! R25   R(12,24)                1.0065         estimate D2E/DX2                !
 ! A1    A(2,1,13)             112.8991         estimate D2E/DX2                !
 ! A2    A(1,2,3)              107.3585         estimate D2E/DX2                !
 ! A3    A(1,2,9)              107.8566         estimate D2E/DX2                !
 ! A4    A(1,2,12)             114.4188         estimate D2E/DX2                !
 ! A5    A(3,2,9)               97.039          estimate D2E/DX2                !
 ! A6    A(3,2,12)             114.4237         estimate D2E/DX2                !
 ! A7    A(9,2,12)             114.174          estimate D2E/DX2                !
 ! A8    A(2,3,4)              118.5342         estimate D2E/DX2                !
 ! A9    A(2,3,8)              120.4321         estimate D2E/DX2                !
 ! A10   A(4,3,8)              121.0318         estimate D2E/DX2                !
 ! A11   A(3,4,5)              119.5            estimate D2E/DX2                !
 ! A12   A(3,4,14)             118.2522         estimate D2E/DX2                !
 ! A13   A(5,4,14)             122.2473         estimate D2E/DX2                !
 ! A14   A(4,5,6)              119.8693         estimate D2E/DX2                !
 ! A15   A(4,5,15)             120.0145         estimate D2E/DX2                !
 ! A16   A(6,5,15)             120.1162         estimate D2E/DX2                !
 ! A17   A(5,6,7)              120.2766         estimate D2E/DX2                !
 ! A18   A(5,6,16)             119.9636         estimate D2E/DX2                !
 ! A19   A(7,6,16)             119.7595         estimate D2E/DX2                !
 ! A20   A(6,7,8)              119.9191         estimate D2E/DX2                !
 ! A21   A(6,7,17)             120.1356         estimate D2E/DX2                !
 ! A22   A(8,7,17)             119.9453         estimate D2E/DX2                !
 ! A23   A(3,8,7)              119.4026         estimate D2E/DX2                !
 ! A24   A(3,8,18)             120.1255         estimate D2E/DX2                !
 ! A25   A(7,8,18)             120.4706         estimate D2E/DX2                !
 ! A26   A(2,9,10)             115.0841         estimate D2E/DX2                !
 ! A27   A(2,9,11)             116.3373         estimate D2E/DX2                !
 ! A28   A(2,9,19)             113.3628         estimate D2E/DX2                !
 ! A29   A(10,9,19)            121.0405         estimate D2E/DX2                !
 ! A30   A(11,9,19)            120.9876         estimate D2E/DX2                !
 ! A31   A(9,10,20)            118.7264         estimate D2E/DX2                !
 ! A32   A(9,10,21)            116.1564         estimate D2E/DX2                !
 ! A33   A(11,10,20)           119.4496         estimate D2E/DX2                !
 ! A34   A(11,10,21)           117.0729         estimate D2E/DX2                !
 ! A35   A(20,10,21)           114.7081         estimate D2E/DX2                !
 ! A36   A(9,11,22)            118.6967         estimate D2E/DX2                !
 ! A37   A(9,11,23)            116.1523         estimate D2E/DX2                !
 ! A38   A(10,11,22)           119.5742         estimate D2E/DX2                !
 ! A39   A(10,11,23)           117.042          estimate D2E/DX2                !
 ! A40   A(22,11,23)           114.6696         estimate D2E/DX2                !
 ! A41   A(2,12,24)            114.8663         estimate D2E/DX2                !
 ! D1    D(13,1,2,3)           130.3123         estimate D2E/DX2                !
 ! D2    D(13,1,2,9)          -126.0613         estimate D2E/DX2                !
 ! D3    D(13,1,2,12)            2.1647         estimate D2E/DX2                !
 ! D4    D(1,2,3,4)              1.6905         estimate D2E/DX2                !
 ! D5    D(1,2,3,8)           -178.8131         estimate D2E/DX2                !
 ! D6    D(9,2,3,4)           -109.5513         estimate D2E/DX2                !
 ! D7    D(9,2,3,8)             69.9452         estimate D2E/DX2                !
 ! D8    D(12,2,3,4)           129.8352         estimate D2E/DX2                !
 ! D9    D(12,2,3,8)           -50.6683         estimate D2E/DX2                !
 ! D10   D(1,2,9,10)           -36.5615         estimate D2E/DX2                !
 ! D11   D(1,2,9,11)            31.0121         estimate D2E/DX2                !
 ! D12   D(1,2,9,19)           178.1136         estimate D2E/DX2                !
 ! D13   D(3,2,9,10)            74.2692         estimate D2E/DX2                !
 ! D14   D(3,2,9,11)           141.8428         estimate D2E/DX2                !
 ! D15   D(3,2,9,19)           -71.0556         estimate D2E/DX2                !
 ! D16   D(12,2,9,10)         -164.9275         estimate D2E/DX2                !
 ! D17   D(12,2,9,11)          -97.3539         estimate D2E/DX2                !
 ! D18   D(12,2,9,19)           49.7477         estimate D2E/DX2                !
 ! D19   D(1,2,12,24)         -179.9631         estimate D2E/DX2                !
 ! D20   D(3,2,12,24)           55.5623         estimate D2E/DX2                !
 ! D21   D(9,2,12,24)          -55.0086         estimate D2E/DX2                !
 ! D22   D(2,3,4,5)            179.2356         estimate D2E/DX2                !
 ! D23   D(2,3,4,14)            -1.0292         estimate D2E/DX2                !
 ! D24   D(8,3,4,5)             -0.2577         estimate D2E/DX2                !
 ! D25   D(8,3,4,14)           179.4775         estimate D2E/DX2                !
 ! D26   D(2,3,8,7)           -179.2527         estimate D2E/DX2                !
 ! D27   D(2,3,8,18)             1.1658         estimate D2E/DX2                !
 ! D28   D(4,3,8,7)              0.231          estimate D2E/DX2                !
 ! D29   D(4,3,8,18)          -179.3505         estimate D2E/DX2                !
 ! D30   D(3,4,5,6)              0.0652         estimate D2E/DX2                !
 ! D31   D(3,4,5,15)          -179.9974         estimate D2E/DX2                !
 ! D32   D(14,4,5,6)          -179.6589         estimate D2E/DX2                !
 ! D33   D(14,4,5,15)            0.2785         estimate D2E/DX2                !
 ! D34   D(4,5,6,7)              0.1505         estimate D2E/DX2                !
 ! D35   D(4,5,6,16)           179.9615         estimate D2E/DX2                !
 ! D36   D(15,5,6,7)          -179.7868         estimate D2E/DX2                !
 ! D37   D(15,5,6,16)            0.0242         estimate D2E/DX2                !
 ! D38   D(5,6,7,8)             -0.1772         estimate D2E/DX2                !
 ! D39   D(5,6,7,17)           179.7446         estimate D2E/DX2                !
 ! D40   D(16,6,7,8)          -179.9886         estimate D2E/DX2                !
 ! D41   D(16,6,7,17)           -0.0668         estimate D2E/DX2                !
 ! D42   D(6,7,8,3)             -0.0121         estimate D2E/DX2                !
 ! D43   D(6,7,8,18)           179.5679         estimate D2E/DX2                !
 ! D44   D(17,7,8,3)          -179.9341         estimate D2E/DX2                !
 ! D45   D(17,7,8,18)           -0.3541         estimate D2E/DX2                !
 ! D46   D(2,9,10,20)         -143.4736         estimate D2E/DX2                !
 ! D47   D(2,9,10,21)           -0.3231         estimate D2E/DX2                !
 ! D48   D(19,9,10,20)          -1.0318         estimate D2E/DX2                !
 ! D49   D(19,9,10,21)         142.1188         estimate D2E/DX2                !
 ! D50   D(2,9,11,22)          145.3893         estimate D2E/DX2                !
 ! D51   D(2,9,11,23)            2.365          estimate D2E/DX2                !
 ! D52   D(19,9,11,22)           0.9547         estimate D2E/DX2                !
 ! D53   D(19,9,11,23)        -142.0696         estimate D2E/DX2                !
 ! D54   D(20,10,11,22)         -0.0907         estimate D2E/DX2                !
 ! D55   D(20,10,11,23)        145.8529         estimate D2E/DX2                !
 ! D56   D(21,10,11,22)       -145.9515         estimate D2E/DX2                !
 ! D57   D(21,10,11,23)         -0.008          estimate D2E/DX2                !
 --------------------------------------------------------------------------------
 Trust Radius=3.00D-01 FncErr=1.00D-07 GrdErr=1.00D-06 EigMax=2.50D+02 EigMin=1.00D-04
 Number of steps in this run=    133 maximum allowed number of steps=    144.
 GradGradGradGradGradGradGradGradGradGradGradGradGradGradGradGradGradGrad

                          Input orientation:                          
 ---------------------------------------------------------------------
 Center     Atomic      Atomic             Coordinates (Angstroms)
 Number     Number       Type             X           Y           Z
 ---------------------------------------------------------------------
      1          7           0       -1.453162   -0.416872   -1.614600
      2         16           0       -1.004226   -0.726065   -0.191098
      3          6           0        0.749064   -0.248357   -0.058174
      4          6           0        1.364588    0.314533   -1.158599
      5          6           0        2.691816    0.699591   -1.074720
      6          6           0        3.390046    0.516556    0.108108
      7          6           0        2.766323   -0.053211    1.206632
      8          6           0        1.438679   -0.438346    1.124404
      9          6           0       -1.675746    0.577737    0.905072
     10          6           0       -1.706730    1.946682    0.313977
     11          6           0       -2.977269    1.180477    0.496104
     12          7           0       -1.308736   -2.154463    0.273076
     13          1           0       -1.924979   -1.188782   -2.052193
     14          1           0        0.786370    0.434240   -2.061672
     15          1           0        3.181338    1.140636   -1.930122
     16          1           0        4.425562    0.815790    0.175030
     17          1           0        3.313849   -0.198581    2.126087
     18          1           0        0.945516   -0.889854    1.973294
     19          1           0       -1.436230    0.426513    1.946611
     20          1           0       -1.500626    2.792757    0.952865
     21          1           0       -1.328762    2.038885   -0.692638
     22          1           0       -3.674416    1.479460    1.264540
     23          1           0       -3.434043    0.769353   -0.391498
     24          1           0       -1.015588   -2.365771    1.212513
 ---------------------------------------------------------------------
                    Distance matrix (angstroms):
                    1          2          3          4          5
     1  N    0.000000
     2  S    1.524304   0.000000
     3  C    2.701973   1.822059   0.000000
     4  C    2.946626   2.762278   1.380815   0.000000
     5  C    4.326523   4.058818   2.388777   1.384500   0.000000
     6  C    5.224526   4.576380   2.754547   2.397466   1.385680
     7  C    5.088777   4.077183   2.388965   2.773881   2.403504
     8  C    3.983132   2.789464   1.382083   2.405081   2.775139
     9  C    2.718002   1.830963   2.736782   3.683971   4.796876
    10  C    3.061061   2.809304   3.314757   3.776954   4.778171
    11  C    3.054422   2.828436   4.029187   4.726481   5.902310
    12  N    2.569709   1.532483   2.824448   3.910536   5.095742
    13  H    1.004960   2.127339   3.465692   3.725549   5.082932
    14  H    2.437164   2.837532   2.116916   1.078984   2.162223
    15  H    4.899385   4.901808   3.368894   2.139690   1.079752
    16  H    6.267506   5.656321   3.834505   3.376298   2.140387
    17  H    6.063397   4.928829   3.369213   3.853838   3.382130
    18  H    4.341699   2.917690   2.139386   3.381556   3.855683
    19  H    3.659755   2.466752   3.041401   4.183234   5.122868
    20  H    4.110455   3.733252   3.915568   4.336971   5.105781
    21  H    2.626068   2.828748   3.154581   3.231817   4.254966
    22  H    4.101157   3.756746   4.929716   5.711411   6.827096
    23  H    2.612853   2.860148   4.318011   4.880795   6.164236
    24  H    3.461538   2.158445   3.035141   4.297840   5.326605
                    6          7          8          9         10
     6  C    0.000000
     7  C    1.385792   0.000000
     8  C    2.398442   1.384821   0.000000
     9  C    5.128463   4.496778   3.283317   0.000000
    10  C    5.297619   4.980423   4.029733   1.491430   0.000000
    11  C    6.413582   5.917406   4.745097   1.491481   1.494827
    12  N    5.407412   4.678984   3.349344   2.828256   4.120614
    13  H    5.985363   5.823898   4.687016   3.453712   3.934149
    14  H    3.390258   3.852225   3.367193   3.858001   3.761215
    15  H    2.141826   3.381824   3.854889   5.652118   5.438649
    16  H    1.079960   2.138326   3.375742   6.149438   6.237246
    17  H    2.142304   1.079960   2.139421   5.195152   5.752574
    18  H    3.381218   2.145479   1.080595   3.188406   4.222994
    19  H    5.165379   4.294084   3.112734   1.079370   2.247126
    20  H    5.460162   5.135249   4.371380   2.222446   1.080046
    21  H    5.022532   4.975320   4.134857   2.192722   1.079183
    22  H    7.222960   6.620843   5.462725   2.221938   2.234649
    23  H    6.847021   6.455631   5.244036   2.193039   2.206220
    24  H    5.379324   4.432925   3.121884   3.032254   4.458956
                   11         12         13         14         15
    11  C    0.000000
    12  N    3.735716   0.000000
    13  H    3.635178   2.592137   0.000000
    14  H    4.611297   4.067173   3.160016   0.000000
    15  H    6.619410   5.989367   5.613872   2.500434   0.000000
    16  H    7.418760   6.458652   7.021980   4.288605   2.466837
    17  H    6.643555   5.350459   6.773762   4.932133   4.273627
    18  H    4.675105   3.093805   4.953146   4.249647   4.935428
    19  H    2.246605   3.078703   4.340333   4.583267   6.071323
    20  H    2.233507   4.997391   5.006306   4.458742   5.741245
    21  H    2.206252   4.303159   3.552703   2.987126   4.762270
    22  H    1.079768   4.448015   4.602257   5.661695   7.571131
    23  H    1.079584   3.675226   2.978167   4.551227   6.802094
    24  H    4.115497   1.006542   3.587562   4.669839   6.307553
                   16         17         18         19         20
    16  H    0.000000
    17  H    2.464036   0.000000
    18  H    4.272434   2.471883   0.000000
    19  H    6.136012   4.794394   2.721443   0.000000
    20  H    6.295485   5.788240   4.537236   2.567253   0.000000
    21  H    5.946516   5.874121   4.566952   3.094661   1.818114
    22  H    8.199826   7.238366   5.240206   2.565812   2.558761
    23  H    7.880133   7.266992   5.246498   3.094438   3.104767
    24  H    6.387864   4.927003   2.569639   2.917652   5.187783
                   21         22         23         24
    21  H    0.000000
    22  H    3.105737   0.000000
    23  H    2.476814   1.817826   0.000000
    24  H    4.809228   4.675241   4.272093   0.000000
 Stoichiometry    C9H12N2S
 Framework group  C1[X(C9H12N2S)]
 Deg. of freedom    66
 Full point group                 C1      NOp   1
 Largest Abelian subgroup         C1      NOp   1
 Largest concise Abelian subgroup C1      NOp   1
                         Standard orientation:                         
 ---------------------------------------------------------------------
 Center     Atomic      Atomic             Coordinates (Angstroms)
 Number     Number       Type             X           Y           Z
 ---------------------------------------------------------------------
      1          7           0        1.441729   -0.557457    1.595006
      2         16           0        1.001628   -0.758229    0.149494
      3          6           0       -0.755349   -0.286889    0.045717
      4          6           0       -1.380594    0.182789    1.183750
      5          6           0       -2.710896    0.561643    1.123717
      6          6           0       -3.402440    0.465635   -0.073221
      7          6           0       -2.768942   -0.010976   -1.209857
      8          6           0       -1.438216   -0.389774   -1.151472
      9          6           0        1.665905    0.633147   -0.838047
     10          6           0        1.681969    1.951865   -0.141565
     11          6           0        2.960167    1.213366   -0.376803
     12          7           0        1.321045   -2.143221   -0.423457
     13          1           0        1.918683   -1.357096    1.973210
     14          1           0       -0.807301    0.236508    2.096251
     15          1           0       -3.208006    0.930124    2.008572
     16          1           0       -4.440338    0.760147   -0.121628
     17          1           0       -3.311242   -0.088729   -2.140545
     18          1           0       -0.937398   -0.769164   -2.030637
     19          1           0        1.432169    0.561796   -1.889386
     20          1           0        1.470891    2.843505   -0.713338
     21          1           0        1.298936    1.961729    0.867308
     22          1           0        3.657808    1.577622   -1.116069
     23          1           0        3.416905    0.738053    0.478165
     24          1           0        1.033794   -2.282926   -1.377970
 ---------------------------------------------------------------------
 Rotational constants (GHZ):           1.5154460           0.5913017           0.5616090
 Standard basis: def2SVP (5D, 7F)
 There are   244 symmetry adapted cartesian basis functions of A   symmetry.
 There are   232 symmetry adapted basis functions of A   symmetry.
   232 basis functions,   396 primitive gaussians,   244 cartesian basis functions
    48 alpha electrons       48 beta electrons
       nuclear repulsion energy       816.3136173186 Hartrees.
 NAtoms=   24 NActive=   24 NUniq=   24 SFac= 1.00D+00 NAtFMM=   60 NAOKFM=F Big=F
 Integral buffers will be    131072 words long.
 Raffenetti 2 integral format.
 Two-electron integral symmetry is turned on.
 Nuclear repulsion after empirical dispersion term =      816.2862685543 Hartrees.
 One-electron integrals computed using PRISM.
   1 Symmetry operations used in ECPInt.
 ECPInt:  NShTT=    6105 NPrTT=   22357 LenC2=    5948 LenP2D=   16467.
 LDataN:  DoStor=T MaxTD1= 4 Len=   56
 NBasis=   232 RedAO= T EigKep=  2.66D-04  NBF=   232
 NBsUse=   232 1.00D-06 EigRej= -1.00D+00 NBFU=   232
 ExpMin= 1.22D-01 ExpMax= 9.18D+03 ExpMxC= 1.38D+03 IAcc=3 IRadAn=         5 AccDes= 0.00D+00
 Harris functional with IExCor= 1009 and IRadAn=       5 diagonalized for initial guess.
 HarFok:  IExCor= 1009 AccDes= 0.00D+00 IRadAn=         5 IDoV= 1 UseB2=F ITyADJ=14
 ICtDFT=  3500011 ScaDFX=  1.000000  1.000000  1.000000  1.000000
 FoFCou: FMM=F IPFlag=           0 FMFlag=      100000 FMFlg1=           0
         NFxFlg=           0 DoJE=T BraDBF=F KetDBF=T FulRan=T
         wScrn=  0.000000 ICntrl=       500 IOpCl=  0 I1Cent=   200000004 NGrid=           0
         NMat0=    1 NMatS0=      1 NMatT0=    0 NMatD0=    1 NMtDS0=    0 NMtDT0=    0
 Petite list used in FoFCou.
 Requested convergence on RMS density matrix=1.00D-08 within 128 cycles.
 Requested convergence on MAX density matrix=1.00D-06.
 Requested convergence on             energy=1.00D-06.
 No special actions if energy rises.
 Integral accuracy reduced to 1.0D-05 until final iterations.
 Initial convergence to 1.0D-05 achieved.  Increase integral accuracy.
 SCF Done:  E(RPBE1PBE) =  -856.592098202     A.U. after   14 cycles
            NFock= 14  Conv=0.95D-08     -V/T= 2.0063

 **********************************************************************

            Population analysis using the SCF Density.

 **********************************************************************

 Orbital symmetries:
       Occupied  (A) (A) (A) (A) (A) (A) (A) (A) (A) (A) (A) (A)
                 (A) (A) (A) (A) (A) (A) (A) (A) (A) (A) (A) (A)
                 (A) (A) (A) (A) (A) (A) (A) (A) (A) (A) (A) (A)
                 (A) (A) (A) (A) (A) (A) (A) (A) (A) (A) (A) (A)
       Virtual   (A) (A) (A) (A) (A) (A) (A) (A) (A) (A) (A) (A)
                 (A) (A) (A) (A) (A) (A) (A) (A) (A) (A) (A) (A)
                 (A) (A) (A) (A) (A) (A) (A) (A) (A) (A) (A) (A)
                 (A) (A) (A) (A) (A) (A) (A) (A) (A) (A) (A) (A)
                 (A) (A) (A) (A) (A) (A) (A) (A) (A) (A) (A) (A)
                 (A) (A) (A) (A) (A) (A) (A) (A) (A) (A) (A) (A)
                 (A) (A) (A) (A) (A) (A) (A) (A) (A) (A) (A) (A)
                 (A) (A) (A) (A) (A) (A) (A) (A) (A) (A) (A) (A)
                 (A) (A) (A) (A) (A) (A) (A) (A) (A) (A) (A) (A)
                 (A) (A) (A) (A) (A) (A) (A) (A) (A) (A) (A) (A)
                 (A) (A) (A) (A) (A) (A) (A) (A) (A) (A) (A) (A)
                 (A) (A) (A) (A) (A) (A) (A) (A) (A) (A) (A) (A)
                 (A) (A) (A) (A) (A) (A) (A) (A) (A) (A) (A) (A)
                 (A) (A) (A) (A) (A) (A) (A) (A) (A) (A) (A) (A)
                 (A) (A) (A) (A) (A) (A) (A) (A) (A) (A) (A) (A)
                 (A) (A) (A) (A)
 The electronic state is 1-A.
 Alpha  occ. eigenvalues --  -89.18004 -14.34375 -14.33971 -10.26647 -10.26282
 Alpha  occ. eigenvalues --  -10.25862 -10.25258 -10.25088 -10.24927 -10.24791
 Alpha  occ. eigenvalues --  -10.24619 -10.24545  -8.15457  -6.09580  -6.09494
 Alpha  occ. eigenvalues --   -6.09463  -1.00826  -0.89714  -0.89525  -0.84889
 Alpha  occ. eigenvalues --   -0.78957  -0.78127  -0.69879  -0.64181  -0.63137
 Alpha  occ. eigenvalues --   -0.62315  -0.59356  -0.55915  -0.54065  -0.51153
 Alpha  occ. eigenvalues --   -0.50919  -0.49233  -0.47877  -0.46447  -0.45215
 Alpha  occ. eigenvalues --   -0.42405  -0.40644  -0.39058  -0.38297  -0.37334
 Alpha  occ. eigenvalues --   -0.34577  -0.33424  -0.30607  -0.28985  -0.28404
 Alpha  occ. eigenvalues --   -0.27411  -0.24972  -0.24348
 Alpha virt. eigenvalues --   -0.02857  -0.01777   0.05021   0.05930   0.07403
 Alpha virt. eigenvalues --    0.08776   0.09336   0.10250   0.11434   0.12043
 Alpha virt. eigenvalues --    0.12628   0.13163   0.14278   0.14934   0.16042
 Alpha virt. eigenvalues --    0.17446   0.17740   0.19129   0.20105   0.22747
 Alpha virt. eigenvalues --    0.25100   0.25518   0.28808   0.29151   0.30745
 Alpha virt. eigenvalues --    0.31649   0.34720   0.39020   0.40536   0.41204
 Alpha virt. eigenvalues --    0.43411   0.43650   0.45382   0.46646   0.47591
 Alpha virt. eigenvalues --    0.48699   0.49164   0.49683   0.51639   0.52128
 Alpha virt. eigenvalues --    0.54027   0.54642   0.56069   0.57600   0.58904
 Alpha virt. eigenvalues --    0.59753   0.60918   0.61942   0.63895   0.64762
 Alpha virt. eigenvalues --    0.65424   0.66292   0.67220   0.67576   0.68067
 Alpha virt. eigenvalues --    0.68766   0.69356   0.69737   0.70360   0.71836
 Alpha virt. eigenvalues --    0.72360   0.73462   0.73609   0.74393   0.75275
 Alpha virt. eigenvalues --    0.76350   0.77220   0.79880   0.80437   0.82017
 Alpha virt. eigenvalues --    0.83362   0.84643   0.85845   0.87816   0.88360
 Alpha virt. eigenvalues --    0.91595   0.94085   0.96541   0.98444   0.99763
 Alpha virt. eigenvalues --    1.00651   1.04562   1.07688   1.10634   1.11622
 Alpha virt. eigenvalues --    1.14623   1.16750   1.19068   1.19937   1.22378
 Alpha virt. eigenvalues --    1.24007   1.24607   1.27365   1.28471   1.30750
 Alpha virt. eigenvalues --    1.31465   1.33722   1.39974   1.45159   1.46940
 Alpha virt. eigenvalues --    1.48632   1.50346   1.53631   1.54449   1.56271
 Alpha virt. eigenvalues --    1.61916   1.63310   1.67310   1.68249   1.70372
 Alpha virt. eigenvalues --    1.70900   1.71301   1.71994   1.74152   1.75106
 Alpha virt. eigenvalues --    1.75733   1.77005   1.77077   1.77295   1.78625
 Alpha virt. eigenvalues --    1.80911   1.82544   1.84803   1.86150   1.87847
 Alpha virt. eigenvalues --    1.91947   1.95445   1.96904   1.98393   1.98786
 Alpha virt. eigenvalues --    1.99401   2.00586   2.06562   2.08446   2.10838
 Alpha virt. eigenvalues --    2.12285   2.14710   2.16026   2.16750   2.17949
 Alpha virt. eigenvalues --    2.19450   2.21182   2.23813   2.27595   2.30235
 Alpha virt. eigenvalues --    2.30813   2.30843   2.31320   2.33197   2.36309
 Alpha virt. eigenvalues --    2.37928   2.38338   2.40244   2.41674   2.50420
 Alpha virt. eigenvalues --    2.54101   2.55643   2.58221   2.59135   2.62527
 Alpha virt. eigenvalues --    2.64615   2.65923   2.66025   2.66516   2.68235
 Alpha virt. eigenvalues --    2.75620   2.76165   2.77328   2.79743   2.84480
 Alpha virt. eigenvalues --    2.86272   2.88413   2.89000   2.91982   2.96139
 Alpha virt. eigenvalues --    3.00172   3.06512   3.07267   3.14687   3.15863
 Alpha virt. eigenvalues --    3.24373   3.27216   3.34176   3.65962
          Condensed to atoms (all electrons):
               1          2          3          4          5          6
     1  N    6.839063   0.410605  -0.094839  -0.001388   0.002109  -0.000060
     2  S    0.410605  14.627905   0.111532  -0.032303   0.004656   0.000283
     3  C   -0.094839   0.111532   5.885974   0.302826   0.107641  -0.184091
     4  C   -0.001388  -0.032303   0.302826   5.080981   0.217819   0.105002
     5  C    0.002109   0.004656   0.107641   0.217819   5.138758   0.255572
     6  C   -0.000060   0.000283  -0.184091   0.105002   0.255572   5.118036
     7  C   -0.000021   0.001118   0.103366  -0.136087   0.087461   0.278707
     8  C    0.007298  -0.037205   0.141931   0.055435  -0.145743   0.090249
     9  C   -0.099113   0.160613  -0.150429  -0.001142  -0.000552  -0.000124
    10  C    0.004558  -0.023632  -0.002139   0.000966   0.000014   0.000070
    11  C    0.002755  -0.013153   0.009752   0.000116  -0.000015  -0.000001
    12  N   -0.066928   0.356112  -0.035888   0.001128  -0.000069  -0.000016
    13  H    0.338898  -0.016434   0.005713   0.000217  -0.000056   0.000007
    14  H    0.034505  -0.014756  -0.057855   0.438697  -0.062684   0.012397
    15  H   -0.000003  -0.000150   0.017057  -0.072683   0.457108  -0.074276
    16  H    0.000000   0.000021  -0.001499   0.013998  -0.067907   0.449398
    17  H    0.000001  -0.000142   0.016931  -0.001905   0.014310  -0.070851
    18  H    0.000371  -0.002615  -0.093145   0.012490  -0.001437   0.013779
    19  H    0.003548  -0.011353   0.000280  -0.000371  -0.000012   0.000017
    20  H    0.000295   0.000773  -0.000204   0.000042   0.000003  -0.000008
    21  H    0.018005  -0.006794   0.002515   0.001745   0.000265  -0.000027
    22  H    0.000375   0.001889  -0.000118  -0.000002  -0.000000   0.000000
    23  H    0.027659  -0.006751   0.001626   0.000029  -0.000002   0.000001
    24  H    0.004624  -0.005531  -0.010150  -0.000701  -0.000039   0.000010
               7          8          9         10         11         12
     1  N   -0.000021   0.007298  -0.099113   0.004558   0.002755  -0.066928
     2  S    0.001118  -0.037205   0.160613  -0.023632  -0.013153   0.356112
     3  C    0.103366   0.141931  -0.150429  -0.002139   0.009752  -0.035888
     4  C   -0.136087   0.055435  -0.001142   0.000966   0.000116   0.001128
     5  C    0.087461  -0.145743  -0.000552   0.000014  -0.000015  -0.000069
     6  C    0.278707   0.090249  -0.000124   0.000070  -0.000001  -0.000016
     7  C    5.022645   0.311705  -0.000616  -0.000147   0.000017   0.000202
     8  C    0.311705   5.170740  -0.005104   0.001746   0.000083  -0.000630
     9  C   -0.000616  -0.005104   5.760314   0.104119   0.174944  -0.047170
    10  C   -0.000147   0.001746   0.104119   4.941949   0.285795   0.005217
    11  C    0.000017   0.000083   0.174944   0.285795   4.839877  -0.002841
    12  N    0.000202  -0.000630  -0.047170   0.005217  -0.002841   6.871183
    13  H   -0.000010  -0.000460   0.005355  -0.001033   0.000232   0.006795
    14  H   -0.001944   0.015253   0.001355  -0.000341  -0.000159   0.000579
    15  H    0.014431  -0.001868   0.000015  -0.000009  -0.000000   0.000001
    16  H   -0.068859   0.014967  -0.000000  -0.000000  -0.000000  -0.000000
    17  H    0.453541  -0.071868   0.000045  -0.000003  -0.000000   0.000002
    18  H   -0.046766   0.442200   0.000023   0.000193  -0.000040   0.002205
    19  H    0.000395   0.004522   0.350948  -0.010311   0.000747   0.000173
    20  H   -0.000020   0.000083   0.006629   0.368338  -0.012944  -0.000062
    21  H    0.000013  -0.000248  -0.020561   0.391325  -0.008928   0.000409
    22  H    0.000000  -0.000037  -0.004912  -0.015184   0.386652  -0.000050
    23  H   -0.000001  -0.000011  -0.019535  -0.007597   0.373066   0.001433
    24  H    0.000505   0.006310  -0.001570  -0.000149   0.000035   0.319199
              13         14         15         16         17         18
     1  N    0.338898   0.034505  -0.000003   0.000000   0.000001   0.000371
     2  S   -0.016434  -0.014756  -0.000150   0.000021  -0.000142  -0.002615
     3  C    0.005713  -0.057855   0.017057  -0.001499   0.016931  -0.093145
     4  C    0.000217   0.438697  -0.072683   0.013998  -0.001905   0.012490
     5  C   -0.000056  -0.062684   0.457108  -0.067907   0.014310  -0.001437
     6  C    0.000007   0.012397  -0.074276   0.449398  -0.070851   0.013779
     7  C   -0.000010  -0.001944   0.014431  -0.068859   0.453541  -0.046766
     8  C   -0.000460   0.015253  -0.001868   0.014967  -0.071868   0.442200
     9  C    0.005355   0.001355   0.000015  -0.000000   0.000045   0.000023
    10  C   -0.001033  -0.000341  -0.000009  -0.000000  -0.000003   0.000193
    11  C    0.000232  -0.000159  -0.000000  -0.000000  -0.000000  -0.000040
    12  N    0.006795   0.000579   0.000001  -0.000000   0.000002   0.002205
    13  H    0.522816  -0.000752  -0.000002   0.000000  -0.000000  -0.000041
    14  H   -0.000752   0.607257  -0.010597  -0.000206   0.000029  -0.000217
    15  H   -0.000002  -0.010597   0.660628  -0.012215  -0.000265   0.000044
    16  H    0.000000  -0.000206  -0.012215   0.662588  -0.012199  -0.000282
    17  H   -0.000000   0.000029  -0.000265  -0.012199   0.663905  -0.012616
    18  H   -0.000041  -0.000217   0.000044  -0.000282  -0.012616   0.677000
    19  H   -0.000208  -0.000073   0.000000  -0.000000  -0.000019   0.001625
    20  H    0.000006   0.000066   0.000001   0.000000   0.000001   0.000009
    21  H   -0.000508   0.000705  -0.000008  -0.000000  -0.000000  -0.000051
    22  H    0.000001   0.000001   0.000000  -0.000000   0.000000   0.000002
    23  H   -0.000366  -0.000028  -0.000000   0.000000  -0.000000  -0.000005
    24  H   -0.000239  -0.000101   0.000000  -0.000000  -0.000005   0.003604
              19         20         21         22         23         24
     1  N    0.003548   0.000295   0.018005   0.000375   0.027659   0.004624
     2  S   -0.011353   0.000773  -0.006794   0.001889  -0.006751  -0.005531
     3  C    0.000280  -0.000204   0.002515  -0.000118   0.001626  -0.010150
     4  C   -0.000371   0.000042   0.001745  -0.000002   0.000029  -0.000701
     5  C   -0.000012   0.000003   0.000265  -0.000000  -0.000002  -0.000039
     6  C    0.000017  -0.000008  -0.000027   0.000000   0.000001   0.000010
     7  C    0.000395  -0.000020   0.000013   0.000000  -0.000001   0.000505
     8  C    0.004522   0.000083  -0.000248  -0.000037  -0.000011   0.006310
     9  C    0.350948   0.006629  -0.020561  -0.004912  -0.019535  -0.001570
    10  C   -0.010311   0.368338   0.391325  -0.015184  -0.007597  -0.000149
    11  C    0.000747  -0.012944  -0.008928   0.386652   0.373066   0.000035
    12  N    0.000173  -0.000062   0.000409  -0.000050   0.001433   0.319199
    13  H   -0.000208   0.000006  -0.000508   0.000001  -0.000366  -0.000239
    14  H   -0.000073   0.000066   0.000705   0.000001  -0.000028  -0.000101
    15  H    0.000000   0.000001  -0.000008   0.000000  -0.000000   0.000000
    16  H   -0.000000   0.000000  -0.000000  -0.000000   0.000000  -0.000000
    17  H   -0.000019   0.000001  -0.000000   0.000000  -0.000000  -0.000005
    18  H    0.001625   0.000009  -0.000051   0.000002  -0.000005   0.003604
    19  H    0.598298  -0.008206   0.003297  -0.007639   0.003918   0.001261
    20  H   -0.008206   0.609743  -0.023272  -0.008780   0.002755  -0.000018
    21  H    0.003297  -0.023272   0.561674   0.003039  -0.008307  -0.000053
    22  H   -0.007639  -0.008780   0.003039   0.600790  -0.023520  -0.000010
    23  H    0.003918   0.002755  -0.008307  -0.023520   0.580436  -0.000149
    24  H    0.001261  -0.000018  -0.000053  -0.000010  -0.000149   0.571220
 Mulliken charges:
               1
     1  N   -0.432317
     2  S    0.495312
     3  C   -0.076786
     4  C    0.015088
     5  C   -0.007201
     6  C    0.005925
     7  C   -0.019634
     8  C    0.000652
     9  C   -0.213533
    10  C   -0.043744
    11  C   -0.035987
    12  N   -0.410985
    13  H    0.140069
    14  H    0.038870
    15  H    0.022790
    16  H    0.022197
    17  H    0.021111
    18  H    0.003671
    19  H    0.069164
    20  H    0.064771
    21  H    0.085765
    22  H    0.067504
    23  H    0.075351
    24  H    0.111948
 Sum of Mulliken charges =  -0.00000
 Mulliken charges with hydrogens summed into heavy atoms:
               1
     1  N   -0.292249
     2  S    0.495312
     3  C   -0.076786
     4  C    0.053958
     5  C    0.015589
     6  C    0.028122
     7  C    0.001476
     8  C    0.004323
     9  C   -0.144369
    10  C    0.106793
    11  C    0.106868
    12  N   -0.299037
 Electronic spatial extent (au):  <R**2>=           2269.1578
 Charge=             -0.0000 electrons
 Dipole moment (field-independent basis, Debye):
    X=             -1.8411    Y=              2.1486    Z=             -2.4337  Tot=              3.7322
 Quadrupole moment (field-independent basis, Debye-Ang):
   XX=            -72.8361   YY=            -84.2620   ZZ=            -72.9461
   XY=              1.8766   XZ=             -2.0246   YZ=              0.6396
 Traceless Quadrupole moment (field-independent basis, Debye-Ang):
   XX=              3.8453   YY=             -7.5806   ZZ=              3.7353
   XY=              1.8766   XZ=             -2.0246   YZ=              0.6396
 Octapole moment (field-independent basis, Debye-Ang**2):
  XXX=            -14.8720  YYY=             12.1007  ZZZ=             -8.3587  XYY=              0.7837
  XXY=             14.2850  XXZ=             -2.0237  XZZ=             -2.1980  YZZ=             -8.3021
  YYZ=             -1.4691  XYZ=            -10.8397
 Hexadecapole moment (field-independent basis, Debye-Ang**3):
 XXXX=          -1861.1918 YYYY=           -633.8064 ZZZZ=           -460.3350 XXXY=            -29.2573
 XXXZ=             11.8465 YYYX=             19.8692 YYYZ=             -2.1977 ZZZX=             -3.1738
 ZZZY=              5.3713 XXYY=           -460.7768 XXZZ=           -380.8130 YYZZ=           -158.2414
 XXYZ=            -12.0469 YYXZ=             -2.6163 ZZXY=            -15.9898
 N-N= 8.162862685543D+02 E-N=-3.640588783208D+03  KE= 8.512687552674D+02
   1 Symmetry operations used in ECPInt.
 ECPInt:  NShTT=    6105 NPrTT=   22357 LenC2=    5948 LenP2D=   16467.
 LDataN:  DoStor=T MaxTD1= 5 Len=  102
 Calling FoFJK, ICntrl=      2127 FMM=F ISym2X=0 I1Cent= 0 IOpClX= 0 NMat=1 NMatS=1 NMatT=0.
 ***** Axes restored to original set *****
 -------------------------------------------------------------------
 Center     Atomic                   Forces (Hartrees/Bohr)
 Number     Number              X              Y              Z
 -------------------------------------------------------------------
      1        7           0.006080604    0.022373916   -0.005340688
      2       16          -0.000921690   -0.001559388    0.007177427
      3        6          -0.010697991   -0.001283880   -0.003053346
      4        6          -0.000592854   -0.000043535   -0.003250617
      5        6           0.000602824   -0.000775267    0.001713671
      6        6           0.001126502    0.000558740   -0.000612263
      7        6          -0.001229703   -0.000389259    0.000629107
      8        6          -0.001248451   -0.001715822    0.002238585
      9        6           0.000162098   -0.002986026   -0.014788920
     10        6          -0.005241311   -0.003570737    0.003341601
     11        6           0.007171679   -0.000317271   -0.000600493
     12        7          -0.003059531   -0.003448778   -0.005464352
     13        1          -0.004243150   -0.010888442    0.000443955
     14        1          -0.005626741    0.001139262   -0.008489616
     15        1           0.003935411    0.003711698   -0.007408505
     16        1           0.008755053    0.002580128    0.000583041
     17        1           0.004452724   -0.001433165    0.007694323
     18        1          -0.003313227   -0.004057112    0.008246321
     19        1           0.003245243   -0.002235982    0.009745565
     20        1           0.002054563    0.006099729    0.007201113
     21        1           0.002314038    0.000395951   -0.010539012
     22        1          -0.004469976    0.001815171    0.008569917
     23        1          -0.003051580   -0.003776149   -0.009756911
     24        1           0.003795464   -0.000193785    0.011720098
 -------------------------------------------------------------------
 Cartesian Forces:  Max     0.022373916 RMS     0.005810051

 GradGradGradGradGradGradGradGradGradGradGradGradGradGradGradGradGradGrad
 Berny optimization.
 FormGI is forming the generalized inverse of G from B-inverse, IUseBI=4.
 Internal  Forces:  Max     0.012084119 RMS     0.004399172
 Search for a local minimum.
 Step number   1 out of a maximum of  133
 All quantities printed in internal units (Hartrees-Bohrs-Radians)
 Mixed Optimization -- RFO/linear search
 Second derivative matrix not updated -- first step.
 ITU=  0
     Eigenvalues ---    0.00230   0.00230   0.01504   0.01949   0.02277
     Eigenvalues ---    0.02281   0.02283   0.02287   0.02297   0.02308
     Eigenvalues ---    0.02316   0.02330   0.02345   0.03201   0.03202
     Eigenvalues ---    0.03512   0.03620   0.03732   0.04026   0.06762
     Eigenvalues ---    0.07793   0.09479   0.10331   0.10627   0.11101
     Eigenvalues ---    0.15946   0.16000   0.16000   0.16000   0.16000
     Eigenvalues ---    0.16000   0.16000   0.16000   0.16000   0.16043
     Eigenvalues ---    0.17223   0.19535   0.22000   0.22000   0.23495
     Eigenvalues ---    0.23822   0.24453   0.24999   0.26170   0.29265
     Eigenvalues ---    0.33171   0.35923   0.35989   0.35999   0.35999
     Eigenvalues ---    0.36022   0.36024   0.36045   0.36071   0.36093
     Eigenvalues ---    0.36117   0.43626   0.43815   0.46556   0.46827
     Eigenvalues ---    0.48105   0.48261   0.48457   0.48771   0.66852
     Eigenvalues ---    0.69160
 RFO step:  Lambda=-7.79657316D-03 EMin= 2.30000000D-03
 Linear search not attempted -- first point.
 Iteration  1 RMS(Cart)=  0.05980852 RMS(Int)=  0.00108642
 Iteration  2 RMS(Cart)=  0.00162909 RMS(Int)=  0.00009025
 Iteration  3 RMS(Cart)=  0.00000128 RMS(Int)=  0.00009025
 Iteration  4 RMS(Cart)=  0.00000000 RMS(Int)=  0.00009025
 Variable       Old X    -DE/DX   Delta X   Delta X   Delta X     New X
                                 (Linear)    (Quad)   (Total)
    R1        2.88052   0.00636   0.00000   0.00910   0.00910   2.88961
    R2        1.89910   0.01016   0.00000   0.02135   0.02135   1.92044
    R3        3.44319  -0.00426   0.00000  -0.01690  -0.01690   3.42629
    R4        3.46002  -0.00815   0.00000  -0.03312  -0.03312   3.42690
    R5        2.89597   0.00514   0.00000   0.00761   0.00761   2.90358
    R6        2.60936   0.01019   0.00000   0.02070   0.02072   2.63008
    R7        2.61176   0.01123   0.00000   0.02281   0.02283   2.63459
    R8        2.61633   0.01003   0.00000   0.02051   0.02051   2.63683
    R9        2.03898   0.01025   0.00000   0.02777   0.02777   2.06676
   R10        2.61856   0.00972   0.00000   0.01977   0.01975   2.63831
   R11        2.04044   0.00917   0.00000   0.02491   0.02491   2.06535
   R12        2.61877   0.01030   0.00000   0.02089   0.02087   2.63964
   R13        2.04083   0.00915   0.00000   0.02487   0.02487   2.06569
   R14        2.61693   0.00823   0.00000   0.01671   0.01671   2.63364
   R15        2.04083   0.00900   0.00000   0.02447   0.02447   2.06530
   R16        2.04203   0.00969   0.00000   0.02639   0.02639   2.06842
   R17        2.81839   0.00255   0.00000   0.00661   0.00649   2.82489
   R18        2.81849  -0.00009   0.00000  -0.00209  -0.00219   2.81630
   R19        2.03971   0.01044   0.00000   0.02832   0.02832   2.06804
   R20        2.82481   0.00012   0.00000   0.00306   0.00329   2.82810
   R21        2.04099   0.00943   0.00000   0.02565   0.02565   2.06664
   R22        2.03936   0.01067   0.00000   0.02895   0.02895   2.06831
   R23        2.04047   0.00949   0.00000   0.02578   0.02578   2.06625
   R24        2.04012   0.01075   0.00000   0.02920   0.02920   2.06931
   R25        1.90209   0.01208   0.00000   0.02553   0.02553   1.92762
    A1        1.97046  -0.01098   0.00000  -0.06545  -0.06545   1.90501
    A2        1.87376  -0.00263   0.00000  -0.01251  -0.01244   1.86132
    A3        1.88245  -0.00349   0.00000  -0.01814  -0.01800   1.86445
    A4        1.99699   0.00728   0.00000   0.05219   0.05225   2.04924
    A5        1.69365   0.00511   0.00000   0.01218   0.01198   1.70563
    A6        1.99707  -0.00311   0.00000  -0.01857  -0.01864   1.97843
    A7        1.99271  -0.00384   0.00000  -0.02287  -0.02284   1.96987
    A8        2.06881   0.00113   0.00000   0.00405   0.00389   2.07270
    A9        2.10194  -0.00306   0.00000  -0.01219  -0.01234   2.08959
   A10        2.11240   0.00194   0.00000   0.00838   0.00830   2.12070
   A11        2.08567  -0.00226   0.00000  -0.00916  -0.00912   2.07655
   A12        2.06389   0.00098   0.00000   0.00369   0.00367   2.06756
   A13        2.13362   0.00128   0.00000   0.00546   0.00544   2.13905
   A14        2.09211   0.00101   0.00000   0.00450   0.00450   2.09662
   A15        2.09465  -0.00078   0.00000  -0.00386  -0.00387   2.09078
   A16        2.09642  -0.00024   0.00000  -0.00064  -0.00064   2.09579
   A17        2.09922   0.00011   0.00000  -0.00009  -0.00011   2.09911
   A18        2.09376  -0.00005   0.00000   0.00005   0.00006   2.09382
   A19        2.09020  -0.00005   0.00000   0.00003   0.00004   2.09024
   A20        2.09298   0.00027   0.00000   0.00073   0.00072   2.09371
   A21        2.09676   0.00006   0.00000   0.00080   0.00080   2.09756
   A22        2.09344  -0.00033   0.00000  -0.00154  -0.00154   2.09190
   A23        2.08397  -0.00107   0.00000  -0.00441  -0.00438   2.07959
   A24        2.09659   0.00183   0.00000   0.00994   0.00992   2.10651
   A25        2.10261  -0.00077   0.00000  -0.00554  -0.00556   2.09705
   A26        2.00860   0.00261   0.00000   0.02774   0.02784   2.03644
   A27        2.03047  -0.00037   0.00000  -0.00896  -0.00903   2.02144
   A28        1.97855  -0.00197   0.00000  -0.01372  -0.01407   1.96448
   A29        2.11256  -0.00015   0.00000   0.00182   0.00174   2.11429
   A30        2.11163   0.00146   0.00000   0.00271   0.00253   2.11416
   A31        2.07217  -0.00177   0.00000  -0.01739  -0.01731   2.05486
   A32        2.02731   0.00108   0.00000   0.00994   0.00996   2.03727
   A33        2.08479   0.00070   0.00000   0.00547   0.00543   2.09022
   A34        2.04331  -0.00140   0.00000  -0.01284  -0.01274   2.03056
   A35        2.00203   0.00105   0.00000   0.01003   0.01003   2.01206
   A36        2.07165  -0.00295   0.00000  -0.02072  -0.02070   2.05094
   A37        2.02724   0.00097   0.00000   0.00288   0.00291   2.03015
   A38        2.08696  -0.00201   0.00000   0.00095   0.00098   2.08795
   A39        2.04277   0.00056   0.00000  -0.00612  -0.00612   2.03664
   A40        2.00136   0.00170   0.00000   0.01277   0.01272   2.01408
   A41        2.00479  -0.00441   0.00000  -0.02630  -0.02630   1.97849
    D1        2.27438  -0.00125   0.00000   0.00362   0.00364   2.27801
    D2       -2.20018   0.00203   0.00000   0.00498   0.00508  -2.19510
    D3        0.03778  -0.00043   0.00000  -0.00069  -0.00081   0.03697
    D4        0.02950  -0.00300   0.00000  -0.04644  -0.04635  -0.01685
    D5       -3.12088  -0.00232   0.00000  -0.01673  -0.01676  -3.13764
    D6       -1.91203  -0.00053   0.00000  -0.02838  -0.02832  -1.94035
    D7        1.22077   0.00016   0.00000   0.00133   0.00127   1.22204
    D8        2.26605   0.00218   0.00000  -0.00122  -0.00118   2.26487
    D9       -0.88433   0.00287   0.00000   0.02850   0.02841  -0.85592
   D10       -0.63812   0.00247   0.00000   0.06860   0.06877  -0.56935
   D11        0.54126   0.00273   0.00000   0.07577   0.07558   0.61684
   D12        3.10867   0.00183   0.00000   0.04532   0.04549  -3.12902
   D13        1.29624   0.00074   0.00000   0.05524   0.05535   1.35159
   D14        2.47562   0.00100   0.00000   0.06240   0.06216   2.53778
   D15       -1.24015   0.00010   0.00000   0.03196   0.03207  -1.20809
   D16       -2.87853  -0.00143   0.00000   0.03134   0.03142  -2.84711
   D17       -1.69915  -0.00117   0.00000   0.03851   0.03823  -1.66092
   D18        0.86826  -0.00207   0.00000   0.00807   0.00814   0.87640
   D19       -3.14095   0.00097   0.00000   0.01209   0.01219  -3.12876
   D20        0.96975   0.00104   0.00000   0.00056   0.00073   0.97048
   D21       -0.96008  -0.00095   0.00000   0.01203   0.01177  -0.94832
   D22        3.12825   0.00051   0.00000   0.02097   0.02115  -3.13378
   D23       -0.01796   0.00045   0.00000   0.01955   0.01971   0.00175
   D24       -0.00450  -0.00015   0.00000  -0.00883  -0.00888  -0.01338
   D25        3.13247  -0.00021   0.00000  -0.01024  -0.01032   3.12215
   D26       -3.12855  -0.00048   0.00000  -0.01949  -0.01941   3.13522
   D27        0.02035  -0.00037   0.00000  -0.01685  -0.01678   0.00357
   D28        0.00403   0.00022   0.00000   0.01095   0.01099   0.01502
   D29       -3.13026   0.00032   0.00000   0.01359   0.01362  -3.11663
   D30        0.00114  -0.00001   0.00000   0.00126   0.00128   0.00242
   D31       -3.14155   0.00000   0.00000   0.00118   0.00118  -3.14036
   D32       -3.13564   0.00005   0.00000   0.00274   0.00279  -3.13285
   D33        0.00486   0.00007   0.00000   0.00267   0.00269   0.00755
   D34        0.00263   0.00010   0.00000   0.00403   0.00402   0.00665
   D35        3.14092   0.00002   0.00000   0.00036   0.00036   3.14128
   D36       -3.13787   0.00009   0.00000   0.00411   0.00412  -3.13375
   D37        0.00042   0.00001   0.00000   0.00044   0.00045   0.00087
   D38       -0.00309  -0.00003   0.00000  -0.00190  -0.00190  -0.00500
   D39        3.13714  -0.00019   0.00000  -0.00758  -0.00756   3.12958
   D40       -3.14139   0.00005   0.00000   0.00176   0.00175  -3.13964
   D41       -0.00117  -0.00011   0.00000  -0.00391  -0.00390  -0.00506
   D42       -0.00021  -0.00012   0.00000  -0.00549  -0.00545  -0.00566
   D43        3.13405  -0.00021   0.00000  -0.00807  -0.00800   3.12605
   D44       -3.14044   0.00004   0.00000   0.00018   0.00018  -3.14026
   D45       -0.00618  -0.00006   0.00000  -0.00241  -0.00237  -0.00855
   D46       -2.50409  -0.00040   0.00000  -0.01033  -0.01044  -2.51452
   D47       -0.00564   0.00058   0.00000  -0.00237  -0.00243  -0.00807
   D48       -0.01801  -0.00027   0.00000   0.01015   0.01026  -0.00775
   D49        2.48044   0.00071   0.00000   0.01810   0.01827   2.49871
   D50        2.53752  -0.00235   0.00000  -0.04855  -0.04854   2.48898
   D51        0.04128  -0.00258   0.00000  -0.04556  -0.04561  -0.00433
   D52        0.01666  -0.00013   0.00000  -0.00950  -0.00944   0.00722
   D53       -2.47958  -0.00036   0.00000  -0.00651  -0.00651  -2.48609
   D54       -0.00158   0.00036   0.00000  -0.00002  -0.00002  -0.00160
   D55        2.54561   0.00140   0.00000   0.01757   0.01763   2.56324
   D56       -2.54733  -0.00061   0.00000  -0.00791  -0.00797  -2.55530
   D57       -0.00014   0.00043   0.00000   0.00968   0.00968   0.00954
         Item               Value     Threshold  Converged?
 Maximum Force            0.012084     0.000450     NO 
 RMS     Force            0.004399     0.000300     NO 
 Maximum Displacement     0.227566     0.001800     NO 
 RMS     Displacement     0.059909     0.001200     NO 
 Predicted change in Energy=-4.129631D-03
 GradGradGradGradGradGradGradGradGradGradGradGradGradGradGradGradGradGrad

                          Input orientation:                          
 ---------------------------------------------------------------------
 Center     Atomic      Atomic             Coordinates (Angstroms)
 Number     Number       Type             X           Y           Z
 ---------------------------------------------------------------------
      1          7           0       -1.434230   -0.337948   -1.625899
      2         16           0       -0.995463   -0.687587   -0.203423
      3          6           0        0.752217   -0.223641   -0.070150
      4          6           0        1.389316    0.313389   -1.184937
      5          6           0        2.736769    0.663277   -1.090285
      6          6           0        3.428128    0.471380    0.107372
      7          6           0        2.778661   -0.078737    1.214942
      8          6           0        1.433494   -0.432697    1.128118
      9          6           0       -1.671988    0.595547    0.884896
     10          6           0       -1.788162    1.970526    0.309952
     11          6           0       -3.010536    1.129405    0.504977
     12          7           0       -1.287886   -2.110411    0.297489
     13          1           0       -1.909791   -1.137897   -2.034186
     14          1           0        0.811836    0.439012   -2.105193
     15          1           0        3.249945    1.087159   -1.957166
     16          1           0        4.483759    0.746137    0.178518
     17          1           0        3.324222   -0.238724    2.148335
     18          1           0        0.925312   -0.877461    1.989511
     19          1           0       -1.401097    0.441843    1.933996
     20          1           0       -1.600481    2.817920    0.975309
     21          1           0       -1.449185    2.102695   -0.722309
     22          1           0       -3.707295    1.367559    1.313281
     23          1           0       -3.464490    0.704923   -0.396599
     24          1           0       -0.980417   -2.272758    1.256453
 ---------------------------------------------------------------------
                    Distance matrix (angstroms):
                    1          2          3          4          5
     1  N    0.000000
     2  S    1.529118   0.000000
     3  C    2.685884   1.813117   0.000000
     4  C    2.931058   2.766314   1.391778   0.000000
     5  C    4.322796   4.067051   2.401196   1.395352   0.000000
     6  C    5.225110   4.583444   2.770392   2.419045   1.396132
     7  C    5.087831   4.077557   2.403942   2.800618   2.422067
     8  C    3.977113   2.781690   1.394163   2.430806   2.796604
     9  C    2.689244   1.813438   2.731292   3.706131   4.831466
    10  C    3.033453   2.820903   3.378221   3.882933   4.913712
    11  C    3.029603   2.804249   4.039779   4.783345   5.982779
    12  N    2.619631   1.536507   2.803049   3.903820   5.081054
    13  H    1.016256   2.095345   3.432141   3.702913   5.072050
    14  H    2.424501   2.855220   2.141042   1.093680   2.187624
    15  H    4.907358   4.924309   3.393769   2.158007   1.092936
    16  H    6.281222   5.676558   3.863510   3.409084   2.160717
    17  H    6.074336   4.938818   3.396633   3.893507   3.412824
    18  H    4.350827   2.921367   2.167867   3.422067   3.891065
    19  H    3.644451   2.451267   3.015996   4.186962   5.130033
    20  H    4.093095   3.747537   3.984880   4.458501   5.265064
    21  H    2.602582   2.874157   3.268534   3.387141   4.441794
    22  H    4.088319   3.725326   4.932854   5.773025   6.913689
    23  H    2.592433   2.841214   4.330060   4.932972   6.240075
    24  H    3.501055   2.155048   2.993456   4.273661   5.286298
                    6          7          8          9         10
     6  C    0.000000
     7  C    1.396835   0.000000
     8  C    2.416163   1.393664   0.000000
     9  C    5.160538   4.513521   3.280314   0.000000
    10  C    5.431222   5.086685   4.101700   1.494866   0.000000
    11  C    6.484403   5.956380   4.751617   1.490320   1.496568
    12  N    5.379832   4.637481   3.303117   2.795495   4.111506
    13  H    5.972389   5.801744   4.655645   3.403296   3.895135
    14  H    3.426584   3.893554   3.405971   3.890311   3.865030
    15  H    2.161770   3.412285   3.889528   5.704772   5.594880
    16  H    1.093119   2.159155   3.405217   6.197973   6.391666
    17  H    2.163464   1.092912   2.157156   5.220575   5.864889
    18  H    3.409679   2.161671   1.094560   3.183692   4.277253
    19  H    5.163221   4.272988   3.073950   1.094357   2.263672
    20  H    5.616625   5.255943   4.449142   2.225360   1.093618
    21  H    5.209389   5.136756   4.261704   2.214552   1.094503
    22  H    7.291888   6.645982   5.450039   2.218556   2.247957
    23  H    6.914963   6.495239   5.254445   2.206186   2.216087
    24  H    5.318454   4.352714   3.037970   2.973802   4.421965
                   11         12         13         14         15
    11  C    0.000000
    12  N    3.675185   0.000000
    13  H    3.577660   2.601780   0.000000
    14  H    4.679761   4.084272   3.146258   0.000000
    15  H    6.727373   5.991647   5.619580   2.527128   0.000000
    16  H    7.511186   6.440956   7.023042   4.335052   2.489927
    17  H    6.685923   5.310404   6.759948   4.986373   4.314930
    18  H    4.660713   3.046531   4.929074   4.302624   4.983965
    19  H    2.259453   3.033970   4.301258   4.605663   6.098341
    20  H    2.249566   4.984536   4.980083   4.579080   5.926346
    21  H    2.211637   4.337772   3.526275   3.129285   4.963668
    22  H    1.093410   4.356793   4.551249   5.742013   7.692700
    23  H    1.095034   3.625668   2.914578   4.612696   6.903992
    24  H    4.032470   1.020051   3.602770   4.676166   6.285885
                   16         17         18         19         20
    16  H    0.000000
    17  H    2.488907   0.000000
    18  H    4.310256   2.487565   0.000000
    19  H    6.148644   4.778887   2.675037   0.000000
    20  H    6.476506   5.913693   4.589561   2.569937   0.000000
    21  H    6.152361   6.042206   4.676914   3.133161   1.848336
    22  H    8.292600   7.260833   5.192153   2.561404   2.580008
    23  H    7.969135   7.311209   5.240975   3.123856   3.133914
    24  H    6.335052   4.843828   2.473061   2.829327   5.136002
                   21         22         23         24
    21  H    0.000000
    22  H    3.127797   0.000000
    23  H    2.474127   1.849792   0.000000
    24  H    4.824917   4.548736   4.215422   0.000000
 Stoichiometry    C9H12N2S
 Framework group  C1[X(C9H12N2S)]
 Deg. of freedom    66
 Full point group                 C1      NOp   1
 Largest Abelian subgroup         C1      NOp   1
 Largest concise Abelian subgroup C1      NOp   1
                         Standard orientation:                         
 ---------------------------------------------------------------------
 Center     Atomic      Atomic             Coordinates (Angstroms)
 Number     Number       Type             X           Y           Z
 ---------------------------------------------------------------------
      1          7           0        1.412310   -0.397660    1.644590
      2         16           0        0.982863   -0.734089    0.216098
      3          6           0       -0.759435   -0.253798    0.070805
      4          6           0       -1.401446    0.281565    1.183574
      5          6           0       -2.744888    0.644003    1.079603
      6          6           0       -3.427472    0.466077   -0.125223
      7          6           0       -2.773273   -0.082529   -1.230755
      8          6           0       -1.432083   -0.448967   -1.134659
      9          6           0        1.680108    0.550078   -0.857830
     10          6           0        1.803393    1.920186   -0.272826
     11          6           0        3.019955    1.069548   -0.462843
     12          7           0        1.267080   -2.156148   -0.291667
     13          1           0        1.877234   -1.204447    2.051672
     14          1           0       -0.830905    0.396044    2.109594
     15          1           0       -3.261826    1.066746    1.944803
     16          1           0       -4.479981    0.750647   -0.203666
     17          1           0       -3.312086   -0.231568   -2.169863
     18          1           0       -0.920370   -0.892583   -1.994552
     19          1           0        1.417006    0.405642   -1.910224
     20          1           0        1.628980    2.773541   -0.934162
     21          1           0        1.456630    2.048607    0.757320
     22          1           0        3.725789    1.306789   -1.263506
     23          1           0        3.462294    0.635173    0.439794
     24          1           0        0.966542   -2.309490   -1.254303
 ---------------------------------------------------------------------
 Rotational constants (GHZ):           1.5362230           0.5804839           0.5583217
 Standard basis: def2SVP (5D, 7F)
 There are   244 symmetry adapted cartesian basis functions of A   symmetry.
 There are   232 symmetry adapted basis functions of A   symmetry.
   232 basis functions,   396 primitive gaussians,   244 cartesian basis functions
    48 alpha electrons       48 beta electrons
       nuclear repulsion energy       814.1214455658 Hartrees.
 NAtoms=   24 NActive=   24 NUniq=   24 SFac= 1.00D+00 NAtFMM=   60 NAOKFM=F Big=F
 Integral buffers will be    131072 words long.
 Raffenetti 2 integral format.
 Two-electron integral symmetry is turned on.
 Nuclear repulsion after empirical dispersion term =      814.0941700169 Hartrees.
 One-electron integrals computed using PRISM.
   1 Symmetry operations used in ECPInt.
 ECPInt:  NShTT=    6105 NPrTT=   22357 LenC2=    5945 LenP2D=   16444.
 LDataN:  DoStor=T MaxTD1= 4 Len=   56
 NBasis=   232 RedAO= T EigKep=  2.88D-04  NBF=   232
 NBsUse=   232 1.00D-06 EigRej= -1.00D+00 NBFU=   232
 Initial guess from the checkpoint file:  "SDI0122_2.chk"
 B after Tr=    -0.000000    0.000000    0.000000
         Rot=    0.999279    0.037139    0.002491    0.007488 Ang=   4.35 deg.
 ExpMin= 1.22D-01 ExpMax= 9.18D+03 ExpMxC= 1.38D+03 IAcc=3 IRadAn=         5 AccDes= 0.00D+00
 Harris functional with IExCor= 1009 and IRadAn=       5 diagonalized for initial guess.
 HarFok:  IExCor= 1009 AccDes= 0.00D+00 IRadAn=         5 IDoV= 1 UseB2=F ITyADJ=14
 ICtDFT=  3500011 ScaDFX=  1.000000  1.000000  1.000000  1.000000
 FoFCou: FMM=F IPFlag=           0 FMFlag=      100000 FMFlg1=           0
         NFxFlg=           0 DoJE=T BraDBF=F KetDBF=T FulRan=T
         wScrn=  0.000000 ICntrl=       500 IOpCl=  0 I1Cent=   200000004 NGrid=           0
         NMat0=    1 NMatS0=      1 NMatT0=    0 NMatD0=    1 NMtDS0=    0 NMtDT0=    0
 Petite list used in FoFCou.
 Requested convergence on RMS density matrix=1.00D-08 within 128 cycles.
 Requested convergence on MAX density matrix=1.00D-06.
 Requested convergence on             energy=1.00D-06.
 No special actions if energy rises.
 Integral accuracy reduced to 1.0D-05 until final iterations.
 Initial convergence to 1.0D-05 achieved.  Increase integral accuracy.
 SCF Done:  E(RPBE1PBE) =  -856.596086838     A.U. after   12 cycles
            NFock= 12  Conv=0.65D-08     -V/T= 2.0067
   1 Symmetry operations used in ECPInt.
 ECPInt:  NShTT=    6105 NPrTT=   22357 LenC2=    5945 LenP2D=   16444.
 LDataN:  DoStor=T MaxTD1= 5 Len=  102
 Calling FoFJK, ICntrl=      2127 FMM=F ISym2X=0 I1Cent= 0 IOpClX= 0 NMat=1 NMatS=1 NMatT=0.
 ***** Axes restored to original set *****
 -------------------------------------------------------------------
 Center     Atomic                   Forces (Hartrees/Bohr)
 Number     Number              X              Y              Z
 -------------------------------------------------------------------
      1        7          -0.001990103    0.002665162   -0.008595957
      2       16           0.005046467    0.003421199    0.013482499
      3        6          -0.000340606   -0.000328860   -0.001146109
      4        6           0.000859033   -0.000293187    0.000509902
      5        6           0.000113360   -0.000608375    0.001582466
      6        6          -0.000639105   -0.000104757   -0.000687648
      7        6          -0.000708027   -0.000003680   -0.000460941
      8        6           0.000643502    0.000072528   -0.000544106
      9        6           0.002238313   -0.002262040   -0.004378858
     10        6          -0.000604194    0.001507175    0.000587892
     11        6          -0.002835817    0.000173918    0.001141827
     12        7          -0.001885950   -0.003226910   -0.002487405
     13        1          -0.001074584   -0.002528610   -0.000258087
     14        1           0.000011136    0.000011897    0.000896659
     15        1          -0.000055247   -0.000121903    0.000208850
     16        1          -0.000402283   -0.000056068   -0.000066490
     17        1          -0.000071040    0.000082242   -0.000293050
     18        1           0.000521893    0.000301137   -0.000296793
     19        1          -0.000009532    0.000592644   -0.000119827
     20        1          -0.000397941   -0.000658662    0.000410411
     21        1           0.000069627   -0.000920965    0.000397462
     22        1           0.000422577   -0.000067704    0.000059853
     23        1           0.001009506    0.000255432    0.000056959
     24        1           0.000079016    0.002098386    0.000000494
 -------------------------------------------------------------------
 Cartesian Forces:  Max     0.013482499 RMS     0.002329074

 GradGradGradGradGradGradGradGradGradGradGradGradGradGradGradGradGradGrad
 Berny optimization.
 Using GEDIIS/GDIIS optimizer.
 FormGI is forming the generalized inverse of G from B-inverse, IUseBI=4.
 Internal  Forces:  Max     0.009147017 RMS     0.001161311
 Search for a local minimum.
 Step number   2 out of a maximum of  133
 All quantities printed in internal units (Hartrees-Bohrs-Radians)
 Mixed Optimization -- RFO/linear search
 Update second derivatives using D2CorX and points    1    2
 DE= -3.99D-03 DEPred=-4.13D-03 R= 9.66D-01
 TightC=F SS=  1.41D+00  RLast= 2.44D-01 DXNew= 5.0454D-01 7.3228D-01
 Trust test= 9.66D-01 RLast= 2.44D-01 DXMaxT set to 5.05D-01
 ITU=  1  0
 Use linear search instead of GDIIS.
     Eigenvalues ---    0.00229   0.00232   0.01510   0.01960   0.02277
     Eigenvalues ---    0.02281   0.02284   0.02287   0.02297   0.02308
     Eigenvalues ---    0.02316   0.02325   0.02339   0.03181   0.03208
     Eigenvalues ---    0.03504   0.03620   0.03712   0.04024   0.06970
     Eigenvalues ---    0.07925   0.09782   0.10223   0.10678   0.11098
     Eigenvalues ---    0.14758   0.15878   0.15999   0.16000   0.16000
     Eigenvalues ---    0.16000   0.16000   0.16000   0.16114   0.16338
     Eigenvalues ---    0.17198   0.19516   0.21985   0.22000   0.23423
     Eigenvalues ---    0.23592   0.24437   0.24954   0.26182   0.29371
     Eigenvalues ---    0.33157   0.35930   0.35991   0.35998   0.36010
     Eigenvalues ---    0.36023   0.36024   0.36060   0.36073   0.36099
     Eigenvalues ---    0.37104   0.43704   0.43871   0.45966   0.46739
     Eigenvalues ---    0.48092   0.48309   0.48714   0.50435   0.66694
     Eigenvalues ---    0.70108
 RFO step:  Lambda=-1.04717629D-03 EMin= 2.29196466D-03
 Quartic linear search produced a step of  0.03253.
 Iteration  1 RMS(Cart)=  0.07948122 RMS(Int)=  0.00235323
 Iteration  2 RMS(Cart)=  0.00335688 RMS(Int)=  0.00003083
 Iteration  3 RMS(Cart)=  0.00000373 RMS(Int)=  0.00003070
 Iteration  4 RMS(Cart)=  0.00000000 RMS(Int)=  0.00003070
 Variable       Old X    -DE/DX   Delta X   Delta X   Delta X     New X
                                 (Linear)    (Quad)   (Total)
    R1        2.88961   0.00915   0.00030   0.01406   0.01435   2.90397
    R2        1.92044   0.00260   0.00069   0.00688   0.00757   1.92802
    R3        3.42629  -0.00035  -0.00055  -0.00242  -0.00297   3.42333
    R4        3.42690  -0.00205  -0.00108  -0.01063  -0.01170   3.41520
    R5        2.90358   0.00058   0.00025   0.00132   0.00156   2.90514
    R6        2.63008  -0.00132   0.00067  -0.00157  -0.00088   2.62919
    R7        2.63459  -0.00050   0.00074   0.00029   0.00104   2.63563
    R8        2.63683  -0.00071   0.00067  -0.00037   0.00029   2.63713
    R9        2.06676  -0.00076   0.00090  -0.00059   0.00032   2.06707
   R10        2.63831  -0.00188   0.00064  -0.00295  -0.00231   2.63599
   R11        2.06535  -0.00024   0.00081   0.00072   0.00153   2.06688
   R12        2.63964  -0.00113   0.00068  -0.00128  -0.00060   2.63903
   R13        2.06569  -0.00041   0.00081   0.00024   0.00105   2.06675
   R14        2.63364  -0.00118   0.00054  -0.00153  -0.00099   2.63266
   R15        2.06530  -0.00030   0.00080   0.00053   0.00133   2.06663
   R16        2.06842  -0.00060   0.00086  -0.00022   0.00064   2.06906
   R17        2.82489  -0.00023   0.00021  -0.00167  -0.00147   2.82342
   R18        2.81630   0.00127  -0.00007   0.00306   0.00299   2.81928
   R19        2.06804  -0.00020   0.00092   0.00102   0.00195   2.06998
   R20        2.82810  -0.00050   0.00011   0.00068   0.00081   2.82891
   R21        2.06664  -0.00033   0.00083   0.00051   0.00134   2.06798
   R22        2.06831  -0.00046   0.00094   0.00031   0.00125   2.06956
   R23        2.06625  -0.00024   0.00084   0.00077   0.00161   2.06785
   R24        2.06931  -0.00056   0.00095   0.00004   0.00099   2.07031
   R25        1.92762  -0.00031   0.00083   0.00076   0.00159   1.92920
    A1        1.90501  -0.00179  -0.00213  -0.01506  -0.01719   1.88782
    A2        1.86132   0.00058  -0.00040   0.00727   0.00670   1.86802
    A3        1.86445   0.00140  -0.00059   0.01004   0.00932   1.87377
    A4        2.04924  -0.00178   0.00170  -0.01805  -0.01633   2.03291
    A5        1.70563   0.00126   0.00039   0.01620   0.01651   1.72215
    A6        1.97843  -0.00010  -0.00061  -0.00198  -0.00255   1.97588
    A7        1.96987  -0.00072  -0.00074  -0.00648  -0.00722   1.96265
    A8        2.07270   0.00092   0.00013   0.00381   0.00388   2.07658
    A9        2.08959  -0.00021  -0.00040  -0.00169  -0.00215   2.08744
   A10        2.12070  -0.00071   0.00027  -0.00241  -0.00217   2.11853
   A11        2.07655   0.00023  -0.00030   0.00055   0.00027   2.07682
   A12        2.06756  -0.00052   0.00012  -0.00292  -0.00281   2.06476
   A13        2.13905   0.00029   0.00018   0.00237   0.00254   2.14160
   A14        2.09662   0.00029   0.00015   0.00136   0.00151   2.09812
   A15        2.09078  -0.00009  -0.00013  -0.00040  -0.00052   2.09026
   A16        2.09579  -0.00020  -0.00002  -0.00096  -0.00098   2.09480
   A17        2.09911  -0.00019  -0.00000  -0.00116  -0.00117   2.09794
   A18        2.09382   0.00004   0.00000   0.00024   0.00024   2.09406
   A19        2.09024   0.00015   0.00000   0.00093   0.00093   2.09117
   A20        2.09371   0.00005   0.00002   0.00018   0.00020   2.09390
   A21        2.09756  -0.00012   0.00003  -0.00066  -0.00063   2.09692
   A22        2.09190   0.00008  -0.00005   0.00047   0.00042   2.09232
   A23        2.07959   0.00034  -0.00014   0.00146   0.00133   2.08092
   A24        2.10651   0.00014   0.00032   0.00170   0.00201   2.10852
   A25        2.09705  -0.00048  -0.00018  -0.00316  -0.00335   2.09370
   A26        2.03644   0.00204   0.00091   0.01896   0.01986   2.05629
   A27        2.02144   0.00138  -0.00029   0.00218   0.00184   2.02327
   A28        1.96448  -0.00081  -0.00046  -0.00541  -0.00597   1.95852
   A29        2.11429  -0.00098   0.00006  -0.00453  -0.00452   2.10977
   A30        2.11416  -0.00080   0.00008  -0.00770  -0.00766   2.10650
   A31        2.05486  -0.00002  -0.00056  -0.00358  -0.00415   2.05070
   A32        2.03727  -0.00095   0.00032  -0.00657  -0.00625   2.03102
   A33        2.09022  -0.00077   0.00018  -0.00290  -0.00274   2.08749
   A34        2.03056   0.00009  -0.00041   0.00161   0.00121   2.03177
   A35        2.01206   0.00074   0.00033   0.00617   0.00647   2.01853
   A36        2.05094   0.00031  -0.00067  -0.00128  -0.00195   2.04900
   A37        2.03015  -0.00062   0.00009  -0.00337  -0.00328   2.02687
   A38        2.08795  -0.00073   0.00003  -0.00003   0.00000   2.08795
   A39        2.03664   0.00041  -0.00020  -0.00357  -0.00377   2.03287
   A40        2.01408   0.00047   0.00041   0.00547   0.00588   2.01996
   A41        1.97849  -0.00385  -0.00086  -0.02600  -0.02686   1.95164
    D1        2.27801  -0.00107   0.00012  -0.01175  -0.01166   2.26636
    D2       -2.19510   0.00109   0.00017   0.01289   0.01309  -2.18202
    D3        0.03697  -0.00004  -0.00003  -0.00126  -0.00130   0.03567
    D4       -0.01685   0.00127  -0.00151   0.01399   0.01251  -0.00433
    D5       -3.13764   0.00151  -0.00055   0.03006   0.02956  -3.10808
    D6       -1.94035  -0.00085  -0.00092  -0.00463  -0.00558  -1.94593
    D7        1.22204  -0.00061   0.00004   0.01144   0.01146   1.23351
    D8        2.26487  -0.00069  -0.00004  -0.00555  -0.00561   2.25925
    D9       -0.85592  -0.00045   0.00092   0.01051   0.01143  -0.84449
   D10       -0.56935  -0.00094   0.00224   0.09442   0.09663  -0.47271
   D11        0.61684  -0.00030   0.00246   0.10121   0.10360   0.72044
   D12       -3.12902  -0.00095   0.00148   0.08251   0.08395  -3.04508
   D13        1.35159   0.00051   0.00180   0.11082   0.11269   1.46428
   D14        2.53778   0.00116   0.00202   0.11761   0.11966   2.65744
   D15       -1.20809   0.00050   0.00104   0.09891   0.10000  -1.10808
   D16       -2.84711   0.00082   0.00102   0.11507   0.11611  -2.73100
   D17       -1.66092   0.00146   0.00124   0.12186   0.12308  -1.53784
   D18        0.87640   0.00081   0.00026   0.10316   0.10342   0.97983
   D19       -3.12876   0.00012   0.00040   0.00983   0.01019  -3.11857
   D20        0.97048   0.00097   0.00002   0.01735   0.01735   0.98783
   D21       -0.94832  -0.00010   0.00038   0.00233   0.00276  -0.94555
   D22       -3.13378   0.00028   0.00069   0.01516   0.01588  -3.11790
   D23        0.00175   0.00030   0.00064   0.01657   0.01723   0.01898
   D24       -0.01338   0.00004  -0.00029  -0.00119  -0.00148  -0.01486
   D25        3.12215   0.00007  -0.00034   0.00021  -0.00013   3.12202
   D26        3.13522  -0.00022  -0.00063  -0.01314  -0.01374   3.12148
   D27        0.00357  -0.00020  -0.00055  -0.01248  -0.01300  -0.00943
   D28        0.01502   0.00001   0.00036   0.00330   0.00365   0.01867
   D29       -3.11663   0.00003   0.00044   0.00396   0.00440  -3.11224
   D30        0.00242  -0.00004   0.00004  -0.00067  -0.00063   0.00179
   D31       -3.14036  -0.00002   0.00004  -0.00023  -0.00020  -3.14056
   D32       -3.13285  -0.00006   0.00009  -0.00212  -0.00202  -3.13487
   D33        0.00755  -0.00005   0.00009  -0.00168  -0.00159   0.00596
   D34        0.00665  -0.00000   0.00013   0.00043   0.00055   0.00720
[...]
 Alpha virt. eigenvalues --    2.39647   2.40930   2.41724   2.43610   2.44763
 Alpha virt. eigenvalues --    2.46718   2.47603   2.49670   2.49929   2.50904
 Alpha virt. eigenvalues --    2.51584   2.53090   2.54037   2.55403   2.56826
 Alpha virt. eigenvalues --    2.57650   2.58824   2.59724   2.61346   2.62557
 Alpha virt. eigenvalues --    2.63035   2.64203   2.64635   2.65903   2.66382
 Alpha virt. eigenvalues --    2.67342   2.67870   2.68592   2.69998   2.71493
 Alpha virt. eigenvalues --    2.71682   2.74160   2.74367   2.75716   2.76958
 Alpha virt. eigenvalues --    2.77372   2.78648   2.79602   2.80392   2.83346
 Alpha virt. eigenvalues --    2.84315   2.84605   2.84875   2.86499   2.88810
 Alpha virt. eigenvalues --    2.90285   2.91040   2.92609   2.93825   2.98742
 Alpha virt. eigenvalues --    2.99224   3.01318   3.02062   3.03873   3.05576
 Alpha virt. eigenvalues --    3.07975   3.10367   3.10453   3.11698   3.11974
 Alpha virt. eigenvalues --    3.13130   3.13713   3.14394   3.14470   3.15987
 Alpha virt. eigenvalues --    3.17382   3.18837   3.19655   3.20595   3.22842
 Alpha virt. eigenvalues --    3.24634   3.26825   3.27516   3.29075   3.31112
 Alpha virt. eigenvalues --    3.32691   3.34553   3.34891   3.36409   3.37050
 Alpha virt. eigenvalues --    3.38261   3.39906   3.42987   3.43937   3.44867
 Alpha virt. eigenvalues --    3.45528   3.47113   3.48539   3.50527   3.52349
 Alpha virt. eigenvalues --    3.53381   3.54250   3.55669   3.57783   3.58170
 Alpha virt. eigenvalues --    3.65538   3.67849   3.68407   3.69954   3.71684
 Alpha virt. eigenvalues --    3.72569   3.74063   3.75651   3.78146   3.82576
 Alpha virt. eigenvalues --    3.87100   3.88400   3.91818   3.93667   3.94375
 Alpha virt. eigenvalues --    3.99406   4.00707   4.02063   4.02372   4.04725
 Alpha virt. eigenvalues --    4.06222   4.07053   4.08228   4.09450   4.10544
 Alpha virt. eigenvalues --    4.11539   4.13072   4.15057   4.18183   4.19068
 Alpha virt. eigenvalues --    4.19788   4.20884   4.21123   4.22035   4.24040
 Alpha virt. eigenvalues --    4.25582   4.26277   4.27345   4.30884   4.31743
 Alpha virt. eigenvalues --    4.35052   4.35758   4.37568   4.40365   4.42922
 Alpha virt. eigenvalues --    4.44117   4.47609   4.49411   4.52704   4.57489
 Alpha virt. eigenvalues --    4.59945   4.61772   4.62937   4.64746   4.66658
 Alpha virt. eigenvalues --    4.70140   4.70640   4.71917   4.79772   4.81708
 Alpha virt. eigenvalues --    4.84926   4.85904   4.88533   4.90125   4.91847
 Alpha virt. eigenvalues --    4.92706   4.95453   4.99294   5.03832   5.08651
 Alpha virt. eigenvalues --    5.14788   5.16690   5.17824   5.21210   5.25277
 Alpha virt. eigenvalues --    5.27608   5.28536   5.35130   5.39838   5.56940
 Alpha virt. eigenvalues --    5.58085   5.60116   9.47940   9.58157   9.67028
 Alpha virt. eigenvalues --   21.89156  22.02809  22.47101  22.52151  22.58794
 Alpha virt. eigenvalues --   22.62832  22.65676  22.76610  22.83915  23.15699
 Alpha virt. eigenvalues --   31.95748  31.97482
          Condensed to atoms (all electrons):
               1          2          3          4          5          6
     1  N    6.912064   0.556844  -0.084370   0.035840  -0.000763  -0.000155
     2  S    0.556844  13.980883   0.270275   0.001083   0.004222  -0.001285
     3  C   -0.084370   0.270275   5.499930   0.363877   0.041229  -0.092490
     4  C    0.035840   0.001083   0.363877   5.112752   0.434028   0.008064
     5  C   -0.000763   0.004222   0.041229   0.434028   4.930618   0.474791
     6  C   -0.000155  -0.001285  -0.092490   0.008064   0.474791   4.863505
     7  C   -0.000407   0.009550  -0.032645  -0.044231   0.003035   0.489036
     8  C   -0.017052  -0.052210   0.221694  -0.130394  -0.083165   0.020163
     9  C   -0.106538   0.298382  -0.034646  -0.039461  -0.002662  -0.000257
    10  C   -0.021635   0.010487  -0.002629   0.002570   0.001904   0.000093
    11  C   -0.001543  -0.001838  -0.000448   0.003636  -0.000050   0.000009
    12  N   -0.081069   0.434129  -0.089068   0.022442  -0.001187   0.000103
    13  H    0.311414  -0.010623   0.001192  -0.005242   0.000013  -0.000011
    14  H    0.006206  -0.002793  -0.062605   0.435091  -0.067018   0.010293
    15  H   -0.000008  -0.000212   0.011476  -0.051031   0.424547  -0.052104
    16  H   -0.000001   0.000023  -0.002151   0.009594  -0.048518   0.421932
    17  H    0.000023  -0.000115   0.013168  -0.000718   0.008704  -0.049397
    18  H   -0.001202  -0.006206  -0.093352   0.007836  -0.001918   0.008509
    19  H    0.005174  -0.030180   0.008296  -0.002284   0.000207  -0.000169
    20  H    0.001378   0.002053   0.000239   0.000125  -0.000222  -0.000001
    21  H    0.014640  -0.001106  -0.005576   0.003010   0.000250   0.000034
    22  H    0.000736   0.003093  -0.000286  -0.000009  -0.000001   0.000000
    23  H    0.014506  -0.002309   0.001995  -0.000181   0.000010   0.000000
    24  H    0.009023   0.017999   0.000255  -0.002654   0.000335  -0.000258
               7          8          9         10         11         12
     1  N   -0.000407  -0.017052  -0.106538  -0.021635  -0.001543  -0.081069
     2  S    0.009550  -0.052210   0.298382   0.010487  -0.001838   0.434129
     3  C   -0.032645   0.221694  -0.034646  -0.002629  -0.000448  -0.089068
     4  C   -0.044231  -0.130394  -0.039461   0.002570   0.003636   0.022442
     5  C    0.003035  -0.083165  -0.002662   0.001904  -0.000050  -0.001187
     6  C    0.489036   0.020163  -0.000257   0.000093   0.000009   0.000103
     7  C    4.900859   0.440879  -0.001073  -0.000062   0.000017   0.005613
     8  C    0.440879   5.349491   0.034012  -0.006666  -0.000380   0.006449
     9  C   -0.001073   0.034012   5.225709   0.210212   0.247284  -0.048020
    10  C   -0.000062  -0.006666   0.210212   5.054324   0.272099   0.011641
    11  C    0.000017  -0.000380   0.247284   0.272099   4.968911  -0.000453
    12  N    0.005613   0.006449  -0.048020   0.011641  -0.000453   6.998914
    13  H   -0.000109   0.004628   0.010916  -0.000108  -0.000632  -0.004432
    14  H   -0.002769   0.015370   0.005439  -0.001413   0.000433   0.000822
    15  H    0.009823  -0.001137   0.000170  -0.000091   0.000001   0.000005
    16  H   -0.048831   0.010376  -0.000005   0.000001  -0.000000  -0.000001
    17  H    0.420867  -0.049839   0.000011   0.000002  -0.000001   0.000015
    18  H   -0.023225   0.422766   0.002986  -0.000460   0.000006   0.032596
    19  H    0.000232  -0.001207   0.401997  -0.032321  -0.030624  -0.001141
    20  H    0.000003   0.000312  -0.020630   0.386102  -0.015761  -0.000297
    21  H   -0.000003  -0.000638  -0.033612   0.405404  -0.011260   0.001050
    22  H    0.000001   0.000011  -0.024123  -0.022811   0.405519  -0.000105
    23  H    0.000003  -0.000126  -0.026624  -0.009635   0.396774   0.002361
    24  H    0.000460  -0.000092  -0.011725   0.000814   0.000196   0.267949
              13         14         15         16         17         18
     1  N    0.311414   0.006206  -0.000008  -0.000001   0.000023  -0.001202
     2  S   -0.010623  -0.002793  -0.000212   0.000023  -0.000115  -0.006206
     3  C    0.001192  -0.062605   0.011476  -0.002151   0.013168  -0.093352
     4  C   -0.005242   0.435091  -0.051031   0.009594  -0.000718   0.007836
     5  C    0.000013  -0.067018   0.424547  -0.048518   0.008704  -0.001918
     6  C   -0.000011   0.010293  -0.052104   0.421932  -0.049397   0.008509
     7  C   -0.000109  -0.002769   0.009823  -0.048831   0.420867  -0.023225
     8  C    0.004628   0.015370  -0.001137   0.010376  -0.049839   0.422766
     9  C    0.010916   0.005439   0.000170  -0.000005   0.000011   0.002986
    10  C   -0.000108  -0.001413  -0.000091   0.000001   0.000002  -0.000460
    11  C   -0.000632   0.000433   0.000001  -0.000000  -0.000001   0.000006
    12  N   -0.004432   0.000822   0.000005  -0.000001   0.000015   0.032596
    13  H    0.470951  -0.000156   0.000005  -0.000000  -0.000003   0.000539
    14  H   -0.000156   0.531810  -0.007137  -0.000206   0.000063   0.000076
    15  H    0.000005  -0.007137   0.548381  -0.007433  -0.000253   0.000094
    16  H   -0.000000  -0.000206  -0.007433   0.547605  -0.007410  -0.000224
    17  H   -0.000003   0.000063  -0.000253  -0.007410   0.545886  -0.006674
    18  H    0.000539   0.000076   0.000094  -0.000224  -0.006674   0.518965
    19  H   -0.000440  -0.000625   0.000011  -0.000001   0.000003  -0.000275
    20  H    0.000009   0.000553   0.000007   0.000000  -0.000000   0.000013
    21  H   -0.001042   0.001273  -0.000020   0.000000  -0.000000  -0.000010
    22  H    0.000011   0.000021   0.000000   0.000000   0.000000   0.000002
    23  H   -0.000793  -0.000099  -0.000000   0.000000  -0.000000  -0.000023
    24  H   -0.000225  -0.000153   0.000001  -0.000000   0.000014  -0.006499
              19         20         21         22         23         24
     1  N    0.005174   0.001378   0.014640   0.000736   0.014506   0.009023
     2  S   -0.030180   0.002053  -0.001106   0.003093  -0.002309   0.017999
     3  C    0.008296   0.000239  -0.005576  -0.000286   0.001995   0.000255
     4  C   -0.002284   0.000125   0.003010  -0.000009  -0.000181  -0.002654
     5  C    0.000207  -0.000222   0.000250  -0.000001   0.000010   0.000335
     6  C   -0.000169  -0.000001   0.000034   0.000000   0.000000  -0.000258
     7  C    0.000232   0.000003  -0.000003   0.000001   0.000003   0.000460
     8  C   -0.001207   0.000312  -0.000638   0.000011  -0.000126  -0.000092
     9  C    0.401997  -0.020630  -0.033612  -0.024123  -0.026624  -0.011725
    10  C   -0.032321   0.386102   0.405404  -0.022811  -0.009635   0.000814
    11  C   -0.030624  -0.015761  -0.011260   0.405519   0.396774   0.000196
    12  N   -0.001141  -0.000297   0.001050  -0.000105   0.002361   0.267949
    13  H   -0.000440   0.000009  -0.001042   0.000011  -0.000793  -0.000225
    14  H   -0.000625   0.000553   0.001273   0.000021  -0.000099  -0.000153
    15  H    0.000011   0.000007  -0.000020   0.000000  -0.000000   0.000001
    16  H   -0.000001   0.000000   0.000000   0.000000   0.000000  -0.000000
    17  H    0.000003  -0.000000  -0.000000   0.000000  -0.000000   0.000014
    18  H   -0.000275   0.000013  -0.000010   0.000002  -0.000023  -0.006499
    19  H    0.559530  -0.007250   0.003028  -0.006707   0.002779   0.002201
    20  H   -0.007250   0.556377  -0.022960  -0.006589   0.001889  -0.000052
    21  H    0.003028  -0.022960   0.489535   0.001934  -0.005936  -0.000059
    22  H   -0.006707  -0.006589   0.001934   0.539870  -0.019073   0.000019
    23  H    0.002779   0.001889  -0.005936  -0.019073   0.488029   0.000104
    24  H    0.002201  -0.000052  -0.000059   0.000019   0.000104   0.511683
 Mulliken charges:
               1
     1  N   -0.553103
     2  S    0.519851
     3  C    0.066638
     4  C   -0.163743
     5  C   -0.118388
     6  C   -0.100406
     7  C   -0.127023
     8  C   -0.183243
     9  C   -0.087742
    10  C   -0.257822
    11  C   -0.231895
    12  N   -0.558315
    13  H    0.224139
    14  H    0.137525
    15  H    0.124908
    16  H    0.125251
    17  H    0.125655
    18  H    0.145682
    19  H    0.129766
    20  H    0.124702
    21  H    0.162064
    22  H    0.128485
    23  H    0.156351
    24  H    0.210664
 Sum of Mulliken charges =  -0.00000
 Mulliken charges with hydrogens summed into heavy atoms:
               1
     1  N   -0.328965
     2  S    0.519851
     3  C    0.066638
     4  C   -0.026218
     5  C    0.006519
     6  C    0.024844
     7  C   -0.001368
     8  C   -0.037561
     9  C    0.042024
    10  C    0.028945
    11  C    0.052941
    12  N   -0.347651
 Electronic spatial extent (au):  <R**2>=           2364.7327
 Charge=             -0.0000 electrons
 Dipole moment (field-independent basis, Debye):
    X=             -2.4243    Y=              2.3637    Z=             -2.3121  Tot=              4.1000
 Quadrupole moment (field-independent basis, Debye-Ang):
   XX=            -73.5548   YY=            -79.3141   ZZ=            -78.9022
   XY=              4.8070   XZ=             -3.3508   YZ=              0.6226
 Traceless Quadrupole moment (field-independent basis, Debye-Ang):
   XX=              3.7022   YY=             -2.0571   ZZ=             -1.6451
   XY=              4.8070   XZ=             -3.3508   YZ=              0.6226
 Octapole moment (field-independent basis, Debye-Ang**2):
  XXX=            -26.2786  YYY=             20.3442  ZZZ=             -1.9379  XYY=            -16.6186
  XXY=              9.4303  XXZ=            -13.3795  XZZ=             11.1460  YZZ=             -9.8182
  YYZ=             -0.8035  XYZ=             -8.3846
 Hexadecapole moment (field-independent basis, Debye-Ang**3):
 XXXX=          -2067.7474 YYYY=           -744.8651 ZZZZ=           -277.9557 XXXY=             -7.7399
 XXXZ=             -2.9456 YYYX=             25.1154 YYYZ=             16.7176 ZZZX=            -12.5162
 ZZZY=            -16.9330 XXYY=           -486.1865 XXZZ=           -441.8456 YYZZ=           -153.0065
 XXYZ=              1.4635 YYXZ=             -0.0324 ZZXY=              1.2618
 N-N= 8.107677903534D+02 E-N=-3.633878478200D+03  KE= 8.540535045689D+02
 Breneman (CHELPG) radii used.
 Read replacement radii for each type of atom:
 Atom Element Radius
    1     7    1.70
    2    16    2.00
    3     6    1.50
    4     6    1.50
    5     6    1.50
    6     6    1.50
    7     6    1.50
    8     6    1.50
    9     6    1.50
   10     6    1.50
   11     6    1.50
   12     7    1.70
   13     1    1.45
   14     1    1.45
   15     1    1.45
   16     1    1.45
   17     1    1.45
   18     1    1.45
   19     1    1.45
   20     1    1.45
   21     1    1.45
   22     1    1.45
   23     1    1.45
   24     1    1.45
 Generate Potential Derived Charges using the Breneman model, NDens= 1.
 Grid spacing= 0.300 Box extension= 2.800
 NStep X,Y,Z=   48     36     34   Total possible points=       58752
 Number of Points to Fit=   15474

 **********************************************************************

            Electrostatic Properties Using The SCF Density.

 **********************************************************************

       Atomic Center    1 is at   1.434733 -0.382114  1.641930
       Atomic Center    2 is at   0.897627 -0.703162  0.234643
       Atomic Center    3 is at  -0.827836 -0.163178  0.035539
       Atomic Center    4 is at  -1.176437  1.155825  0.328990
       Atomic Center    5 is at  -2.509704  1.543197  0.231679
       Atomic Center    6 is at  -3.485259  0.613345 -0.134979
       Atomic Center    7 is at  -3.129387 -0.707416 -0.400696
       Atomic Center    8 is at  -1.794233 -1.101553 -0.312643
       Atomic Center    9 is at   1.732716  0.500447 -0.788911
       Atomic Center   10 is at   2.346219  1.729525 -0.194240
       Atomic Center   11 is at   3.215077  0.587500 -0.616628
       Atomic Center   12 is at   1.056856 -2.155437 -0.267794
       Atomic Center   13 is at   1.150996 -1.136039  2.270319
       Atomic Center   14 is at  -0.408629  1.867485  0.638962
       Atomic Center   15 is at  -2.793042  2.575038  0.452553
       Atomic Center   16 is at  -4.531224  0.921012 -0.205292
       Atomic Center   17 is at  -3.894563 -1.437876 -0.673905
       Atomic Center   18 is at  -1.492860 -2.135862 -0.494846
       Atomic Center   19 is at   1.293813  0.524914 -1.790863
       Atomic Center   20 is at   2.321759  2.639623 -0.799741
       Atomic Center   21 is at   2.212461  1.855915  0.883108
       Atomic Center   22 is at   3.818596  0.672161 -1.523578
       Atomic Center   23 is at   3.639128 -0.024653  0.184131
       Atomic Center   24 is at   0.653489 -2.254421 -1.202756
   15474 points will be used for fitting atomic charges
 Fitting point charges to electrostatic potential
 Charges from ESP fit, RMS=   0.00373 RRMS=   0.22803:
 ESP charges:
               1
     1  N   -0.682306
     2  S    0.588534
     3  C    0.014544
     4  C   -0.077531
     5  C   -0.102562
     6  C   -0.072870
     7  C   -0.101906
     8  C   -0.077710
     9  C   -0.061319
    10  C   -0.204152
    11  C   -0.195973
    12  N   -0.697150
    13  H    0.333634
    14  H    0.080714
    15  H    0.105103
    16  H    0.093104
    17  H    0.099794
    18  H    0.097999
    19  H    0.084355
    20  H    0.114703
    21  H    0.126800
    22  H    0.116225
    23  H    0.127717
    24  H    0.290253
 Sum of ESP charges =  -0.00000
 ESP charges with hydrogens summed into heavy atoms:
               1
     1  N   -0.348672
     2  S    0.588534
     3  C    0.014544
     4  C    0.003182
     5  C    0.002541
     6  C    0.020234
     7  C   -0.002112
     8  C    0.020289
     9  C    0.023036
    10  C    0.037351
    11  C    0.047969
    12  N   -0.406897
 Charge=  -0.00000 Dipole=    -2.3965     2.3617    -2.2680 Tot=     4.0577
 -----------------------------------------------------------------

              Electrostatic Properties (Atomic Units)

 -----------------------------------------------------------------
    Center     Electric         -------- Electric Field --------
               Potential          X             Y             Z
 -----------------------------------------------------------------
    1 Atom    -18.429232
    2 Atom    -59.076631
    3 Atom    -14.732411
    4 Atom    -14.743220
    5 Atom    -14.746043
    6 Atom    -14.745558
    7 Atom    -14.746273
    8 Atom    -14.744459
    9 Atom    -14.722854
   10 Atom    -14.745132
   11 Atom    -14.747053
   12 Atom    -18.428828
   13 Atom     -1.052897
   14 Atom     -1.086487
   15 Atom     -1.088577
   16 Atom     -1.088234
   17 Atom     -1.088921
   18 Atom     -1.086890
   19 Atom     -1.076123
   20 Atom     -1.095772
   21 Atom     -1.102677
   22 Atom     -1.098946
   23 Atom     -1.104599
   24 Atom     -1.048024
 -----------------------------------------------------------------
 Unable to Open any file for archive entry.
 1\1\GINC-NOTCH101\SP\RPBE1PBE\def2TZVP\C9H12N2S1\U1414944\10-Feb-2025\
 0\\#N Guess=Read Geom=Check Integral(Ultrafine) Density Pop=(ChelpG,Re
 adRadii) NMR pbe1pbe EmpiricalDispersion=GD3BJ def2TZVP\\SDI0122_2\\0,
 1\N,0,-1.4960363799,-0.710191591,-1.3692618579\S,0,-0.9826101689,-0.59
 86699596,0.0784846679\C,0,0.7942584729,-0.2136290035,0.1326096316\C,0,
 1.2841034543,0.8854127818,-0.5741885888\C,0,2.6531533638,1.136069941,-
 0.5756911159\C,0,3.5232375926,0.2822831871,0.1060505423\C,0,3.02566842
 67,-0.8268851605,0.7871011992\C,0,1.6540925739,-1.0805769931,0.7995327
 411\C,0,-1.6674884724,0.9608144805,0.619466112\C,0,-2.1470129005,1.979
 2949662,-0.3671464341\C,0,-3.1327766177,1.1454409578,0.38817156\N,0,-1
 .2968013062,-1.773171769,1.0317570539\H,0,-1.3047522385,-1.6568224917,
 -1.7025529973\H,0,0.596828973,1.5313428362,-1.1241890944\H,0,3.0470135
 282,1.9975894616,-1.1201360497\H,0,4.5976273413,0.4804406785,0.0979343
 407\H,0,3.7078353678,-1.5024169245,1.3086500184\H,0,1.2416132066,-1.95
 53758758,1.3078696877\H,0,-1.217667268,1.2710015571,1.5674049217\H,0,-
 2.014918007,3.0310811152,-0.0991793141\H,0,-2.0118099233,1.7230666483,
 -1.4210019639\H,0,-3.7131992822,1.5932431617,1.1984448061\H,0,-3.63097
 26261,0.3506674789,-0.1738785229\H,0,-0.8967495007,-1.5971005008,1.956
 7517461\\Version=ES64L-G16RevC.01\State=1-A\HF=-857.265622\RMSD=3.368e
 -09\Dipole=1.0611599,1.0712809,0.5729928\Quadrupole=1.8542828,-0.82850
 72,-1.0257756,-4.5885553,-1.0899399,-0.2600007\PG=C01 [X(C9H12N2S1)]\\
 @
 The archive entry for this job was punched.


 THERE IS MUCH PLEASURE TO BE GAINED FROM USELESS KNOWLEDGE

                                       -- BERTRAND RUSSELL
 Job cpu time:       0 days  0 hours 33 minutes 10.0 seconds.
 Elapsed time:       0 days  0 hours  2 minutes 15.1 seconds.
 File lengths (MBytes):  RWF=    130 Int=      0 D2E=      0 Chk=     20 Scr=      2
 Normal termination of Gaussian 16 at Mon Feb 10 20:01:21 2025.
