 Entering Gaussian System, Link 0=g16
 Input=SDI0122_3.com
 Output=SDI0122_3.log
 Initial command:
 /uufs/chpc.utah.edu/sys/installdir/gaussian16/C01/AVX/g16/l1.exe "/scratch/general/vast/u1414944/4689572-notchpeak.peaks/Gau-1769286.inp" -scrdir="/scratch/general/vast/u1414944/4689572-notchpeak.peaks/"
 Entering Link 1 = /uufs/chpc.utah.edu/sys/installdir/gaussian16/C01/AVX/g16/l1.exe PID=   1769287.
  
 Copyright (c) 1988-2019, Gaussian, Inc.  All Rights Reserved.
  
 This is part of the Gaussian(R) 16 program.  It is based on
 the Gaussian(R) 09 system (copyright 2009, Gaussian, Inc.),
 the Gaussian(R) 03 system (copyright 2003, Gaussian, Inc.),
 the Gaussian(R) 98 system (copyright 1998, Gaussian, Inc.),
 the Gaussian(R) 94 system (copyright 1995, Gaussian, Inc.),
 the Gaussian 92(TM) system (copyright 1992, Gaussian, Inc.),
 the Gaussian 90(TM) system (copyright 1990, Gaussian, Inc.),
 the Gaussian 88(TM) system (copyright 1988, Gaussian, Inc.),
 the Gaussian 86(TM) system (copyright 1986, Carnegie Mellon
 University), and the Gaussian 82(TM) system (copyright 1983,
 Carnegie Mellon University). Gaussian is a federally registered
 trademark of Gaussian, Inc.
  
 This software contains proprietary and confidential information,
 including trade secrets, belonging to Gaussian, Inc.
  
 This software is provided under written license and may be
 used, copied, transmitted, or stored only in accord with that
 written license.
  
 The following legend is applicable only to US Government
 contracts under FAR:
  
                    RESTRICTED RIGHTS LEGEND
  
 Use, reproduction and disclosure by the US Government is
 subject to restrictions as set forth in subparagraphs (a)
 and (c) of the Commercial Computer Software - Restricted
 Rights clause in FAR 52.227-19.
  
 Gaussian, Inc.
 340 Quinnipiac St., Bldg. 40, Wallingford CT 06492
  
  
 ---------------------------------------------------------------
 Warning -- This program may not be used in any manner that
 competes with the business of Gaussian, Inc. or will provide
 assistance to any competitor of Gaussian, Inc.  The licensee
 of this program is prohibited from giving any competitor of
 Gaussian, Inc. access to this program.  By using this program,
 the user acknowledges that Gaussian, Inc. is engaged in the
 business of creating and licensing software in the field of
 computational chemistry and represents and warrants to the
 licensee that it is not a competitor of Gaussian, Inc. and that
 it will not use this program in any manner prohibited above.
 ---------------------------------------------------------------
  

 Cite this work as:
 Gaussian 16, Revision C.01,
 M. J. Frisch, G. W. Trucks, H. B. Schlegel, G. E. Scuseria, 
 M. A. Robb, J. R. Cheeseman, G. Scalmani, V. Barone, 
 G. A. Petersson, H. Nakatsuji, X. Li, M. Caricato, A. V. Marenich, 
 J. Bloino, B. G. Janesko, R. Gomperts, B. Mennucci, H. P. Hratchian, 
 J. V. Ortiz, A. F. Izmaylov, J. L. Sonnenberg, D. Williams-Young, 
 F. Ding, F. Lipparini, F. Egidi, J. Goings, B. Peng, A. Petrone, 
 T. Henderson, D. Ranasinghe, V. G. Zakrzewski, J. Gao, N. Rega, 
 G. Zheng, W. Liang, M. Hada, M. Ehara, K. Toyota, R. Fukuda, 
 J. Hasegawa, M. Ishida, T. Nakajima, Y. Honda, O. Kitao, H. Nakai, 
 T. Vreven, K. Throssell, J. A. Montgomery, Jr., J. E. Peralta, 
 F. Ogliaro, M. J. Bearpark, J. J. Heyd, E. N. Brothers, K. N. Kudin, 
 V. N. Staroverov, T. A. Keith, R. Kobayashi, J. Normand, 
 K. Raghavachari, A. P. Rendell, J. C. Burant, S. S. Iyengar, 
 J. Tomasi, M. Cossi, J. M. Millam, M. Klene, C. Adamo, R. Cammi, 
 J. W. Ochterski, R. L. Martin, K. Morokuma, O. Farkas, 
 J. B. Foresman, and D. J. Fox, Gaussian, Inc., Wallingford CT, 2019.
 
 ******************************************
 Gaussian 16:  ES64L-G16RevC.01  3-Jul-2019
                 6-Jun-2025 
 ******************************************
 %NProcShared=16
 Will use up to   16 processors via shared memory.
 %Mem=40GB
 %chk=SDI0122_3.chk
 ----------------------------------------------------------------------
 #N OPT FREQ=NORAMAN Integral(Ultrafine) pbe1pbe EmpiricalDispersion=GD
 3BJ def2SVP
 ----------------------------------------------------------------------
 1/18=20,19=15,26=4,38=1/1,3;
 2/9=110,12=2,17=6,18=5,40=1/2;
 3/5=43,7=101,11=2,25=1,30=1,71=1,74=-13,75=-5,124=41/1,2,3;
 4//1;
 5/5=2,38=5/2;
 6/7=2,8=2,9=2,10=2,28=1/1;
 7//1,2,3,16;
 1/18=20,19=15,26=4/3(2);
 2/9=110/2;
 99//99;
 2/9=110/2;
 3/5=43,7=101,11=2,25=1,30=1,71=1,74=-13,75=-5,124=41/1,2,3;
 4/5=5,16=3,69=1/1;
 5/5=2,38=5/2;
 7//1,2,3,16;
 1/18=20,19=15,26=4/3(-5);
 2/9=110/2;
 6/7=2,8=2,9=2,10=2,19=2,28=1/1;
 99/9=1/99;
 ---------
 SDI0122_3
 ---------
 Symbolic Z-matrix:
 Charge =  0 Multiplicity = 1
 N                    -1.45597   0.40716  -1.59331 
 S                    -0.96868  -0.47357  -0.44737 
 C                     0.81528  -0.19023  -0.148 
 C                     1.25509   1.11274  -0.00838 
 C                     2.60199   1.35675   0.1968 
 C                     3.49619   0.29866   0.25525 
 C                     3.04868  -1.00298   0.10091 
 C                     1.70056  -1.24919  -0.10442 
 C                    -1.61127   0.32085   1.06043 
 C                    -3.09382   0.48993   1.1301 
 C                    -2.21381   1.67697   0.90854 
 N                    -1.32012  -1.95763  -0.5941 
 H                    -1.63485  -0.10604  -2.43874 
 H                     0.54107   1.91842  -0.07206 
 H                     2.95572   2.37088   0.30854 
 H                     4.54686   0.4905    0.4154 
 H                     3.7475   -1.82545   0.13764 
 H                     1.33177  -2.25528  -0.24028 
 H                    -1.03934   0.05568   1.93791 
 H                    -3.65574   0.12255   0.28484 
 H                    -3.58475   0.36199   2.08348 
 H                    -2.19279   2.08961  -0.08856 
 H                    -2.08005   2.39212   1.70693 
 H                    -1.03208  -2.5326    0.1808 
 

 GradGradGradGradGradGradGradGradGradGradGradGradGradGradGradGradGradGrad
 Berny optimization.
 Initialization pass.
                           ----------------------------
                           !    Initial Parameters    !
                           ! (Angstroms and Degrees)  !
 --------------------------                            --------------------------
 ! Name  Definition              Value          Derivative Info.                !
 --------------------------------------------------------------------------------
 ! R1    R(1,2)                  1.5252         estimate D2E/DX2                !
 ! R2    R(1,13)                 1.0051         estimate D2E/DX2                !
 ! R3    R(2,3)                  1.831          estimate D2E/DX2                !
 ! R4    R(2,9)                  1.8214         estimate D2E/DX2                !
 ! R5    R(2,12)                 1.5321         estimate D2E/DX2                !
 ! R6    R(3,4)                  1.3823         estimate D2E/DX2                !
 ! R7    R(3,8)                  1.3809         estimate D2E/DX2                !
 ! R8    R(4,5)                  1.3841         estimate D2E/DX2                !
 ! R9    R(4,14)                 1.0784         estimate D2E/DX2                !
 ! R10   R(5,6)                  1.3866         estimate D2E/DX2                !
 ! R11   R(5,15)                 1.0799         estimate D2E/DX2                !
 ! R12   R(6,7)                  1.385          estimate D2E/DX2                !
 ! R13   R(6,16)                 1.08           estimate D2E/DX2                !
 ! R14   R(7,8)                  1.3857         estimate D2E/DX2                !
 ! R15   R(7,17)                 1.0799         estimate D2E/DX2                !
 ! R16   R(8,18)                 1.0801         estimate D2E/DX2                !
 ! R17   R(9,10)                 1.4938         estimate D2E/DX2                !
 ! R18   R(9,11)                 1.4917         estimate D2E/DX2                !
 ! R19   R(9,19)                 1.0805         estimate D2E/DX2                !
 ! R20   R(10,11)                1.4942         estimate D2E/DX2                !
 ! R21   R(10,20)                1.0794         estimate D2E/DX2                !
 ! R22   R(10,21)                1.08           estimate D2E/DX2                !
 ! R23   R(11,22)                1.0793         estimate D2E/DX2                !
 ! R24   R(11,23)                1.0802         estimate D2E/DX2                !
 ! R25   R(12,24)                1.007          estimate D2E/DX2                !
 ! A1    A(2,1,13)             113.2041         estimate D2E/DX2                !
 ! A2    A(1,2,3)              110.168          estimate D2E/DX2                !
 ! A3    A(1,2,9)              104.915          estimate D2E/DX2                !
 ! A4    A(1,2,12)             114.4616         estimate D2E/DX2                !
 ! A5    A(3,2,9)               98.0999         estimate D2E/DX2                !
 ! A6    A(3,2,12)             112.8949         estimate D2E/DX2                !
 ! A7    A(9,2,12)             114.8867         estimate D2E/DX2                !
 ! A8    A(2,3,4)              118.1905         estimate D2E/DX2                !
 ! A9    A(2,3,8)              120.7376         estimate D2E/DX2                !
 ! A10   A(4,3,8)              121.0426         estimate D2E/DX2                !
 ! A11   A(3,4,5)              119.392          estimate D2E/DX2                !
 ! A12   A(3,4,14)             119.1828         estimate D2E/DX2                !
 ! A13   A(5,4,14)             121.4221         estimate D2E/DX2                !
 ! A14   A(4,5,6)              119.9524         estimate D2E/DX2                !
 ! A15   A(4,5,15)             119.9779         estimate D2E/DX2                !
 ! A16   A(6,5,15)             120.0696         estimate D2E/DX2                !
 ! A17   A(5,6,7)              120.2705         estimate D2E/DX2                !
 ! A18   A(5,6,16)             119.8741         estimate D2E/DX2                !
 ! A19   A(7,6,16)             119.8541         estimate D2E/DX2                !
 ! A20   A(6,7,8)              119.8559         estimate D2E/DX2                !
 ! A21   A(6,7,17)             120.1913         estimate D2E/DX2                !
 ! A22   A(8,7,17)             119.9526         estimate D2E/DX2                !
 ! A23   A(3,8,7)              119.4793         estimate D2E/DX2                !
 ! A24   A(3,8,18)             119.4338         estimate D2E/DX2                !
 ! A25   A(7,8,18)             121.0844         estimate D2E/DX2                !
 ! A26   A(2,9,10)             115.9845         estimate D2E/DX2                !
 ! A27   A(2,9,11)             117.0477         estimate D2E/DX2                !
 ! A28   A(2,9,19)             112.2411         estimate D2E/DX2                !
 ! A29   A(10,9,19)            121.015          estimate D2E/DX2                !
 ! A30   A(11,9,19)            121.3073         estimate D2E/DX2                !
 ! A31   A(9,10,20)            116.2066         estimate D2E/DX2                !
 ! A32   A(9,10,21)            118.6156         estimate D2E/DX2                !
 ! A33   A(11,10,20)           117.4429         estimate D2E/DX2                !
 ! A34   A(11,10,21)           119.5215         estimate D2E/DX2                !
 ! A35   A(20,10,21)           114.4757         estimate D2E/DX2                !
 ! A36   A(9,11,22)            115.7071         estimate D2E/DX2                !
 ! A37   A(9,11,23)            118.4644         estimate D2E/DX2                !
 ! A38   A(10,11,22)           116.8844         estimate D2E/DX2                !
 ! A39   A(10,11,23)           119.2955         estimate D2E/DX2                !
 ! A40   A(22,11,23)           115.2962         estimate D2E/DX2                !
 ! A41   A(2,12,24)            114.4405         estimate D2E/DX2                !
 ! D1    D(13,1,2,3)           107.1303         estimate D2E/DX2                !
 ! D2    D(13,1,2,9)          -148.2045         estimate D2E/DX2                !
 ! D3    D(13,1,2,12)          -21.3622         estimate D2E/DX2                !
 ! D4    D(1,2,3,4)             50.1955         estimate D2E/DX2                !
 ! D5    D(1,2,3,8)           -127.8548         estimate D2E/DX2                !
 ! D6    D(9,2,3,4)            -59.0268         estimate D2E/DX2                !
 ! D7    D(9,2,3,8)            122.9228         estimate D2E/DX2                !
 ! D8    D(12,2,3,4)           179.5389         estimate D2E/DX2                !
 ! D9    D(12,2,3,8)             1.4885         estimate D2E/DX2                !
 ! D10   D(1,2,9,10)            58.01           estimate D2E/DX2                !
 ! D11   D(1,2,9,11)            -9.9978         estimate D2E/DX2                !
 ! D12   D(1,2,9,19)          -157.0459         estimate D2E/DX2                !
 ! D13   D(3,2,9,10)           171.4818         estimate D2E/DX2                !
 ! D14   D(3,2,9,11)           103.474          estimate D2E/DX2                !
 ! D15   D(3,2,9,19)           -43.574          estimate D2E/DX2                !
 ! D16   D(12,2,9,10)          -68.5704         estimate D2E/DX2                !
 ! D17   D(12,2,9,11)         -136.5783         estimate D2E/DX2                !
 ! D18   D(12,2,9,19)           76.3737         estimate D2E/DX2                !
 ! D19   D(1,2,12,24)         -177.5683         estimate D2E/DX2                !
 ! D20   D(3,2,12,24)           55.3265         estimate D2E/DX2                !
 ! D21   D(9,2,12,24)          -56.0514         estimate D2E/DX2                !
 ! D22   D(2,3,4,5)           -178.9478         estimate D2E/DX2                !
 ! D23   D(2,3,4,14)             0.4245         estimate D2E/DX2                !
 ! D24   D(8,3,4,5)             -0.9037         estimate D2E/DX2                !
 ! D25   D(8,3,4,14)           178.4687         estimate D2E/DX2                !
 ! D26   D(2,3,8,7)            178.891          estimate D2E/DX2                !
 ! D27   D(2,3,8,18)            -0.5369         estimate D2E/DX2                !
 ! D28   D(4,3,8,7)              0.8966         estimate D2E/DX2                !
 ! D29   D(4,3,8,18)          -178.5313         estimate D2E/DX2                !
 ! D30   D(3,4,5,6)              0.251          estimate D2E/DX2                !
 ! D31   D(3,4,5,15)          -179.912          estimate D2E/DX2                !
 ! D32   D(14,4,5,6)          -179.1068         estimate D2E/DX2                !
 ! D33   D(14,4,5,15)            0.7302         estimate D2E/DX2                !
 ! D34   D(4,5,6,7)              0.3966         estimate D2E/DX2                !
 ! D35   D(4,5,6,16)          -179.9995         estimate D2E/DX2                !
 ! D36   D(15,5,6,7)          -179.4402         estimate D2E/DX2                !
 ! D37   D(15,5,6,16)            0.1637         estimate D2E/DX2                !
 ! D38   D(5,6,7,8)             -0.4041         estimate D2E/DX2                !
 ! D39   D(5,6,7,17)           179.4396         estimate D2E/DX2                !
 ! D40   D(16,6,7,8)           179.9919         estimate D2E/DX2                !
 ! D41   D(16,6,7,17)           -0.1644         estimate D2E/DX2                !
 ! D42   D(6,7,8,3)             -0.2362         estimate D2E/DX2                !
 ! D43   D(6,7,8,18)           179.182          estimate D2E/DX2                !
 ! D44   D(17,7,8,3)           179.9197         estimate D2E/DX2                !
 ! D45   D(17,7,8,18)           -0.662          estimate D2E/DX2                !
 ! D46   D(2,9,10,20)            0.3207         estimate D2E/DX2                !
 ! D47   D(2,9,10,21)          142.9344         estimate D2E/DX2                !
 ! D48   D(19,9,10,20)        -141.3393         estimate D2E/DX2                !
 ! D49   D(19,9,10,21)           1.2745         estimate D2E/DX2                !
 ! D50   D(2,9,11,22)           -1.6817         estimate D2E/DX2                !
 ! D51   D(2,9,11,23)         -144.8547         estimate D2E/DX2                !
 ! D52   D(19,9,11,22)         142.2132         estimate D2E/DX2                !
 ! D53   D(19,9,11,23)          -0.9598         estimate D2E/DX2                !
 ! D54   D(20,10,11,22)         -0.3004         estimate D2E/DX2                !
 ! D55   D(20,10,11,23)        146.1892         estimate D2E/DX2                !
 ! D56   D(21,10,11,22)       -146.4563         estimate D2E/DX2                !
 ! D57   D(21,10,11,23)          0.0332         estimate D2E/DX2                !
 --------------------------------------------------------------------------------
 Trust Radius=3.00D-01 FncErr=1.00D-07 GrdErr=1.00D-06 EigMax=2.50D+02 EigMin=1.00D-04
 Number of steps in this run=    133 maximum allowed number of steps=    144.
 GradGradGradGradGradGradGradGradGradGradGradGradGradGradGradGradGradGrad

                          Input orientation:                          
 ---------------------------------------------------------------------
 Center     Atomic      Atomic             Coordinates (Angstroms)
 Number     Number       Type             X           Y           Z
 ---------------------------------------------------------------------
      1          7           0       -1.455971    0.407160   -1.593309
      2         16           0       -0.968675   -0.473572   -0.447370
      3          6           0        0.815278   -0.190232   -0.148004
      4          6           0        1.255093    1.112738   -0.008377
      5          6           0        2.601994    1.356749    0.196798
      6          6           0        3.496193    0.298657    0.255248
      7          6           0        3.048684   -1.002982    0.100906
      8          6           0        1.700561   -1.249187   -0.104421
      9          6           0       -1.611274    0.320855    1.060430
     10          6           0       -3.093815    0.489931    1.130098
     11          6           0       -2.213811    1.676972    0.908537
     12          7           0       -1.320118   -1.957632   -0.594100
     13          1           0       -1.634848   -0.106041   -2.438742
     14          1           0        0.541068    1.918424   -0.072065
     15          1           0        2.955719    2.370885    0.308541
     16          1           0        4.546860    0.490498    0.415402
     17          1           0        3.747500   -1.825455    0.137640
     18          1           0        1.331770   -2.255275   -0.240276
     19          1           0       -1.039340    0.055682    1.937913
     20          1           0       -3.655735    0.122550    0.284841
     21          1           0       -3.584754    0.361991    2.083480
     22          1           0       -2.192788    2.089615   -0.088559
     23          1           0       -2.080047    2.392123    1.706929
     24          1           0       -1.032084   -2.532595    0.180803
 ---------------------------------------------------------------------
                    Distance matrix (angstroms):
                    1          2          3          4          5
     1  N    0.000000
     2  S    1.525228   0.000000
     3  C    2.757599   1.830953   0.000000
     4  C    3.218652   2.766630   1.382268   0.000000
     5  C    4.535778   4.063829   2.388387   1.384116   0.000000
     6  C    5.287046   4.585309   2.754801   2.398907   1.386567
     7  C    5.015055   4.089016   2.389691   2.775821   2.403552
     8  C    3.863155   2.800717   1.380946   2.405485   2.773846
     9  C    2.659680   1.821403   2.758564   3.159983   4.423863
    10  C    3.179045   2.816552   4.168594   4.538394   5.836494
    11  C    2.906197   2.830846   3.711888   3.632133   4.878636
    12  N    2.570820   1.532148   2.807600   4.049933   5.195537
    13  H    1.005051   2.131766   3.355247   3.967853   5.199678
    14  H    2.930234   2.853388   2.127766   1.078433   2.152947
    15  H    5.190015   4.905426   3.368864   2.139041   1.079851
    16  H    6.330549   5.665240   3.834779   3.376759   2.140253
    17  H    5.920884   4.940864   3.369492   3.855696   3.382618
    18  H    4.085433   2.917089   2.130653   3.376858   3.853729
    19  H    3.573044   2.444315   2.801986   3.189018   4.240703
    20  H    2.906444   2.848120   4.502793   5.018236   6.378885
    21  H    4.248827   3.734600   4.964348   5.325750   6.544078
    22  H    2.374411   2.863062   3.774877   3.584495   4.858853
    23  H    3.901426   3.753447   4.300261   3.962608   5.027326
    24  H    3.459670   2.153648   3.001254   4.307601   5.322948
                    6          7          8          9         10
     6  C    0.000000
     7  C    1.385045   0.000000
     8  C    2.397807   1.385717   0.000000
     9  C    5.170593   4.938465   3.845798   0.000000
    10  C    6.650575   6.404555   5.247343   1.493776   0.000000
    11  C    5.910219   5.960560   4.991072   1.491703   1.494176
    12  N    5.386007   4.525574   3.141047   2.830856   3.479861
    13  H    5.809383   5.402757   4.228568   3.525194   3.901331
    14  H    3.385785   3.853916   3.373312   2.909871   4.086339
    15  H    2.142214   3.381528   3.853684   5.062152   6.388255
    16  H    1.079979   2.138673   3.376113   6.194147   7.674028
    17  H    2.142157   1.079886   2.140243   5.845909   7.290376
    18  H    3.384204   2.152309   1.080128   4.121868   5.385155
    19  H    4.843702   4.605138   3.657986   1.080464   2.249891
    20  H    7.154157   6.800727   5.542842   2.195605   1.079436
    21  H    7.313429   7.056646   5.942841   2.223274   1.079966
    22  H    5.974130   6.088767   5.128939   2.187886   2.203625
    23  H    6.130614   6.356881   5.552759   2.219879   2.231321
    24  H    5.341051   4.358758   3.032464   3.041608   3.779889
                   11         12         13         14         15
    11  C    0.000000
    12  N    4.033232   0.000000
    13  H    3.836484   2.632517   0.000000
    14  H    2.934151   4.331322   3.799241   0.000000
    15  H    5.250291   6.150902   5.895424   2.485985   0.000000
    16  H    6.881685   6.436914   6.834874   4.280534   2.465564
    17  H    6.956904   5.121881   6.209976   4.933742   4.273803
    18  H    5.417886   2.691894   4.272386   4.251267   4.933535
    19  H    2.251129   3.247054   4.419942   3.163465   4.896479
    20  H    2.210061   3.248817   3.399139   4.578832   6.983330
    21  H    2.233641   4.204600   4.946885   4.908285   7.068511
    22  H    1.079313   4.171011   3.264285   2.739260   5.171453
    23  H    1.080168   4.979217   4.860619   3.203039   5.226364
    24  H    4.432441   1.006986   3.621257   4.727613   6.321630
                   16         17         18         19         20
    16  H    0.000000
    17  H    2.465718   0.000000
    18  H    4.278550   2.482603   0.000000
    19  H    5.806267   5.449173   3.963230   0.000000
    20  H    8.211882   7.656650   5.550227   3.095585   0.000000
    21  H    8.301936   7.895135   6.035075   2.567908   1.815894
    22  H    6.945071   7.118003   5.596749   3.094175   2.479715
    23  H    7.014280   7.362808   6.085263   2.568148   3.107425
    24  H    6.349705   4.831805   2.417028   3.128365   3.734189
                   21         22         23         24
    21  H    0.000000
    22  H    3.104836   0.000000
    23  H    2.554872   1.824281   0.000000
    24  H    4.302898   4.773324   5.261192   0.000000
 Stoichiometry    C9H12N2S
 Framework group  C1[X(C9H12N2S)]
 Deg. of freedom    66
 Full point group                 C1      NOp   1
 Largest Abelian subgroup         C1      NOp   1
 Largest concise Abelian subgroup C1      NOp   1
                         Standard orientation:                         
 ---------------------------------------------------------------------
 Center     Atomic      Atomic             Coordinates (Angstroms)
 Number     Number       Type             X           Y           Z
 ---------------------------------------------------------------------
      1          7           0       -1.399334    0.352469    1.663683
      2         16           0       -0.907150    0.697060    0.261779
      3          6           0        0.843097    0.196228    0.066359
      4          6           0        1.198294   -1.090183    0.426426
      5          6           0        2.518795   -1.488190    0.309607
      6          6           0        3.471483   -0.596989   -0.160195
      7          6           0        3.109130    0.694307   -0.506034
      8          6           0        1.787547    1.094483   -0.389892
      9          6           0       -1.656620   -0.561487   -0.820746
     10          6           0       -3.148215   -0.639172   -0.798917
     11          6           0       -2.332419   -1.712960   -0.155476
     12          7           0       -1.163101    2.147042   -0.161918
     13          1           0       -1.512835    1.158767    2.252858
     14          1           0        0.440596   -1.759187    0.802384
     15          1           0        2.806504   -2.491404    0.586851
     16          1           0        4.501464   -0.908881   -0.250848
     17          1           0        3.853754    1.390081   -0.863230
     18          1           0        1.485308    2.100461   -0.641556
     19          1           0       -1.105900   -0.689338   -1.741487
     20          1           0       -3.652477    0.059544   -0.148763
     21          1           0       -3.668869   -0.847322   -1.721912
     22          1           0       -2.295686   -1.717813    0.923201
     23          1           0       -2.274067   -2.684641   -0.623659
     24          1           0       -0.872884    2.363977   -1.101458
 ---------------------------------------------------------------------
 Rotational constants (GHZ):           1.6402938           0.5876109           0.5030249
 Standard basis: def2SVP (5D, 7F)
 There are   244 symmetry adapted cartesian basis functions of A   symmetry.
 There are   232 symmetry adapted basis functions of A   symmetry.
   232 basis functions,   396 primitive gaussians,   244 cartesian basis functions
    48 alpha electrons       48 beta electrons
       nuclear repulsion energy       812.3663540634 Hartrees.
 NAtoms=   24 NActive=   24 NUniq=   24 SFac= 1.00D+00 NAtFMM=   60 NAOKFM=F Big=F
 Integral buffers will be    131072 words long.
 Raffenetti 2 integral format.
 Two-electron integral symmetry is turned on.
 Nuclear repulsion after empirical dispersion term =      812.3392057432 Hartrees.
 One-electron integrals computed using PRISM.
   1 Symmetry operations used in ECPInt.
 ECPInt:  NShTT=    6105 NPrTT=   22357 LenC2=    5921 LenP2D=   16336.
 LDataN:  DoStor=T MaxTD1= 4 Len=   56
 NBasis=   232 RedAO= T EigKep=  2.71D-04  NBF=   232
 NBsUse=   232 1.00D-06 EigRej= -1.00D+00 NBFU=   232
 ExpMin= 1.22D-01 ExpMax= 9.18D+03 ExpMxC= 1.38D+03 IAcc=3 IRadAn=         5 AccDes= 0.00D+00
 Harris functional with IExCor= 1009 and IRadAn=       5 diagonalized for initial guess.
 HarFok:  IExCor= 1009 AccDes= 0.00D+00 IRadAn=         5 IDoV= 1 UseB2=F ITyADJ=14
 ICtDFT=  3500011 ScaDFX=  1.000000  1.000000  1.000000  1.000000
 FoFCou: FMM=F IPFlag=           0 FMFlag=      100000 FMFlg1=           0
         NFxFlg=           0 DoJE=T BraDBF=F KetDBF=T FulRan=T
         wScrn=  0.000000 ICntrl=       500 IOpCl=  0 I1Cent=   200000004 NGrid=           0
         NMat0=    1 NMatS0=      1 NMatT0=    0 NMatD0=    1 NMtDS0=    0 NMtDT0=    0
 Petite list used in FoFCou.
 Requested convergence on RMS density matrix=1.00D-08 within 128 cycles.
 Requested convergence on MAX density matrix=1.00D-06.
 Requested convergence on             energy=1.00D-06.
 No special actions if energy rises.
 Integral accuracy reduced to 1.0D-05 until final iterations.
 Initial convergence to 1.0D-05 achieved.  Increase integral accuracy.
 SCF Done:  E(RPBE1PBE) =  -856.592651212     A.U. after   15 cycles
            NFock= 15  Conv=0.52D-08     -V/T= 2.0062

 **********************************************************************

            Population analysis using the SCF Density.

 **********************************************************************

 Orbital symmetries:
       Occupied  (A) (A) (A) (A) (A) (A) (A) (A) (A) (A) (A) (A)
                 (A) (A) (A) (A) (A) (A) (A) (A) (A) (A) (A) (A)
                 (A) (A) (A) (A) (A) (A) (A) (A) (A) (A) (A) (A)
                 (A) (A) (A) (A) (A) (A) (A) (A) (A) (A) (A) (A)
       Virtual   (A) (A) (A) (A) (A) (A) (A) (A) (A) (A) (A) (A)
                 (A) (A) (A) (A) (A) (A) (A) (A) (A) (A) (A) (A)
                 (A) (A) (A) (A) (A) (A) (A) (A) (A) (A) (A) (A)
                 (A) (A) (A) (A) (A) (A) (A) (A) (A) (A) (A) (A)
                 (A) (A) (A) (A) (A) (A) (A) (A) (A) (A) (A) (A)
                 (A) (A) (A) (A) (A) (A) (A) (A) (A) (A) (A) (A)
                 (A) (A) (A) (A) (A) (A) (A) (A) (A) (A) (A) (A)
                 (A) (A) (A) (A) (A) (A) (A) (A) (A) (A) (A) (A)
                 (A) (A) (A) (A) (A) (A) (A) (A) (A) (A) (A) (A)
                 (A) (A) (A) (A) (A) (A) (A) (A) (A) (A) (A) (A)
                 (A) (A) (A) (A) (A) (A) (A) (A) (A) (A) (A) (A)
                 (A) (A) (A) (A) (A) (A) (A) (A) (A) (A) (A) (A)
                 (A) (A) (A) (A) (A) (A) (A) (A) (A) (A) (A) (A)
                 (A) (A) (A) (A) (A) (A) (A) (A) (A) (A) (A) (A)
                 (A) (A) (A) (A) (A) (A) (A) (A) (A) (A) (A) (A)
                 (A) (A) (A) (A)
 The electronic state is 1-A.
 Alpha  occ. eigenvalues --  -89.17879 -14.34417 -14.33621 -10.26882 -10.26133
 Alpha  occ. eigenvalues --  -10.25443 -10.25295 -10.25157 -10.25106 -10.25070
 Alpha  occ. eigenvalues --  -10.24820 -10.24502  -8.15324  -6.09443  -6.09358
 Alpha  occ. eigenvalues --   -6.09341  -1.00692  -0.89793  -0.89501  -0.84736
 Alpha  occ. eigenvalues --   -0.78890  -0.78160  -0.70080  -0.63970  -0.63150
 Alpha  occ. eigenvalues --   -0.62433  -0.59205  -0.56139  -0.53966  -0.51507
 Alpha  occ. eigenvalues --   -0.50171  -0.49181  -0.48220  -0.46454  -0.45280
 Alpha  occ. eigenvalues --   -0.42330  -0.40443  -0.39072  -0.38597  -0.37382
 Alpha  occ. eigenvalues --   -0.34490  -0.33482  -0.30382  -0.28759  -0.28403
 Alpha  occ. eigenvalues --   -0.27685  -0.25049  -0.24124
 Alpha virt. eigenvalues --   -0.02928  -0.01791   0.05274   0.06319   0.07301
 Alpha virt. eigenvalues --    0.08625   0.09589   0.10331   0.11395   0.11590
 Alpha virt. eigenvalues --    0.12520   0.13569   0.14609   0.15112   0.16414
 Alpha virt. eigenvalues --    0.16967   0.18162   0.18598   0.19433   0.21570
 Alpha virt. eigenvalues --    0.25080   0.26091   0.28537   0.29057   0.29907
 Alpha virt. eigenvalues --    0.32945   0.35645   0.37983   0.41086   0.41718
 Alpha virt. eigenvalues --    0.43004   0.44082   0.45262   0.46120   0.47413
 Alpha virt. eigenvalues --    0.48601   0.49012   0.50520   0.50877   0.52729
 Alpha virt. eigenvalues --    0.53635   0.55129   0.56092   0.56814   0.59291
 Alpha virt. eigenvalues --    0.60967   0.61817   0.61919   0.62939   0.64390
 Alpha virt. eigenvalues --    0.65104   0.66791   0.67073   0.67634   0.68131
 Alpha virt. eigenvalues --    0.68681   0.69378   0.70143   0.70587   0.71140
 Alpha virt. eigenvalues --    0.72144   0.73118   0.73529   0.74418   0.75025
 Alpha virt. eigenvalues --    0.75997   0.76441   0.78960   0.80785   0.82245
 Alpha virt. eigenvalues --    0.83493   0.85174   0.85675   0.88873   0.90164
 Alpha virt. eigenvalues --    0.91422   0.93243   0.96050   0.96522   0.98272
 Alpha virt. eigenvalues --    0.99245   1.03560   1.08400   1.11112   1.12288
 Alpha virt. eigenvalues --    1.14047   1.17039   1.20650   1.22577   1.23886
 Alpha virt. eigenvalues --    1.24815   1.25793   1.28046   1.29832   1.31445
 Alpha virt. eigenvalues --    1.31559   1.32919   1.40662   1.44955   1.46090
 Alpha virt. eigenvalues --    1.47215   1.50762   1.52674   1.53459   1.54826
 Alpha virt. eigenvalues --    1.63525   1.64017   1.67361   1.69595   1.70495
 Alpha virt. eigenvalues --    1.70882   1.71801   1.72910   1.73632   1.75199
 Alpha virt. eigenvalues --    1.75645   1.76114   1.77309   1.77719   1.80890
 Alpha virt. eigenvalues --    1.81580   1.83142   1.83431   1.86168   1.89967
 Alpha virt. eigenvalues --    1.90398   1.95453   1.97017   1.97872   1.98790
 Alpha virt. eigenvalues --    1.99434   2.00508   2.04796   2.09136   2.11755
 Alpha virt. eigenvalues --    2.12634   2.14788   2.15832   2.16552   2.17961
 Alpha virt. eigenvalues --    2.19219   2.21590   2.23794   2.27957   2.29077
 Alpha virt. eigenvalues --    2.30261   2.30813   2.31072   2.34132   2.36445
 Alpha virt. eigenvalues --    2.37497   2.39199   2.39995   2.41525   2.51601
 Alpha virt. eigenvalues --    2.55144   2.55493   2.58171   2.59606   2.62736
 Alpha virt. eigenvalues --    2.64105   2.64666   2.66083   2.66222   2.67544
 Alpha virt. eigenvalues --    2.75890   2.76028   2.77747   2.79769   2.85077
 Alpha virt. eigenvalues --    2.86114   2.87969   2.89379   2.91837   2.95735
 Alpha virt. eigenvalues --    3.00596   3.06516   3.06751   3.14606   3.16238
 Alpha virt. eigenvalues --    3.24426   3.26871   3.33873   3.65880
          Condensed to atoms (all electrons):
               1          2          3          4          5          6
     1  N    6.871397   0.402793  -0.070594   0.008910   0.000817  -0.000044
     2  S    0.402793  14.619148   0.113833  -0.045691  -0.000015   0.000313
     3  C   -0.070594   0.113833   5.852104   0.189123   0.118879  -0.189296
     4  C    0.008910  -0.045691   0.189123   5.128292   0.286783   0.097334
     5  C    0.000817  -0.000015   0.118879   0.286783   5.061082   0.263491
     6  C   -0.000044   0.000313  -0.189296   0.097334   0.263491   5.125692
     7  C   -0.000111   0.004683   0.096237  -0.135530   0.086994   0.269788
     8  C   -0.001871  -0.027043   0.252952   0.055181  -0.144834   0.098096
     9  C   -0.119364   0.175639  -0.120351  -0.013082  -0.001188  -0.000159
    10  C    0.007544  -0.018179   0.010179  -0.000036  -0.000026   0.000003
    11  C   -0.001327  -0.012167  -0.002726   0.000497   0.000345   0.000003
    12  N   -0.066434   0.362042  -0.060432   0.004363  -0.000017  -0.000024
    13  H    0.337061  -0.016737   0.002979  -0.001335  -0.000036   0.000004
    14  H    0.007839  -0.010734  -0.070914   0.448536  -0.056835   0.013356
    15  H    0.000002  -0.000147   0.017022  -0.072500   0.456128  -0.073761
    16  H   -0.000000   0.000020  -0.001492   0.014441  -0.068432   0.449390
    17  H    0.000003  -0.000139   0.017436  -0.002116   0.014485  -0.072993
    18  H   -0.000264  -0.006314  -0.082912   0.015863  -0.002079   0.013316
    19  H    0.004139  -0.018974   0.007591  -0.002023   0.000016  -0.000006
    20  H    0.013353  -0.000611   0.001568  -0.000019  -0.000000   0.000000
    21  H    0.000099   0.001379  -0.000138   0.000003   0.000000  -0.000000
    22  H    0.033779  -0.011169  -0.000190   0.000460   0.000162   0.000002
    23  H    0.000802   0.001837  -0.000216   0.000094  -0.000061  -0.000001
    24  H    0.005370  -0.004230  -0.003707  -0.000850  -0.000018  -0.000004
               7          8          9         10         11         12
     1  N   -0.000111  -0.001871  -0.119364   0.007544  -0.001327  -0.066434
     2  S    0.004683  -0.027043   0.175639  -0.018179  -0.012167   0.362042
     3  C    0.096237   0.252952  -0.120351   0.010179  -0.002726  -0.060432
     4  C   -0.135530   0.055181  -0.013082  -0.000036   0.000497   0.004363
     5  C    0.086994  -0.144834  -0.001188  -0.000026   0.000345  -0.000017
     6  C    0.269788   0.098096  -0.000159   0.000003   0.000003  -0.000024
     7  C    5.099790   0.238767  -0.000059   0.000001  -0.000016   0.001285
     8  C    0.238767   5.143000   0.005109  -0.000004  -0.000446   0.005354
     9  C   -0.000059   0.005109   5.720196   0.157414   0.143965  -0.043023
    10  C    0.000001  -0.000004   0.157414   4.820525   0.302925  -0.005450
    11  C   -0.000016  -0.000446   0.143965   0.302925   4.892614   0.005136
    12  N    0.001285   0.005354  -0.043023  -0.005450   0.005136   6.867301
    13  H   -0.000025   0.000585   0.008610   0.000094  -0.001029   0.004612
    14  H   -0.001640   0.013606   0.004176  -0.000666   0.002288   0.000286
    15  H    0.014588  -0.001986   0.000044  -0.000001  -0.000011   0.000001
    16  H   -0.068083   0.014412  -0.000000  -0.000000   0.000000  -0.000000
    17  H    0.454088  -0.070878   0.000008  -0.000000   0.000000  -0.000005
    18  H   -0.047267   0.425221   0.001796  -0.000014  -0.000081   0.023807
    19  H    0.000060   0.000466   0.360145  -0.006508  -0.004841   0.000561
    20  H   -0.000001  -0.000002  -0.027711   0.381384  -0.006841   0.004250
    21  H    0.000000  -0.000006  -0.003971   0.393296  -0.018462   0.000007
    22  H    0.000001  -0.000107  -0.012285  -0.004021   0.378843   0.000606
    23  H    0.000002   0.000032  -0.003160  -0.010737   0.365732  -0.000103
    24  H    0.000391   0.004309  -0.005383   0.000156   0.000115   0.304839
              13         14         15         16         17         18
     1  N    0.337061   0.007839   0.000002  -0.000000   0.000003  -0.000264
     2  S   -0.016737  -0.010734  -0.000147   0.000020  -0.000139  -0.006314
     3  C    0.002979  -0.070914   0.017022  -0.001492   0.017436  -0.082912
     4  C   -0.001335   0.448536  -0.072500   0.014441  -0.002116   0.015863
     5  C   -0.000036  -0.056835   0.456128  -0.068432   0.014485  -0.002079
     6  C    0.000004   0.013356  -0.073761   0.449390  -0.072993   0.013316
     7  C   -0.000025  -0.001640   0.014588  -0.068083   0.454088  -0.047267
     8  C    0.000585   0.013606  -0.001986   0.014412  -0.070878   0.425221
     9  C    0.008610   0.004176   0.000044  -0.000000   0.000008   0.001796
    10  C    0.000094  -0.000666  -0.000001  -0.000000  -0.000000  -0.000014
    11  C   -0.001029   0.002288  -0.000011   0.000000   0.000000  -0.000081
    12  N    0.004612   0.000286   0.000001  -0.000000  -0.000005   0.023807
    13  H    0.533565  -0.000123  -0.000000   0.000000  -0.000000   0.000072
    14  H   -0.000123   0.636122  -0.011733  -0.000240   0.000031  -0.000205
    15  H   -0.000000  -0.011733   0.662770  -0.012222  -0.000263   0.000045
    16  H    0.000000  -0.000240  -0.012222   0.662069  -0.012207  -0.000253
    17  H   -0.000000   0.000031  -0.000263  -0.012207   0.662460  -0.011887
    18  H    0.000072  -0.000205   0.000045  -0.000253  -0.011887   0.663549
    19  H   -0.000286  -0.000505   0.000002  -0.000001  -0.000003  -0.000101
    20  H   -0.000654  -0.000022  -0.000000   0.000000  -0.000000  -0.000011
    21  H    0.000023   0.000002  -0.000000   0.000000   0.000000   0.000001
    22  H   -0.001028   0.001122  -0.000007   0.000000  -0.000000  -0.000003
    23  H    0.000006   0.000529   0.000003  -0.000000  -0.000000   0.000004
    24  H   -0.000460  -0.000058   0.000000  -0.000000   0.000001  -0.000766
              19         20         21         22         23         24
     1  N    0.004139   0.013353   0.000099   0.033779   0.000802   0.005370
     2  S   -0.018974  -0.000611   0.001379  -0.011169   0.001837  -0.004230
     3  C    0.007591   0.001568  -0.000138  -0.000190  -0.000216  -0.003707
     4  C   -0.002023  -0.000019   0.000003   0.000460   0.000094  -0.000850
     5  C    0.000016  -0.000000   0.000000   0.000162  -0.000061  -0.000018
     6  C   -0.000006   0.000000  -0.000000   0.000002  -0.000001  -0.000004
     7  C    0.000060  -0.000001   0.000000   0.000001   0.000002   0.000391
     8  C    0.000466  -0.000002  -0.000006  -0.000107   0.000032   0.004309
     9  C    0.360145  -0.027711  -0.003971  -0.012285  -0.003160  -0.005383
    10  C   -0.006508   0.381384   0.393296  -0.004021  -0.010737   0.000156
    11  C   -0.004841  -0.006841  -0.018462   0.378843   0.365732   0.000115
    12  N    0.000561   0.004250   0.000007   0.000606  -0.000103   0.304839
    13  H   -0.000286  -0.000654   0.000023  -0.001028   0.000006  -0.000460
    14  H   -0.000505  -0.000022   0.000002   0.001122   0.000529  -0.000058
    15  H    0.000002  -0.000000  -0.000000  -0.000007   0.000003   0.000000
    16  H   -0.000001   0.000000   0.000000   0.000000  -0.000000  -0.000000
    17  H   -0.000003  -0.000000   0.000000  -0.000000  -0.000000   0.000001
    18  H   -0.000101  -0.000011   0.000001  -0.000003   0.000004  -0.000766
    19  H    0.587836   0.003458  -0.007979   0.003006  -0.007313   0.001549
    20  H    0.003458   0.583675  -0.024034  -0.007695   0.002911  -0.000082
    21  H   -0.007979  -0.024034   0.598037   0.002659  -0.009783   0.000021
    22  H    0.003006  -0.007695   0.002659   0.539058  -0.022610  -0.000065
    23  H   -0.007313   0.002911  -0.009783  -0.022610   0.619775  -0.000020
    24  H    0.001549  -0.000082   0.000021  -0.000065  -0.000020   0.581485
 Mulliken charges:
               1
     1  N   -0.433898
     2  S    0.490464
     3  C   -0.076934
     4  C    0.023303
     5  C   -0.015642
     6  C    0.005499
     7  C   -0.013942
     8  C   -0.009911
     9  C   -0.227364
    10  C   -0.027878
    11  C   -0.044515
    12  N   -0.408962
    13  H    0.134105
    14  H    0.025781
    15  H    0.022026
    16  H    0.022600
    17  H    0.021980
    18  H    0.008483
    19  H    0.079709
    20  H    0.077082
    21  H    0.068846
    22  H    0.099482
    23  H    0.062278
    24  H    0.117409
 Sum of Mulliken charges =  -0.00000
 Mulliken charges with hydrogens summed into heavy atoms:
               1
     1  N   -0.299793
     2  S    0.490464
     3  C   -0.076934
     4  C    0.049084
     5  C    0.006384
     6  C    0.028099
     7  C    0.008037
     8  C   -0.001428
     9  C   -0.147655
    10  C    0.118051
    11  C    0.117245
    12  N   -0.291553
 Electronic spatial extent (au):  <R**2>=           2354.4856
 Charge=              0.0000 electrons
 Dipole moment (field-independent basis, Debye):
    X=              2.0270    Y=             -1.8744    Z=             -2.6145  Tot=              3.8023
 Quadrupole moment (field-independent basis, Debye-Ang):
   XX=            -72.9056   YY=            -78.2363   ZZ=            -78.7415
   XY=              3.2360   XZ=              2.3892   YZ=             -1.1891
 Traceless Quadrupole moment (field-independent basis, Debye-Ang):
   XX=              3.7222   YY=             -1.6085   ZZ=             -2.1137
   XY=              3.2360   XZ=              2.3892   YZ=             -1.1891
 Octapole moment (field-independent basis, Debye-Ang**2):
  XXX=             21.6429  YYY=            -15.6722  ZZZ=             -1.8719  XYY=             12.3679
  XXY=             -7.0436  XXZ=            -11.0896  XZZ=            -11.9573  YZZ=             10.1669
  YYZ=             -2.2519  XYZ=             -9.3868
 Hexadecapole moment (field-independent basis, Debye-Ang**3):
 XXXX=          -2045.4465 YYYY=           -712.2801 ZZZZ=           -297.6861 XXXY=            -14.5421
 XXXZ=             -8.8901 YYYX=             19.5345 YYYZ=            -22.4667 ZZZX=              3.3965
 ZZZY=             17.9451 XXYY=           -473.6373 XXZZ=           -424.2423 YYZZ=           -148.2367
 XXYZ=             -1.1367 YYXZ=              1.3225 ZZXY=             -5.0540
 N-N= 8.123392057432D+02 E-N=-3.632731286442D+03  KE= 8.512833197082D+02
   1 Symmetry operations used in ECPInt.
 ECPInt:  NShTT=    6105 NPrTT=   22357 LenC2=    5921 LenP2D=   16336.
 LDataN:  DoStor=T MaxTD1= 5 Len=  102
 Calling FoFJK, ICntrl=      2127 FMM=F ISym2X=0 I1Cent= 0 IOpClX= 0 NMat=1 NMatS=1 NMatT=0.
 ***** Axes restored to original set *****
 -------------------------------------------------------------------
 Center     Atomic                   Forces (Hartrees/Bohr)
 Number     Number              X              Y              Z
 -------------------------------------------------------------------
      1        7          -0.002515979    0.021040607    0.007761419
      2       16           0.000683347    0.000908661    0.003135749
      3        6          -0.011873762   -0.003988252   -0.000290884
      4        6           0.000448090    0.002914742   -0.000403812
      5        6          -0.001208235    0.000029704    0.000354662
      6        6           0.001145640   -0.000530176   -0.000113552
      7        6          -0.000112867    0.000785501    0.000007139
      8        6          -0.002454603   -0.003268780   -0.000429824
      9        6          -0.001194164    0.000009645   -0.012573655
     10        6           0.007621951    0.003631086   -0.004187746
     11        6          -0.003264269   -0.004142154    0.004070844
     12        7          -0.001848420   -0.004258456   -0.006654557
     13        1           0.001294156   -0.010191263   -0.006859834
     14        1          -0.005389278    0.008545820   -0.000800523
     15        1           0.002808173    0.008662128    0.000849010
     16        1           0.008878190    0.001655192    0.001348248
     17        1           0.005760200   -0.007011177    0.000229303
     18        1          -0.003379376   -0.008771974   -0.001434171
     19        1           0.005522144   -0.002928868    0.007278252
     20        1          -0.005036639   -0.002624911   -0.009485461
     21        1          -0.001898396   -0.002150220    0.009084884
     22        1          -0.000261596    0.002089582   -0.010375774
     23        1           0.002076148    0.004699169    0.008603332
     24        1           0.004199545   -0.005105607    0.010886952
 -------------------------------------------------------------------
 Cartesian Forces:  Max     0.021040607 RMS     0.005701398

 GradGradGradGradGradGradGradGradGradGradGradGradGradGradGradGradGradGrad
 Berny optimization.
 FormGI is forming the generalized inverse of G from B-inverse, IUseBI=4.
 Internal  Forces:  Max     0.012622798 RMS     0.004488242
 Search for a local minimum.
 Step number   1 out of a maximum of  133
 All quantities printed in internal units (Hartrees-Bohrs-Radians)
 Mixed Optimization -- RFO/linear search
 Second derivative matrix not updated -- first step.
 ITU=  0
     Eigenvalues ---    0.00230   0.00230   0.01505   0.01952   0.02275
     Eigenvalues ---    0.02279   0.02282   0.02285   0.02295   0.02308
     Eigenvalues ---    0.02312   0.02328   0.02351   0.03192   0.03209
     Eigenvalues ---    0.03516   0.03608   0.03714   0.04029   0.06950
     Eigenvalues ---    0.07746   0.09271   0.10249   0.10632   0.11087
     Eigenvalues ---    0.15781   0.15999   0.15999   0.16000   0.16000
     Eigenvalues ---    0.16000   0.16000   0.16000   0.16000   0.16139
     Eigenvalues ---    0.17215   0.19495   0.21999   0.22000   0.23489
     Eigenvalues ---    0.23823   0.24501   0.24986   0.26274   0.29165
     Eigenvalues ---    0.33102   0.35938   0.35974   0.35979   0.35997
     Eigenvalues ---    0.35998   0.36008   0.36012   0.36063   0.36077
     Eigenvalues ---    0.36184   0.43593   0.43797   0.46481   0.46811
     Eigenvalues ---    0.48049   0.48237   0.48454   0.48742   0.66945
     Eigenvalues ---    0.68894
 RFO step:  Lambda=-8.37807913D-03 EMin= 2.30000000D-03
 Linear search not attempted -- first point.
 Iteration  1 RMS(Cart)=  0.05705300 RMS(Int)=  0.00130523
 Iteration  2 RMS(Cart)=  0.00176444 RMS(Int)=  0.00017026
 Iteration  3 RMS(Cart)=  0.00000233 RMS(Int)=  0.00017026
 Iteration  4 RMS(Cart)=  0.00000000 RMS(Int)=  0.00017026
 Variable       Old X    -DE/DX   Delta X   Delta X   Delta X     New X
                                 (Linear)    (Quad)   (Total)
    R1        2.88226   0.00598   0.00000   0.00857   0.00857   2.89084
    R2        1.89927   0.01074   0.00000   0.02255   0.02255   1.92182
    R3        3.46000  -0.00550   0.00000  -0.02231  -0.02231   3.43769
    R4        3.44195  -0.00816   0.00000  -0.03219  -0.03219   3.40976
    R5        2.89534   0.00813   0.00000   0.01199   0.01199   2.90733
    R6        2.61211   0.01262   0.00000   0.02571   0.02572   2.63783
    R7        2.60961   0.00899   0.00000   0.01821   0.01821   2.62782
    R8        2.61560   0.00849   0.00000   0.01736   0.01736   2.63296
    R9        2.03794   0.01000   0.00000   0.02701   0.02701   2.06495
   R10        2.62023   0.01044   0.00000   0.02128   0.02127   2.64151
   R11        2.04062   0.00914   0.00000   0.02481   0.02481   2.06543
   R12        2.61736   0.00969   0.00000   0.01953   0.01952   2.63688
   R13        2.04086   0.00913   0.00000   0.02479   0.02479   2.06565
   R14        2.61863   0.00934   0.00000   0.01901   0.01901   2.63763
   R15        2.04069   0.00908   0.00000   0.02463   0.02463   2.06532
   R16        2.04115   0.00950   0.00000   0.02582   0.02582   2.06696
   R17        2.82283  -0.00076   0.00000  -0.00382  -0.00412   2.81871
   R18        2.81891   0.00237   0.00000   0.00753   0.00725   2.82616
   R19        2.04178   0.00955   0.00000   0.02598   0.02598   2.06776
   R20        2.82358   0.00012   0.00000   0.00135   0.00194   2.82552
   R21        2.03984   0.01094   0.00000   0.02966   0.02966   2.06949
   R22        2.04084   0.00914   0.00000   0.02481   0.02481   2.06565
   R23        2.03961   0.01038   0.00000   0.02812   0.02812   2.06772
   R24        2.04122   0.00973   0.00000   0.02642   0.02642   2.06765
   R25        1.90293   0.01249   0.00000   0.02640   0.02640   1.92933
    A1        1.97578  -0.01111   0.00000  -0.06600  -0.06600   1.90978
    A2        1.92279  -0.00051   0.00000   0.00204   0.00219   1.92499
    A3        1.83111  -0.00321   0.00000  -0.01097  -0.01089   1.82022
    A4        1.99773   0.00661   0.00000   0.05161   0.05181   2.04954
    A5        1.71217   0.00397   0.00000   0.00447   0.00410   1.71626
    A6        1.97039  -0.00493   0.00000  -0.03564  -0.03589   1.93450
    A7        2.00515  -0.00240   0.00000  -0.01767  -0.01799   1.98716
    A8        2.06281   0.00409   0.00000   0.01524   0.01517   2.07799
    A9        2.10727  -0.00591   0.00000  -0.02347  -0.02352   2.08375
   A10        2.11259   0.00181   0.00000   0.00768   0.00765   2.12024
   A11        2.08378  -0.00179   0.00000  -0.00693  -0.00692   2.07687
   A12        2.08013   0.00251   0.00000   0.01306   0.01305   2.09318
   A13        2.11922  -0.00073   0.00000  -0.00617  -0.00618   2.11304
   A14        2.09356   0.00046   0.00000   0.00211   0.00210   2.09566
   A15        2.09401  -0.00044   0.00000  -0.00234  -0.00235   2.09166
   A16        2.09561  -0.00001   0.00000   0.00021   0.00020   2.09581
   A17        2.09912   0.00026   0.00000   0.00056   0.00055   2.09967
   A18        2.09220  -0.00017   0.00000  -0.00049  -0.00049   2.09171
   A19        2.09185  -0.00010   0.00000  -0.00008  -0.00008   2.09177
   A20        2.09188   0.00055   0.00000   0.00190   0.00190   2.09378
   A21        2.09773  -0.00011   0.00000   0.00002   0.00002   2.09775
   A22        2.09357  -0.00044   0.00000  -0.00192  -0.00192   2.09165
   A23        2.08531  -0.00130   0.00000  -0.00543  -0.00543   2.07988
   A24        2.08451   0.00047   0.00000   0.00162   0.00161   2.08612
   A25        2.11332   0.00083   0.00000   0.00377   0.00376   2.11708
   A26        2.02431  -0.00231   0.00000  -0.02536  -0.02516   1.99915
   A27        2.04287   0.00250   0.00000   0.03096   0.03116   2.07403
   A28        1.95898  -0.00115   0.00000  -0.00815  -0.00874   1.95024
   A29        2.11211   0.00233   0.00000   0.00926   0.00895   2.12106
   A30        2.11721  -0.00052   0.00000  -0.00253  -0.00274   2.11447
   A31        2.02819   0.00112   0.00000   0.00386   0.00393   2.03212
   A32        2.07023  -0.00300   0.00000  -0.02205  -0.02204   2.04819
   A33        2.04976   0.00106   0.00000  -0.00473  -0.00473   2.04503
   A34        2.08604  -0.00225   0.00000   0.00287   0.00295   2.08899
   A35        1.99798   0.00146   0.00000   0.01039   0.01029   2.00827
   A36        2.01947   0.00026   0.00000   0.00010   0.00011   2.01958
   A37        2.06759  -0.00157   0.00000  -0.01735  -0.01726   2.05034
   A38        2.04002  -0.00257   0.00000  -0.01246  -0.01239   2.02763
   A39        2.08210   0.00169   0.00000   0.00663   0.00659   2.08869
   A40        2.01230   0.00161   0.00000   0.01487   0.01482   2.02711
   A41        1.99736  -0.00466   0.00000  -0.02768  -0.02768   1.96968
    D1        1.86978  -0.00253   0.00000  -0.02417  -0.02392   1.84585
    D2       -2.58666   0.00032   0.00000  -0.02330  -0.02340  -2.61005
    D3       -0.37284  -0.00078   0.00000  -0.01974  -0.01988  -0.39272
    D4        0.87608  -0.00263   0.00000  -0.05308  -0.05300   0.82308
    D5       -2.23149  -0.00224   0.00000  -0.03516  -0.03515  -2.26664
    D6       -1.03021  -0.00070   0.00000  -0.04352  -0.04341  -1.07363
    D7        2.14541  -0.00030   0.00000  -0.02560  -0.02556   2.11985
    D8        3.13355   0.00188   0.00000  -0.01038  -0.01046   3.12308
    D9        0.02598   0.00228   0.00000   0.00754   0.00739   0.03337
   D10        1.01247   0.00126   0.00000  -0.00707  -0.00761   1.00485
   D11       -0.17450   0.00160   0.00000  -0.00775  -0.00738  -0.18187
   D12       -2.74097   0.00055   0.00000  -0.03779  -0.03769  -2.77866
   D13        2.99292   0.00124   0.00000  -0.00628  -0.00680   2.98613
   D14        1.80596   0.00158   0.00000  -0.00696  -0.00656   1.79940
   D15       -0.76051   0.00053   0.00000  -0.03700  -0.03687  -0.79738
   D16       -1.19678  -0.00318   0.00000  -0.05335  -0.05385  -1.25063
   D17       -2.38374  -0.00284   0.00000  -0.05403  -0.05361  -2.43735
   D18        1.33297  -0.00389   0.00000  -0.08407  -0.08392   1.24905
   D19       -3.09915   0.00074   0.00000   0.00577   0.00562  -3.09353
   D20        0.96563   0.00007   0.00000  -0.01047  -0.01000   0.95562
   D21       -0.97828  -0.00019   0.00000   0.01873   0.01841  -0.95987
   D22       -3.12323   0.00029   0.00000   0.00872   0.00894  -3.11429
   D23        0.00741   0.00013   0.00000   0.00478   0.00494   0.01235
   D24       -0.01577  -0.00026   0.00000  -0.00989  -0.00993  -0.02571
   D25        3.11487  -0.00042   0.00000  -0.01383  -0.01393   3.10093
   D26        3.12224  -0.00024   0.00000  -0.01219  -0.01203   3.11020
   D27       -0.00937  -0.00009   0.00000  -0.00722  -0.00710  -0.01647
   D28        0.01565   0.00013   0.00000   0.00613   0.00614   0.02179
   D29       -3.11596   0.00028   0.00000   0.01109   0.01107  -3.10488
   D30        0.00438   0.00023   0.00000   0.00780   0.00782   0.01220
   D31       -3.14006  -0.00001   0.00000   0.00021   0.00021  -3.13985
   D32       -3.12600   0.00037   0.00000   0.01170   0.01174  -3.11426
   D33        0.01274   0.00013   0.00000   0.00411   0.00413   0.01687
   D34        0.00692  -0.00009   0.00000  -0.00219  -0.00223   0.00469
   D35       -3.14158  -0.00014   0.00000  -0.00439  -0.00442   3.13719
   D36       -3.13182   0.00015   0.00000   0.00540   0.00540  -3.12642
   D37        0.00286   0.00010   0.00000   0.00321   0.00322   0.00608
   D38       -0.00705  -0.00005   0.00000  -0.00161  -0.00164  -0.00869
   D39        3.13181  -0.00008   0.00000  -0.00354  -0.00352   3.12829
   D40        3.14145   0.00000   0.00000   0.00058   0.00055  -3.14119
   D41       -0.00287  -0.00003   0.00000  -0.00135  -0.00134  -0.00421
   D42       -0.00412   0.00004   0.00000  -0.00027  -0.00023  -0.00435
   D43        3.12732  -0.00012   0.00000  -0.00534  -0.00527   3.12205
   D44        3.14019   0.00007   0.00000   0.00165   0.00165  -3.14135
   D45       -0.01155  -0.00009   0.00000  -0.00342  -0.00339  -0.01495
   D46        0.00560  -0.00281   0.00000  -0.05471  -0.05475  -0.04915
   D47        2.49468  -0.00289   0.00000  -0.06260  -0.06252   2.43216
   D48       -2.46684  -0.00054   0.00000  -0.01304  -0.01309  -2.47993
   D49        0.02224  -0.00061   0.00000  -0.02094  -0.02086   0.00138
   D50       -0.02935  -0.00057   0.00000  -0.02875  -0.02882  -0.05817
   D51       -2.52819  -0.00163   0.00000  -0.03072  -0.03087  -2.55906
   D52        2.48209   0.00050   0.00000   0.00374   0.00393   2.48602
   D53       -0.01675  -0.00055   0.00000   0.00177   0.00188  -0.01487
   D54       -0.00524  -0.00010   0.00000  -0.00361  -0.00359  -0.00883
   D55        2.55148   0.00168   0.00000   0.01720   0.01732   2.56880
   D56       -2.55615  -0.00109   0.00000  -0.02222  -0.02232  -2.57846
   D57        0.00058   0.00069   0.00000  -0.00140  -0.00141  -0.00083
         Item               Value     Threshold  Converged?
 Maximum Force            0.012623     0.000450     NO 
 RMS     Force            0.004488     0.000300     NO 
 Maximum Displacement     0.198120     0.001800     NO 
 RMS     Displacement     0.057592     0.001200     NO 
 Predicted change in Energy=-4.442888D-03
 GradGradGradGradGradGradGradGradGradGradGradGradGradGradGradGradGradGrad

                          Input orientation:                          
 ---------------------------------------------------------------------
 Center     Atomic      Atomic             Coordinates (Angstroms)
 Number     Number       Type             X           Y           Z
 ---------------------------------------------------------------------
      1          7           0       -1.470299    0.445435   -1.578861
      2         16           0       -0.972293   -0.453003   -0.445292
      3          6           0        0.798375   -0.165017   -0.143483
      4          6           0        1.264135    1.146879   -0.041127
      5          6           0        2.625627    1.366673    0.157175
      6          6           0        3.505768    0.283616    0.236263
      7          6           0        3.028761   -1.021777    0.111845
      8          6           0        1.665565   -1.250349   -0.082171
      9          6           0       -1.621462    0.317449    1.051616
     10          6           0       -3.105232    0.467806    1.077578
     11          6           0       -2.235385    1.677716    0.954629
     12          7           0       -1.271816   -1.958391   -0.550401
     13          1           0       -1.608026   -0.113164   -2.417463
     14          1           0        0.565268    1.982105   -0.130762
     15          1           0        3.005121    2.388230    0.240919
     16          1           0        4.573769    0.460477    0.387774
     17          1           0        3.720217   -1.866700    0.161528
     18          1           0        1.270445   -2.263387   -0.200531
     19          1           0       -1.061758    0.011134    1.940546
     20          1           0       -3.643633    0.145649    0.180000
     21          1           0       -3.614559    0.260902    2.022369
     22          1           0       -2.197307    2.146405   -0.033367
     23          1           0       -2.115464    2.347921    1.811140
     24          1           0       -0.948357   -2.484750    0.262420
 ---------------------------------------------------------------------
                    Distance matrix (angstroms):
                    1          2          3          4          5
     1  N    0.000000
     2  S    1.529765   0.000000
     3  C    2.753152   1.819145   0.000000
     4  C    3.214619   2.779312   1.395880   0.000000
     5  C    4.543029   4.076667   2.403190   1.393304   0.000000
     6  C    5.299255   4.589134   2.770461   2.418075   1.397825
     7  C    5.025210   4.079502   2.402884   2.800067   2.422657
     8  C    3.866446   2.779552   1.390583   2.430953   2.797823
     9  C    2.637924   1.804370   2.741650   3.195107   4.465273
    10  C    3.119323   2.777850   4.138793   4.561141   5.873487
    11  C    2.919322   2.845196   3.715537   3.676949   4.935800
    12  N    2.622118   1.538491   2.769019   4.041424   5.171729
    13  H    1.016983   2.099787   3.311260   3.934970   5.171315
    14  H    2.932895   2.897027   2.159776   1.092727   2.169504
    15  H    5.207248   4.935920   3.396552   2.156742   1.092980
    16  H    6.355993   5.682187   3.863558   3.407167   2.160931
    17  H    5.942759   4.938261   3.394984   3.892951   3.413627
    18  H    4.092577   2.892624   2.151572   3.413995   3.891248
    19  H    3.569559   2.432211   2.798982   3.259865   4.314477
    20  H    2.811911   2.808101   4.464593   5.013735   6.387100
    21  H    4.195326   3.685184   4.934198   5.370719   6.606179
    22  H    2.410475   2.902975   3.785355   3.602873   4.889272
    23  H    3.940532   3.774056   4.315769   4.036717   5.116287
    24  H    3.499818   2.151610   2.932062   4.263331   5.255274
                    6          7          8          9         10
     6  C    0.000000
     7  C    1.395374   0.000000
     8  C    2.416774   1.395776   0.000000
     9  C    5.191766   4.929632   3.814185   0.000000
    10  C    6.666863   6.385716   5.201690   1.491595   0.000000
    11  C    5.951504   5.975682   4.986575   1.495538   1.495203
    12  N    5.335799   4.450930   3.057576   2.805024   3.449372
    13  H    5.774997   5.359363   4.178896   3.495729   3.846358
    14  H    3.415569   3.892424   3.414934   2.991803   4.150392
    15  H    2.163346   3.412531   3.890765   5.133287   6.459446
    16  H    1.093097   2.158765   3.406674   6.232338   7.709925
    17  H    2.162276   1.092920   2.158906   5.839204   7.271576
    18  H    3.416824   2.175051   1.093790   4.073293   5.314088
    19  H    4.882737   4.598195   3.622294   1.094210   2.264741
    20  H    7.150954   6.774095   5.495919   2.208711   1.095129
    21  H    7.340964   7.030581   5.881554   2.217655   1.093093
    22  H    6.005643   6.113121   5.144132   2.203149   2.208217
    23  H    6.191917   6.380087   5.552329   2.223450   2.247795
    24  H    5.244404   4.240334   2.911199   2.988013   3.746222
                   11         12         13         14         15
    11  C    0.000000
    12  N    4.051524   0.000000
    13  H    3.869345   2.646473   0.000000
    14  H    3.019003   4.367892   3.787130   0.000000
    15  H    5.336395   6.149105   5.882609   2.501193   0.000000
    16  H    6.940286   6.395465   6.812710   4.318833   2.489669
    17  H    6.975750   5.043377   6.173836   4.985222   4.315333
    18  H    5.399771   2.584284   4.221829   4.304224   4.984127
    19  H    2.264272   3.182448   4.393872   3.289720   5.007876
    20  H    2.220460   3.253611   3.310211   4.602607   7.017037
    21  H    2.247121   4.127087   4.886533   5.006941   7.177691
    22  H    1.094192   4.239482   3.337187   2.769169   5.215263
    23  H    1.094151   4.983266   4.918894   3.330334   5.356081
    24  H    4.411543   1.020959   3.638867   4.732699   6.275061
                   16         17         18         19         20
    16  H    0.000000
    17  H    2.489075   0.000000
    18  H    4.321746   2.507953   0.000000
    19  H    5.862779   5.436768   3.898311   0.000000
    20  H    8.226055   7.633883   5.486021   3.127890   0.000000
    21  H    8.352272   7.860557   5.930985   2.566296   1.846199
    22  H    6.990507   7.152628   5.612443   3.121729   2.477985
    23  H    7.094664   7.385081   6.064269   2.566635   3.137821
    24  H    6.259709   4.710387   2.277369   3.009719   3.767002
                   21         22         23         24
    21  H    0.000000
    22  H    3.128862   0.000000
    23  H    2.578285   1.857287   0.000000
    24  H    4.212441   4.805722   5.207243   0.000000
 Stoichiometry    C9H12N2S
 Framework group  C1[X(C9H12N2S)]
 Deg. of freedom    66
 Full point group                 C1      NOp   1
 Largest Abelian subgroup         C1      NOp   1
 Largest concise Abelian subgroup C1      NOp   1
                         Standard orientation:                         
 ---------------------------------------------------------------------
 Center     Atomic      Atomic             Coordinates (Angstroms)
 Number     Number       Type             X           Y           Z
 ---------------------------------------------------------------------
      1          7           0       -1.409075    0.267784    1.676036
      2         16           0       -0.906886    0.676614    0.290090
      3          6           0        0.827819    0.173329    0.073779
      4          6           0        1.207131   -1.122383    0.428367
      5          6           0        2.542550   -1.496080    0.293085
      6          6           0        3.483292   -0.575513   -0.177527
      7          6           0        3.093331    0.722622   -0.508958
      8          6           0        1.756565    1.103154   -0.380730
      9          6           0       -1.667090   -0.517194   -0.829135
     10          6           0       -3.157008   -0.558600   -0.771820
     11          6           0       -2.358629   -1.710024   -0.249857
     12          7           0       -1.108422    2.142009   -0.132940
     13          1           0       -1.475363    1.091806    2.268361
     14          1           0        0.462841   -1.820864    0.818507
     15          1           0        2.854503   -2.507666    0.565086
     16          1           0        4.530745   -0.871401   -0.278303
     17          1           0        3.832577    1.444612   -0.864937
     18          1           0        1.430023    2.119967   -0.617026
     19          1           0       -1.129066   -0.581122   -1.779786
     20          1           0       -3.634780    0.094173   -0.033626
     21          1           0       -3.693523   -0.656957   -1.719094
     22          1           0       -2.306220   -1.806947    0.838773
     23          1           0       -2.317741   -2.643292   -0.819512
     24          1           0       -0.789112    2.327453   -1.084785
 ---------------------------------------------------------------------
 Rotational constants (GHZ):           1.6469358           0.5857973           0.5035755
 Standard basis: def2SVP (5D, 7F)
 There are   244 symmetry adapted cartesian basis functions of A   symmetry.
 There are   232 symmetry adapted basis functions of A   symmetry.
   232 basis functions,   396 primitive gaussians,   244 cartesian basis functions
    48 alpha electrons       48 beta electrons
       nuclear repulsion energy       811.2938940495 Hartrees.
 NAtoms=   24 NActive=   24 NUniq=   24 SFac= 1.00D+00 NAtFMM=   60 NAOKFM=F Big=F
 Integral buffers will be    131072 words long.
 Raffenetti 2 integral format.
 Two-electron integral symmetry is turned on.
 Nuclear repulsion after empirical dispersion term =      811.2667308050 Hartrees.
 One-electron integrals computed using PRISM.
   1 Symmetry operations used in ECPInt.
 ECPInt:  NShTT=    6105 NPrTT=   22357 LenC2=    5921 LenP2D=   16339.
 LDataN:  DoStor=T MaxTD1= 4 Len=   56
 NBasis=   232 RedAO= T EigKep=  2.92D-04  NBF=   232
 NBsUse=   232 1.00D-06 EigRej= -1.00D+00 NBFU=   232
 Initial guess from the checkpoint file:  "SDI0122_3.chk"
 B after Tr=    -0.000000    0.000000   -0.000000
         Rot=    0.999878   -0.015556   -0.000646    0.001088 Ang=  -1.79 deg.
 ExpMin= 1.22D-01 ExpMax= 9.18D+03 ExpMxC= 1.38D+03 IAcc=3 IRadAn=         5 AccDes= 0.00D+00
 Harris functional with IExCor= 1009 and IRadAn=       5 diagonalized for initial guess.
 HarFok:  IExCor= 1009 AccDes= 0.00D+00 IRadAn=         5 IDoV= 1 UseB2=F ITyADJ=14
 ICtDFT=  3500011 ScaDFX=  1.000000  1.000000  1.000000  1.000000
 FoFCou: FMM=F IPFlag=           0 FMFlag=      100000 FMFlg1=           0
         NFxFlg=           0 DoJE=T BraDBF=F KetDBF=T FulRan=T
         wScrn=  0.000000 ICntrl=       500 IOpCl=  0 I1Cent=   200000004 NGrid=           0
         NMat0=    1 NMatS0=      1 NMatT0=    0 NMatD0=    1 NMtDS0=    0 NMtDT0=    0
 Petite list used in FoFCou.
 Requested convergence on RMS density matrix=1.00D-08 within 128 cycles.
 Requested convergence on MAX density matrix=1.00D-06.
 Requested convergence on             energy=1.00D-06.
 No special actions if energy rises.
 Integral accuracy reduced to 1.0D-05 until final iterations.
 Initial convergence to 1.0D-05 achieved.  Increase integral accuracy.
 SCF Done:  E(RPBE1PBE) =  -856.596993969     A.U. after   12 cycles
            NFock= 12  Conv=0.68D-08     -V/T= 2.0067
   1 Symmetry operations used in ECPInt.
 ECPInt:  NShTT=    6105 NPrTT=   22357 LenC2=    5921 LenP2D=   16339.
 LDataN:  DoStor=T MaxTD1= 5 Len=  102
 Calling FoFJK, ICntrl=      2127 FMM=F ISym2X=0 I1Cent= 0 IOpClX= 0 NMat=1 NMatS=1 NMatT=0.
 ***** Axes restored to original set *****
 -------------------------------------------------------------------
 Center     Atomic                   Forces (Hartrees/Bohr)
 Number     Number              X              Y              Z
 -------------------------------------------------------------------
      1        7          -0.006051032    0.005101161   -0.003483478
      2       16           0.006754222   -0.000168248    0.012000752
      3        6          -0.000498115   -0.000093731   -0.001152385
      4        6           0.001373034   -0.000838341   -0.000180800
      5        6          -0.000670274   -0.000919459   -0.000047514
      6        6          -0.000534514   -0.000723686   -0.000223760
      7        6           0.000002568    0.001318182    0.000231311
      8        6           0.000626551    0.000192714    0.000411293
      9        6           0.001575058   -0.001121505   -0.004576821
     10        6          -0.002291413    0.000039037    0.001156711
     11        6          -0.000220995    0.001754535    0.000345240
     12        7          -0.002617910   -0.003510224   -0.002912514
     13        1           0.001860321   -0.001995734   -0.002226968
     14        1           0.000317570   -0.000374231   -0.000069264
     15        1          -0.000030235   -0.000285624    0.000017910
     16        1          -0.000355678   -0.000033547   -0.000055232
     17        1          -0.000058696    0.000274276   -0.000014273
     18        1           0.000242109    0.000943125   -0.000391522
     19        1          -0.000717375   -0.000590249   -0.000016887
     20        1           0.000957798    0.000557952   -0.000057194
     21        1           0.000201895    0.000093305   -0.000020078
     22        1           0.000002748   -0.000745999    0.000159516
     23        1          -0.000099909   -0.001003466    0.000172272
     24        1           0.000232271    0.002129758    0.000933684
 -------------------------------------------------------------------
 Cartesian Forces:  Max     0.012000752 RMS     0.002231864

 GradGradGradGradGradGradGradGradGradGradGradGradGradGradGradGradGradGrad
 Berny optimization.
 Using GEDIIS/GDIIS optimizer.
 FormGI is forming the generalized inverse of G from B-inverse, IUseBI=4.
 Internal  Forces:  Max     0.007417889 RMS     0.001070363
 Search for a local minimum.
 Step number   2 out of a maximum of  133
 All quantities printed in internal units (Hartrees-Bohrs-Radians)
 Mixed Optimization -- RFO/linear search
 Update second derivatives using D2CorX and points    1    2
 DE= -4.34D-03 DEPred=-4.44D-03 R= 9.77D-01
 TightC=F SS=  1.41D+00  RLast= 2.49D-01 DXNew= 5.0454D-01 7.4701D-01
 Trust test= 9.77D-01 RLast= 2.49D-01 DXMaxT set to 5.05D-01
 ITU=  1  0
 Use linear search instead of GDIIS.
     Eigenvalues ---    0.00229   0.00232   0.01516   0.01959   0.02275
     Eigenvalues ---    0.02279   0.02282   0.02285   0.02296   0.02306
     Eigenvalues ---    0.02312   0.02325   0.02353   0.03185   0.03206
     Eigenvalues ---    0.03499   0.03539   0.03716   0.04018   0.07260
     Eigenvalues ---    0.08032   0.09335   0.10157   0.10684   0.11090
     Eigenvalues ---    0.14779   0.15704   0.15998   0.15998   0.15999
     Eigenvalues ---    0.16000   0.16000   0.16000   0.16094   0.16321
     Eigenvalues ---    0.17310   0.19284   0.21993   0.21999   0.23545
     Eigenvalues ---    0.23840   0.24098   0.25000   0.26345   0.29269
     Eigenvalues ---    0.33074   0.35926   0.35963   0.35979   0.35997
     Eigenvalues ---    0.36004   0.36011   0.36042   0.36072   0.36164
     Eigenvalues ---    0.37249   0.43679   0.43847   0.45980   0.46681
     Eigenvalues ---    0.48044   0.48278   0.48734   0.50434   0.66543
     Eigenvalues ---    0.69343
 RFO step:  Lambda=-1.00791516D-03 EMin= 2.28825741D-03
 Quartic linear search produced a step of  0.04010.
 Iteration  1 RMS(Cart)=  0.06004485 RMS(Int)=  0.00191055
 Iteration  2 RMS(Cart)=  0.00258600 RMS(Int)=  0.00002729
 Iteration  3 RMS(Cart)=  0.00000356 RMS(Int)=  0.00002720
 Iteration  4 RMS(Cart)=  0.00000000 RMS(Int)=  0.00002720
 Variable       Old X    -DE/DX   Delta X   Delta X   Delta X     New X
                                 (Linear)    (Quad)   (Total)
    R1        2.89084   0.00742   0.00034   0.01156   0.01190   2.90274
    R2        1.92182   0.00268   0.00090   0.00702   0.00792   1.92974
    R3        3.43769   0.00007  -0.00089  -0.00076  -0.00165   3.43604
    R4        3.40976  -0.00258  -0.00129  -0.01239  -0.01368   3.39608
    R5        2.90733   0.00195   0.00048   0.00360   0.00408   2.91141
    R6        2.63783  -0.00108   0.00103  -0.00100   0.00003   2.63786
    R7        2.62782  -0.00043   0.00073   0.00006   0.00079   2.62862
    R8        2.63296  -0.00117   0.00070  -0.00170  -0.00100   2.63196
    R9        2.06495  -0.00048   0.00108  -0.00007   0.00101   2.06597
   R10        2.64151  -0.00116   0.00085  -0.00154  -0.00069   2.64081
   R11        2.06543  -0.00028   0.00100   0.00041   0.00141   2.06684
   R12        2.63688  -0.00191   0.00078  -0.00318  -0.00240   2.63447
   R13        2.06565  -0.00036   0.00099   0.00017   0.00116   2.06682
   R14        2.63763  -0.00051   0.00076  -0.00013   0.00063   2.63827
   R15        2.06532  -0.00025   0.00099   0.00048   0.00147   2.06679
   R16        2.06696  -0.00092   0.00104  -0.00139  -0.00035   2.06661
   R17        2.81871   0.00144  -0.00017   0.00409   0.00389   2.82259
   R18        2.82616   0.00040   0.00029   0.00107   0.00133   2.82749
   R19        2.06776  -0.00022   0.00104   0.00064   0.00168   2.06944
   R20        2.82552  -0.00054   0.00008  -0.00083  -0.00069   2.82483
   R21        2.06949  -0.00059   0.00119  -0.00025   0.00094   2.07044
   R22        2.06565  -0.00013   0.00099   0.00083   0.00183   2.06747
   R23        2.06772  -0.00046   0.00113   0.00004   0.00117   2.06889
   R24        2.06765  -0.00049   0.00106  -0.00013   0.00093   2.06858
   R25        1.92933  -0.00028   0.00106   0.00066   0.00172   1.93106
    A1        1.90978  -0.00208  -0.00265  -0.01650  -0.01915   1.89063
    A2        1.92499   0.00021   0.00009   0.00528   0.00530   1.93029
    A3        1.82022   0.00055  -0.00044   0.00308   0.00251   1.82273
    A4        2.04954  -0.00114   0.00208  -0.01451  -0.01244   2.03709
    A5        1.71626   0.00162   0.00016   0.01720   0.01732   1.73359
    A6        1.93450   0.00017  -0.00144   0.00200   0.00060   1.93510
    A7        1.98716  -0.00093  -0.00072  -0.00754  -0.00833   1.97883
    A8        2.07799   0.00065   0.00061   0.00332   0.00392   2.08190
    A9        2.08375   0.00037  -0.00094   0.00026  -0.00069   2.08307
   A10        2.12024  -0.00102   0.00031  -0.00381  -0.00351   2.11673
   A11        2.07687   0.00045  -0.00028   0.00162   0.00134   2.07821
   A12        2.09318  -0.00023   0.00052  -0.00042   0.00010   2.09328
   A13        2.11304  -0.00021  -0.00025  -0.00119  -0.00143   2.11161
   A14        2.09566   0.00032   0.00008   0.00121   0.00129   2.09696
   A15        2.09166  -0.00008  -0.00009  -0.00018  -0.00027   2.09139
   A16        2.09581  -0.00024   0.00001  -0.00105  -0.00104   2.09477
   A17        2.09967  -0.00025   0.00002  -0.00146  -0.00143   2.09824
   A18        2.09171   0.00010  -0.00002   0.00054   0.00052   2.09223
   A19        2.09177   0.00015  -0.00000   0.00090   0.00090   2.09267
   A20        2.09378   0.00007   0.00008   0.00035   0.00043   2.09420
   A21        2.09775  -0.00017   0.00000  -0.00099  -0.00099   2.09677
   A22        2.09165   0.00010  -0.00008   0.00062   0.00054   2.09219
   A23        2.07988   0.00044  -0.00022   0.00195   0.00172   2.08160
   A24        2.08612  -0.00039   0.00006  -0.00219  -0.00214   2.08399
   A25        2.11708  -0.00004   0.00015   0.00015   0.00029   2.11738
   A26        1.99915   0.00114  -0.00101   0.00036  -0.00065   1.99849
   A27        2.07403   0.00145   0.00125   0.01425   0.01550   2.08952
   A28        1.95024  -0.00083  -0.00035  -0.00520  -0.00569   1.94455
   A29        2.12106  -0.00047   0.00036  -0.00613  -0.00582   2.11524
   A30        2.11447  -0.00037  -0.00011  -0.00035  -0.00052   2.11395
   A31        2.03212  -0.00057   0.00016  -0.00373  -0.00357   2.02855
   A32        2.04819   0.00022  -0.00088   0.00023  -0.00065   2.04755
   A33        2.04503   0.00000  -0.00019  -0.00482  -0.00501   2.04002
   A34        2.08899  -0.00041   0.00012   0.00048   0.00060   2.08959
   A35        2.00827   0.00047   0.00041   0.00484   0.00525   2.01352
   A36        2.01958  -0.00061   0.00000  -0.00256  -0.00255   2.01703
   A37        2.05034  -0.00021  -0.00069  -0.00436  -0.00505   2.04529
   A38        2.02763   0.00003  -0.00050  -0.00096  -0.00145   2.02618
   A39        2.08869  -0.00077   0.00026  -0.00348  -0.00322   2.08547
   A40        2.02711   0.00071   0.00059   0.00620   0.00679   2.03390
   A41        1.96968  -0.00436  -0.00111  -0.02939  -0.03050   1.93918
    D1        1.84585  -0.00212  -0.00096  -0.04403  -0.04498   1.80087
    D2       -2.61005   0.00003  -0.00094  -0.02139  -0.02233  -2.63239
    D3       -0.39272  -0.00156  -0.00080  -0.03916  -0.03995  -0.43268
    D4        0.82308   0.00082  -0.00213   0.00511   0.00302   0.82609
    D5       -2.26664   0.00091  -0.00141   0.01027   0.00889  -2.25775
    D6       -1.07363  -0.00057  -0.00174  -0.00732  -0.00907  -1.08269
    D7        2.11985  -0.00047  -0.00103  -0.00217  -0.00320   2.11665
    D8        3.12308  -0.00041  -0.00042  -0.00847  -0.00892   3.11416
    D9        0.03337  -0.00032   0.00030  -0.00332  -0.00304   0.03032
   D10        1.00485  -0.00099  -0.00031  -0.10023  -0.10061   0.90424
   D11       -0.18187  -0.00115  -0.00030  -0.10259  -0.10287  -0.28474
   D12       -2.77866  -0.00141  -0.00151  -0.11684  -0.11836  -2.89702
   D13        2.98613  -0.00006  -0.00027  -0.08789  -0.08818   2.89795
   D14        1.79940  -0.00022  -0.00026  -0.09025  -0.09044   1.70896
   D15       -0.79738  -0.00048  -0.00148  -0.10450  -0.10593  -0.90331
   D16       -1.25063   0.00070  -0.00216  -0.07867  -0.08089  -1.33152
   D17       -2.43735   0.00054  -0.00215  -0.08103  -0.08315  -2.52050
   D18        1.24905   0.00028  -0.00337  -0.09528  -0.09864   1.15041
   D19       -3.09353   0.00047   0.00023   0.01277   0.01295  -3.08058
   D20        0.95562   0.00101  -0.00040   0.01617   0.01578   0.97140
   D21       -0.95987  -0.00056   0.00074  -0.00195  -0.00117  -0.96104
   D22       -3.11429  -0.00007   0.00036  -0.00153  -0.00116  -3.11545
   D23        0.01235  -0.00004   0.00020  -0.00035  -0.00014   0.01221
   D24       -0.02571  -0.00012  -0.00040  -0.00666  -0.00706  -0.03276
   D25        3.10093  -0.00009  -0.00056  -0.00548  -0.00604   3.09490
   D26        3.11020   0.00007  -0.00048   0.00097   0.00051   3.11071
   D27       -0.01647   0.00023  -0.00028   0.00809   0.00782  -0.00865
   D28        0.02179   0.00011   0.00025   0.00603   0.00627   0.02806
   D29       -3.10488   0.00027   0.00044   0.01315   0.01358  -3.09130
   D30        0.01220   0.00008   0.00031   0.00355   0.00387   0.01607
   D31       -3.13985   0.00005   0.00001   0.00223   0.00224  -3.13761
   D32       -3.11426   0.00004   0.00047   0.00235   0.00283  -3.11144
   D33        0.01687   0.00002   0.00017   0.00103   0.00120   0.01807
   D34        0.00469   0.00001  -0.00009   0.00014   0.00005   0.00474
[...]
 Alpha virt. eigenvalues --    2.39646   2.40931   2.41722   2.43612   2.44761
 Alpha virt. eigenvalues --    2.46723   2.47602   2.49670   2.49931   2.50900
 Alpha virt. eigenvalues --    2.51582   2.53087   2.54035   2.55405   2.56826
 Alpha virt. eigenvalues --    2.57654   2.58824   2.59724   2.61342   2.62551
 Alpha virt. eigenvalues --    2.63033   2.64202   2.64628   2.65900   2.66378
 Alpha virt. eigenvalues --    2.67332   2.67867   2.68590   2.69997   2.71492
 Alpha virt. eigenvalues --    2.71679   2.74152   2.74365   2.75715   2.76959
 Alpha virt. eigenvalues --    2.77370   2.78649   2.79602   2.80388   2.83343
 Alpha virt. eigenvalues --    2.84314   2.84604   2.84869   2.86503   2.88812
 Alpha virt. eigenvalues --    2.90287   2.91043   2.92608   2.93826   2.98734
 Alpha virt. eigenvalues --    2.99217   3.01320   3.02057   3.03876   3.05574
 Alpha virt. eigenvalues --    3.07975   3.10370   3.10448   3.11700   3.11972
 Alpha virt. eigenvalues --    3.13130   3.13710   3.14391   3.14470   3.15984
 Alpha virt. eigenvalues --    3.17381   3.18835   3.19658   3.20602   3.22841
 Alpha virt. eigenvalues --    3.24633   3.26829   3.27515   3.29071   3.31115
 Alpha virt. eigenvalues --    3.32691   3.34554   3.34889   3.36404   3.37047
 Alpha virt. eigenvalues --    3.38261   3.39904   3.42988   3.43940   3.44868
 Alpha virt. eigenvalues --    3.45527   3.47115   3.48539   3.50525   3.52350
 Alpha virt. eigenvalues --    3.53385   3.54250   3.55671   3.57785   3.58168
 Alpha virt. eigenvalues --    3.65533   3.67850   3.68405   3.69955   3.71681
 Alpha virt. eigenvalues --    3.72572   3.74061   3.75647   3.78149   3.82572
 Alpha virt. eigenvalues --    3.87101   3.88402   3.91817   3.93670   3.94372
 Alpha virt. eigenvalues --    3.99407   4.00710   4.02063   4.02375   4.04723
 Alpha virt. eigenvalues --    4.06223   4.07050   4.08225   4.09450   4.10538
 Alpha virt. eigenvalues --    4.11536   4.13066   4.15056   4.18184   4.19070
 Alpha virt. eigenvalues --    4.19788   4.20884   4.21121   4.22036   4.24040
 Alpha virt. eigenvalues --    4.25579   4.26276   4.27343   4.30886   4.31741
 Alpha virt. eigenvalues --    4.35054   4.35761   4.37563   4.40358   4.42918
 Alpha virt. eigenvalues --    4.44114   4.47607   4.49410   4.52695   4.57489
 Alpha virt. eigenvalues --    4.59945   4.61771   4.62928   4.64745   4.66659
 Alpha virt. eigenvalues --    4.70135   4.70635   4.71914   4.79772   4.81706
 Alpha virt. eigenvalues --    4.84924   4.85902   4.88532   4.90122   4.91849
 Alpha virt. eigenvalues --    4.92707   4.95451   4.99291   5.03829   5.08644
 Alpha virt. eigenvalues --    5.14784   5.16687   5.17825   5.21209   5.25274
 Alpha virt. eigenvalues --    5.27605   5.28534   5.35130   5.39837   5.56934
 Alpha virt. eigenvalues --    5.58080   5.60118   9.47932   9.58154   9.67017
 Alpha virt. eigenvalues --   21.89078  22.02812  22.47100  22.52144  22.58790
 Alpha virt. eigenvalues --   22.62833  22.65674  22.76611  22.83912  23.15703
 Alpha virt. eigenvalues --   31.95727  31.97474
          Condensed to atoms (all electrons):
               1          2          3          4          5          6
     1  N    6.912170   0.556779  -0.084424   0.035844  -0.000774  -0.000153
     2  S    0.556779  13.981179   0.270185   0.001030   0.004210  -0.001285
     3  C   -0.084424   0.270185   5.500076   0.363762   0.041357  -0.092544
     4  C    0.035844   0.001030   0.363762   5.112858   0.433826   0.008162
     5  C   -0.000774   0.004210   0.041357   0.433826   4.930726   0.474727
     6  C   -0.000153  -0.001285  -0.092544   0.008162   0.474727   4.863550
     7  C   -0.000408   0.009566  -0.032667  -0.044335   0.003084   0.489036
     8  C   -0.017018  -0.052172   0.221735  -0.130178  -0.083187   0.020148
     9  C   -0.106550   0.298362  -0.034657  -0.039455  -0.002655  -0.000258
    10  C   -0.001526  -0.001850  -0.000441   0.003633  -0.000051   0.000009
    11  C   -0.021640   0.010474  -0.002594   0.002543   0.001903   0.000092
    12  N   -0.081069   0.433998  -0.089056   0.022431  -0.001190   0.000105
    13  H    0.311409  -0.010632   0.001213  -0.005250   0.000013  -0.000011
    14  H    0.006243  -0.002781  -0.062627   0.435113  -0.067036   0.010296
    15  H   -0.000008  -0.000213   0.011480  -0.051033   0.424559  -0.052116
    16  H   -0.000001   0.000023  -0.002150   0.009595  -0.048526   0.421934
    17  H    0.000023  -0.000114   0.013168  -0.000718   0.008702  -0.049392
    18  H   -0.001202  -0.006199  -0.093439   0.007839  -0.001916   0.008509
    19  H    0.005172  -0.030169   0.008292  -0.002274   0.000207  -0.000169
    20  H    0.014503  -0.002304   0.001995  -0.000180   0.000010   0.000000
    21  H    0.000736   0.003094  -0.000286  -0.000009  -0.000001   0.000000
    22  H    0.014639  -0.001106  -0.005582   0.003008   0.000249   0.000034
    23  H    0.001378   0.002052   0.000238   0.000128  -0.000222  -0.000001
    24  H    0.009026   0.018060   0.000212  -0.002663   0.000335  -0.000259
               7          8          9         10         11         12
     1  N   -0.000408  -0.017018  -0.106550  -0.001526  -0.021640  -0.081069
     2  S    0.009566  -0.052172   0.298362  -0.001850   0.010474   0.433998
     3  C   -0.032667   0.221735  -0.034657  -0.000441  -0.002594  -0.089056
     4  C   -0.044335  -0.130178  -0.039455   0.003633   0.002543   0.022431
     5  C    0.003084  -0.083187  -0.002655  -0.000051   0.001903  -0.001190
     6  C    0.489036   0.020148  -0.000258   0.000009   0.000092   0.000105
     7  C    4.900878   0.440868  -0.001072   0.000017  -0.000062   0.005611
     8  C    0.440868   5.349213   0.034019  -0.000377  -0.006666   0.006484
     9  C   -0.001072   0.034019   5.225686   0.247289   0.210241  -0.048029
    10  C    0.000017  -0.000377   0.247289   4.968921   0.272104  -0.000453
    11  C   -0.000062  -0.006666   0.210241   0.272104   5.054266   0.011633
    12  N    0.005611   0.006484  -0.048029  -0.000453   0.011633   6.999096
    13  H   -0.000109   0.004624   0.010915  -0.000633  -0.000107  -0.004431
    14  H   -0.002773   0.015372   0.005428   0.000429  -0.001397   0.000824
    15  H    0.009824  -0.001136   0.000170   0.000001  -0.000091   0.000005
    16  H   -0.048832   0.010379  -0.000005  -0.000000   0.000001  -0.000001
    17  H    0.420852  -0.049822   0.000011  -0.000001   0.000002   0.000014
    18  H   -0.023151   0.422708   0.002990   0.000006  -0.000461   0.032594
    19  H    0.000232  -0.001213   0.401979  -0.030623  -0.032304  -0.001134
    20  H    0.000003  -0.000127  -0.026624   0.396773  -0.009638   0.002360
    21  H    0.000001   0.000011  -0.024124   0.405518  -0.022813  -0.000105
    22  H   -0.000003  -0.000638  -0.033607  -0.011260   0.405407   0.001050
    23  H    0.000003   0.000312  -0.020627  -0.015769   0.386107  -0.000297
    24  H    0.000466  -0.000058  -0.011737   0.000196   0.000815   0.267870
              13         14         15         16         17         18
     1  N    0.311409   0.006243  -0.000008  -0.000001   0.000023  -0.001202
     2  S   -0.010632  -0.002781  -0.000213   0.000023  -0.000114  -0.006199
     3  C    0.001213  -0.062627   0.011480  -0.002150   0.013168  -0.093439
     4  C   -0.005250   0.435113  -0.051033   0.009595  -0.000718   0.007839
     5  C    0.000013  -0.067036   0.424559  -0.048526   0.008702  -0.001916
     6  C   -0.000011   0.010296  -0.052116   0.421934  -0.049392   0.008509
     7  C   -0.000109  -0.002773   0.009824  -0.048832   0.420852  -0.023151
     8  C    0.004624   0.015372  -0.001136   0.010379  -0.049822   0.422708
     9  C    0.010915   0.005428   0.000170  -0.000005   0.000011   0.002990
    10  C   -0.000633   0.000429   0.000001  -0.000000  -0.000001   0.000006
    11  C   -0.000107  -0.001397  -0.000091   0.000001   0.000002  -0.000461
    12  N   -0.004431   0.000824   0.000005  -0.000001   0.000014   0.032594
    13  H    0.470957  -0.000157   0.000005  -0.000000  -0.000003   0.000537
    14  H   -0.000157   0.531773  -0.007137  -0.000206   0.000063   0.000076
    15  H    0.000005  -0.007137   0.548374  -0.007435  -0.000253   0.000094
    16  H   -0.000000  -0.000206  -0.007435   0.547606  -0.007410  -0.000224
    17  H   -0.000003   0.000063  -0.000253  -0.007410   0.545881  -0.006678
    18  H    0.000537   0.000076   0.000094  -0.000224  -0.006678   0.519123
    19  H   -0.000440  -0.000623   0.000011  -0.000001   0.000003  -0.000275
    20  H   -0.000793  -0.000099  -0.000000   0.000000  -0.000000  -0.000023
    21  H    0.000011   0.000021   0.000000   0.000000   0.000000   0.000002
    22  H   -0.001042   0.001277  -0.000020   0.000000  -0.000000  -0.000010
    23  H    0.000009   0.000551   0.000007   0.000000  -0.000000   0.000013
    24  H   -0.000226  -0.000153   0.000001  -0.000000   0.000014  -0.006502
              19         20         21         22         23         24
     1  N    0.005172   0.014503   0.000736   0.014639   0.001378   0.009026
     2  S   -0.030169  -0.002304   0.003094  -0.001106   0.002052   0.018060
     3  C    0.008292   0.001995  -0.000286  -0.005582   0.000238   0.000212
     4  C   -0.002274  -0.000180  -0.000009   0.003008   0.000128  -0.002663
     5  C    0.000207   0.000010  -0.000001   0.000249  -0.000222   0.000335
     6  C   -0.000169   0.000000   0.000000   0.000034  -0.000001  -0.000259
     7  C    0.000232   0.000003   0.000001  -0.000003   0.000003   0.000466
     8  C   -0.001213  -0.000127   0.000011  -0.000638   0.000312  -0.000058
     9  C    0.401979  -0.026624  -0.024124  -0.033607  -0.020627  -0.011737
    10  C   -0.030623   0.396773   0.405518  -0.011260  -0.015769   0.000196
    11  C   -0.032304  -0.009638  -0.022813   0.405407   0.386107   0.000815
    12  N   -0.001134   0.002360  -0.000105   0.001050  -0.000297   0.267870
    13  H   -0.000440  -0.000793   0.000011  -0.001042   0.000009  -0.000226
    14  H   -0.000623  -0.000099   0.000021   0.001277   0.000551  -0.000153
    15  H    0.000011  -0.000000   0.000000  -0.000020   0.000007   0.000001
    16  H   -0.000001   0.000000   0.000000   0.000000   0.000000  -0.000000
    17  H    0.000003  -0.000000   0.000000  -0.000000  -0.000000   0.000014
    18  H   -0.000275  -0.000023   0.000002  -0.000010   0.000013  -0.006502
    19  H    0.559512   0.002778  -0.006708   0.003026  -0.007252   0.002204
    20  H    0.002778   0.488027  -0.019070  -0.005933   0.001889   0.000105
    21  H   -0.006708  -0.019070   0.539881   0.001934  -0.006590   0.000019
    22  H    0.003026  -0.005933   0.001934   0.489509  -0.022953  -0.000059
    23  H   -0.007252   0.001889  -0.006590  -0.022953   0.556384  -0.000052
    24  H    0.002204   0.000105   0.000019  -0.000059  -0.000052   0.511765
 Mulliken charges:
               1
     1  N   -0.553148
     2  S    0.519813
     3  C    0.066754
     4  C   -0.163676
     5  C   -0.118352
     6  C   -0.100416
     7  C   -0.127031
     8  C   -0.183281
     9  C   -0.087691
    10  C   -0.231913
    11  C   -0.257815
    12  N   -0.558309
    13  H    0.224139
    14  H    0.137524
    15  H    0.124912
    16  H    0.125252
    17  H    0.125658
    18  H    0.145589
    19  H    0.129769
    20  H    0.156349
    21  H    0.128479
    22  H    0.162079
    23  H    0.124694
    24  H    0.210619
 Sum of Mulliken charges =  -0.00000
 Mulliken charges with hydrogens summed into heavy atoms:
               1
     1  N   -0.329009
     2  S    0.519813
     3  C    0.066754
     4  C   -0.026152
     5  C    0.006560
     6  C    0.024836
     7  C   -0.001373
     8  C   -0.037691
     9  C    0.042078
    10  C    0.052915
    11  C    0.028959
    12  N   -0.347689
 Electronic spatial extent (au):  <R**2>=           2364.6574
 Charge=             -0.0000 electrons
 Dipole moment (field-independent basis, Debye):
    X=              2.4259    Y=             -2.3630    Z=             -2.3133  Tot=              4.1012
 Quadrupole moment (field-independent basis, Debye-Ang):
   XX=            -73.5574   YY=            -79.3166   ZZ=            -78.9006
   XY=              4.8053   XZ=              3.3497   YZ=             -0.6284
 Traceless Quadrupole moment (field-independent basis, Debye-Ang):
   XX=              3.7008   YY=             -2.0584   ZZ=             -1.6424
   XY=              4.8053   XZ=              3.3497   YZ=             -0.6284
 Octapole moment (field-independent basis, Debye-Ang**2):
  XXX=             26.2870  YYY=            -20.3376  ZZZ=             -1.9294  XYY=             16.6232
  XXY=             -9.4344  XXZ=            -13.3912  XZZ=            -11.1403  YZZ=              9.8114
  YYZ=             -0.8168  XYZ=             -8.3942
 Hexadecapole moment (field-independent basis, Debye-Ang**3):
 XXXX=          -2067.5942 YYYY=           -744.8136 ZZZZ=           -278.1160 XXXY=             -7.7653
 XXXZ=              2.8888 YYYX=             25.1224 YYYZ=            -16.7808 ZZZX=             12.5109
 ZZZY=             16.9569 XXYY=           -486.1666 XXZZ=           -441.8063 YYZZ=           -153.0241
 XXYZ=             -1.4861 YYXZ=              0.0428 ZZXY=              1.2632
 N-N= 8.107667517143D+02 E-N=-3.633875932198D+03  KE= 8.540533529284D+02
 Breneman (CHELPG) radii used.
 Read replacement radii for each type of atom:
 Atom Element Radius
    1     7    1.70
    2    16    2.00
    3     6    1.50
    4     6    1.50
    5     6    1.50
    6     6    1.50
    7     6    1.50
    8     6    1.50
    9     6    1.50
   10     6    1.50
   11     6    1.50
   12     7    1.70
   13     1    1.45
   14     1    1.45
   15     1    1.45
   16     1    1.45
   17     1    1.45
   18     1    1.45
   19     1    1.45
   20     1    1.45
   21     1    1.45
   22     1    1.45
   23     1    1.45
   24     1    1.45
 Generate Potential Derived Charges using the Breneman model, NDens= 1.
 Grid spacing= 0.300 Box extension= 2.800
 NStep X,Y,Z=   48     36     34   Total possible points=       58752
 Number of Points to Fit=   15478

 **********************************************************************

            Electrostatic Properties Using The SCF Density.

 **********************************************************************

       Atomic Center    1 is at  -1.434877  0.381324  1.642131
       Atomic Center    2 is at  -0.897672  0.703078  0.234958
       Atomic Center    3 is at   0.827828  0.163347  0.035763
       Atomic Center    4 is at   1.176476 -1.155518  0.329813
       Atomic Center    5 is at   2.509699 -1.542950  0.232271
       Atomic Center    6 is at   3.485129 -0.613303 -0.135244
       Atomic Center    7 is at   3.129206  0.707323 -0.401527
       Atomic Center    8 is at   1.794086  1.101531 -0.313218
       Atomic Center    9 is at  -1.732476 -0.500252 -0.789281
       Atomic Center   10 is at  -3.214833 -0.587508 -0.617297
       Atomic Center   11 is at  -2.345914 -1.729574 -0.195033
       Atomic Center   12 is at  -1.057061  2.155653 -0.266784
       Atomic Center   13 is at  -1.151428  1.135219  2.270694
       Atomic Center   14 is at   0.408716 -1.866905  0.640486
       Atomic Center   15 is at   2.793130 -2.574655  0.453618
       Atomic Center   16 is at   4.531057 -0.921026 -0.205750
       Atomic Center   17 is at   3.894291  1.437624 -0.675371
       Atomic Center   18 is at   1.492726  2.135771 -0.495795
       Atomic Center   19 is at  -1.293287 -0.524399 -1.791106
       Atomic Center   20 is at  -3.639154  0.024400  0.183490
       Atomic Center   21 is at  -3.818088 -0.672142 -1.524411
       Atomic Center   22 is at  -2.212319 -1.856257  0.882284
       Atomic Center   23 is at  -2.321318 -2.639430 -0.800873
       Atomic Center   24 is at  -0.653225  2.255143 -1.201502
   15478 points will be used for fitting atomic charges
 Fitting point charges to electrostatic potential
 Charges from ESP fit, RMS=   0.00373 RRMS=   0.22804:
 ESP charges:
               1
     1  N   -0.682389
     2  S    0.588188
     3  C    0.015049
     4  C   -0.077686
     5  C   -0.102471
     6  C   -0.073103
     7  C   -0.101583
     8  C   -0.078201
     9  C   -0.061651
    10  C   -0.195441
    11  C   -0.204487
    12  N   -0.697030
    13  H    0.333708
    14  H    0.080824
    15  H    0.105139
    16  H    0.093143
    17  H    0.099755
    18  H    0.098080
    19  H    0.084484
    20  H    0.127691
    21  H    0.116009
    22  H    0.126875
    23  H    0.114845
    24  H    0.290250
 Sum of ESP charges =  -0.00000
 ESP charges with hydrogens summed into heavy atoms:
               1
     1  N   -0.348680
     2  S    0.588188
     3  C    0.015049
     4  C    0.003138
     5  C    0.002668
     6  C    0.020039
     7  C   -0.001827
     8  C    0.019879
     9  C    0.022834
    10  C    0.048259
    11  C    0.037233
    12  N   -0.406781
 Charge=  -0.00000 Dipole=     2.3984    -2.3613    -2.2691 Tot=     4.0592
 -----------------------------------------------------------------

              Electrostatic Properties (Atomic Units)

 -----------------------------------------------------------------
    Center     Electric         -------- Electric Field --------
               Potential          X             Y             Z
 -----------------------------------------------------------------
    1 Atom    -18.429227
    2 Atom    -59.076624
    3 Atom    -14.732403
    4 Atom    -14.743217
    5 Atom    -14.746038
    6 Atom    -14.745552
    7 Atom    -14.746265
    8 Atom    -14.744442
    9 Atom    -14.722851
   10 Atom    -14.747056
   11 Atom    -14.745139
   12 Atom    -18.428819
   13 Atom     -1.052906
   14 Atom     -1.086486
   15 Atom     -1.088573
   16 Atom     -1.088229
   17 Atom     -1.088911
   18 Atom     -1.086866
   19 Atom     -1.076122
   20 Atom     -1.104594
   21 Atom     -1.098950
   22 Atom     -1.102678
   23 Atom     -1.095779
   24 Atom     -1.048030
 -----------------------------------------------------------------
 Unable to Open any file for archive entry.
 1\1\GINC-NOTCH265\SP\RPBE1PBE\def2TZVP\C9H12N2S1\U1414944\06-Jun-2025\
 0\\#N Guess=Read Geom=Check Integral(Ultrafine) Density Pop=(ChelpG,Re
 adRadii) NMR pbe1pbe EmpiricalDispersion=GD3BJ def2TZVP\\SDI0122_3\\0,
 1\N,0,-1.5382609032,0.3124326124,-1.5477037789\S,0,-0.9854335213,-0.51
 21165379,-0.3700988959\C,0,0.7844911699,-0.1921828848,-0.0992722604\C,
 0,1.2323637006,1.1202539984,0.0567555046\C,0,2.5956599953,1.3592823143
 ,0.2030174266\C,0,3.5013595911,0.2964980825,0.1718248123\C,0,3.0452137
 869,-1.0074808725,-0.0104144328\C,0,1.679756477,-1.2559188048,-0.15023
 18163\C,0,-1.6841630141,0.3152932172,1.0515671565\C,0,-3.1587910466,0.
 5562455937,1.0069645055\C,0,-2.2115178425,1.7126472436,0.9517308286\N,
 0,-1.2493669765,-2.0343293821,-0.3883097193\H,0,-1.3386935447,-0.19437
 31456,-2.4120607025\H,0,0.5171155715,1.9451526309,0.0542680568\H,0,2.9
 569434451,2.3822339709,0.3325829601\H,0,4.5710035535,0.4896376006,0.28
 22226948\H,0,3.7550549112,-1.8371426777,-0.048785599\H,0,1.2991754052,
 -2.2666083677,-0.3159679705\H,0,-1.2129727884,-0.0386204162,1.97343908
 33\H,0,-3.6577949399,0.2895672487,0.0712213184\H,0,-3.7238498358,0.361
 8749498,1.9217676356\H,0,-2.1020259641,2.195295064,-0.0227283636\H,0,-
 2.0919879588,2.3525268185,1.8302249624\H,0,-0.825819058,-2.4783096732,
 0.430328315\\Version=ES64L-G16RevC.01\State=1-A\HF=-857.2656193\RMSD=3
 .369e-09\Dipole=1.0569284,0.4904884,1.116183\Quadrupole=1.9648979,-0.8
 373093,-1.1275886,-2.7359404,-3.805402,-0.0533248\PG=C01 [X(C9H12N2S1)
 ]\\@
 The archive entry for this job was punched.


 TO DRY ONE'S EYES AND LAUGH AT A FALL
 AND BAFFLED, GET UP AND BEGIN AGAIN.
           R. BROWNING
 Job cpu time:       0 days  0 hours 21 minutes 49.0 seconds.
 Elapsed time:       0 days  0 hours  1 minutes 29.0 seconds.
 File lengths (MBytes):  RWF=    130 Int=      0 D2E=      0 Chk=     20 Scr=      2
 Normal termination of Gaussian 16 at Fri Jun  6 18:37:48 2025.
