 Entering Gaussian System, Link 0=g16
 Input=SDI0001_1.com
 Output=SDI0001_1.log
 Initial command:
 /uufs/chpc.utah.edu/sys/installdir/gaussian16/C01/AVX/g16/l1.exe "/scratch/general/vast/u1414944/3119846-notchpeak.peaks/Gau-1484141.inp" -scrdir="/scratch/general/vast/u1414944/3119846-notchpeak.peaks/"
 Entering Link 1 = /uufs/chpc.utah.edu/sys/installdir/gaussian16/C01/AVX/g16/l1.exe PID=   1484142.
  
 Copyright (c) 1988-2019, Gaussian, Inc.  All Rights Reserved.
  
 This is part of the Gaussian(R) 16 program.  It is based on
 the Gaussian(R) 09 system (copyright 2009, Gaussian, Inc.),
 the Gaussian(R) 03 system (copyright 2003, Gaussian, Inc.),
 the Gaussian(R) 98 system (copyright 1998, Gaussian, Inc.),
 the Gaussian(R) 94 system (copyright 1995, Gaussian, Inc.),
 the Gaussian 92(TM) system (copyright 1992, Gaussian, Inc.),
 the Gaussian 90(TM) system (copyright 1990, Gaussian, Inc.),
 the Gaussian 88(TM) system (copyright 1988, Gaussian, Inc.),
 the Gaussian 86(TM) system (copyright 1986, Carnegie Mellon
 University), and the Gaussian 82(TM) system (copyright 1983,
 Carnegie Mellon University). Gaussian is a federally registered
 trademark of Gaussian, Inc.
  
 This software contains proprietary and confidential information,
 including trade secrets, belonging to Gaussian, Inc.
  
 This software is provided under written license and may be
 used, copied, transmitted, or stored only in accord with that
 written license.
  
 The following legend is applicable only to US Government
 contracts under FAR:
  
                    RESTRICTED RIGHTS LEGEND
  
 Use, reproduction and disclosure by the US Government is
 subject to restrictions as set forth in subparagraphs (a)
 and (c) of the Commercial Computer Software - Restricted
 Rights clause in FAR 52.227-19.
  
 Gaussian, Inc.
 340 Quinnipiac St., Bldg. 40, Wallingford CT 06492
  
  
 ---------------------------------------------------------------
 Warning -- This program may not be used in any manner that
 competes with the business of Gaussian, Inc. or will provide
 assistance to any competitor of Gaussian, Inc.  The licensee
 of this program is prohibited from giving any competitor of
 Gaussian, Inc. access to this program.  By using this program,
 the user acknowledges that Gaussian, Inc. is engaged in the
 business of creating and licensing software in the field of
 computational chemistry and represents and warrants to the
 licensee that it is not a competitor of Gaussian, Inc. and that
 it will not use this program in any manner prohibited above.
 ---------------------------------------------------------------
  

 Cite this work as:
 Gaussian 16, Revision C.01,
 M. J. Frisch, G. W. Trucks, H. B. Schlegel, G. E. Scuseria, 
 M. A. Robb, J. R. Cheeseman, G. Scalmani, V. Barone, 
 G. A. Petersson, H. Nakatsuji, X. Li, M. Caricato, A. V. Marenich, 
 J. Bloino, B. G. Janesko, R. Gomperts, B. Mennucci, H. P. Hratchian, 
 J. V. Ortiz, A. F. Izmaylov, J. L. Sonnenberg, D. Williams-Young, 
 F. Ding, F. Lipparini, F. Egidi, J. Goings, B. Peng, A. Petrone, 
 T. Henderson, D. Ranasinghe, V. G. Zakrzewski, J. Gao, N. Rega, 
 G. Zheng, W. Liang, M. Hada, M. Ehara, K. Toyota, R. Fukuda, 
 J. Hasegawa, M. Ishida, T. Nakajima, Y. Honda, O. Kitao, H. Nakai, 
 T. Vreven, K. Throssell, J. A. Montgomery, Jr., J. E. Peralta, 
 F. Ogliaro, M. J. Bearpark, J. J. Heyd, E. N. Brothers, K. N. Kudin, 
 V. N. Staroverov, T. A. Keith, R. Kobayashi, J. Normand, 
 K. Raghavachari, A. P. Rendell, J. C. Burant, S. S. Iyengar, 
 J. Tomasi, M. Cossi, J. M. Millam, M. Klene, C. Adamo, R. Cammi, 
 J. W. Ochterski, R. L. Martin, K. Morokuma, O. Farkas, 
 J. B. Foresman, and D. J. Fox, Gaussian, Inc., Wallingford CT, 2019.
 
 ******************************************
 Gaussian 16:  ES64L-G16RevC.01  3-Jul-2019
                10-Feb-2025 
 ******************************************
 %NProcShared=16
 Will use up to   16 processors via shared memory.
 %Mem=40GB
 %chk=SDI0001_1.chk
 ----------------------------------------------------------------------
 #N OPT FREQ=NORAMAN Integral(Ultrafine) pbe1pbe EmpiricalDispersion=GD
 3BJ def2SVP
 ----------------------------------------------------------------------
 1/18=20,19=15,26=4,38=1/1,3;
 2/9=110,12=2,17=6,18=5,40=1/2;
 3/5=43,7=101,11=2,25=1,30=1,71=1,74=-13,75=-5,124=41/1,2,3;
 4//1;
 5/5=2,38=5/2;
 6/7=2,8=2,9=2,10=2,28=1/1;
 7//1,2,3,16;
 1/18=20,19=15,26=4/3(2);
 2/9=110/2;
 99//99;
 2/9=110/2;
 3/5=43,7=101,11=2,25=1,30=1,71=1,74=-13,75=-5,124=41/1,2,3;
 4/5=5,16=3,69=1/1;
 5/5=2,38=5/2;
 7//1,2,3,16;
 1/18=20,19=15,26=4/3(-5);
 2/9=110/2;
 6/7=2,8=2,9=2,10=2,19=2,28=1/1;
 99/9=1/99;
 ---------
 SDI0001_1
 ---------
 Symbolic Z-matrix:
 Charge =  0 Multiplicity = 1
 O                    -1.50007  -2.66999   1.10972 
 C                    -1.35614  -1.72819   0.36339 
 C                    -2.52332  -1.21709  -0.50359 
 C                    -3.75226  -2.09928  -0.23457 
 C                    -2.07986  -1.40699  -1.96405 
 N                    -2.73509   0.201    -0.20584 
 C                    -3.73194   0.89143  -1.00594 
 C                    -3.588     2.39382  -0.74684 
 O                    -3.77589   2.7044    0.61313 
 C                    -2.85961   1.99713   1.41447 
 C                    -2.98188   0.48723   1.19866 
 C                    -0.01611  -1.10183   0.19391 
 C                     0.18758   0.19748  -0.27073 
 C                     1.4714    0.69851  -0.38821 
 C                     1.08755  -1.88806   0.53587 
 C                     2.3693   -1.39094   0.40633 
 C                     2.54824  -0.0976   -0.04931 
 S                     4.23547   0.53769  -0.20328 
 N                     4.03607   1.77149  -1.09892 
 C                     4.53913   0.94067   1.55556 
 N                     5.28682  -0.55839  -0.43641 
 H                    -4.59956  -1.75944  -0.82465 
 H                    -4.01572  -2.08066   0.81955 
 H                    -3.52751  -3.12742  -0.50407 
 H                    -1.36683  -0.64239  -2.25768 
 H                    -2.93695  -1.37474  -2.63212 
 H                    -1.60699  -2.38087  -2.07417 
 H                    -3.55973   0.69616  -2.06355 
 H                    -4.75895   0.58853  -0.74342 
 H                    -4.34701   2.95375  -1.29577 
 H                    -2.58792   2.72221  -1.07008 
 H                    -1.83222   2.31617   1.18011 
 H                    -3.09169   2.25799   2.44826 
 H                    -3.99038   0.17151   1.51202 
 H                    -2.24293  -0.03033   1.81307 
 H                    -0.66518   0.81036  -0.51485 
 H                     1.66708   1.69473  -0.75122 
 H                     0.91544  -2.89151   0.89589 
 H                     3.23706  -1.98868   0.64263 
 H                     4.88527   2.12423  -1.50814 
 H                     5.52542   1.38211   1.63377 
 H                     4.50115   0.01376   2.11204 
 H                     3.77621   1.63585   1.885 
 H                     5.44065  -0.78411  -1.40557 
 

 GradGradGradGradGradGradGradGradGradGradGradGradGradGradGradGradGradGrad
 Berny optimization.
 Initialization pass.
                           ----------------------------
                           !    Initial Parameters    !
                           ! (Angstroms and Degrees)  !
 --------------------------                            --------------------------
 ! Name  Definition              Value          Derivative Info.                !
 --------------------------------------------------------------------------------
 ! R1    R(1,2)                  1.2102         estimate D2E/DX2                !
 ! R2    R(2,3)                  1.5412         estimate D2E/DX2                !
 ! R3    R(2,12)                 1.4889         estimate D2E/DX2                !
 ! R4    R(3,4)                  1.5365         estimate D2E/DX2                !
 ! R5    R(3,5)                  1.5381         estimate D2E/DX2                !
 ! R6    R(3,6)                  1.4644         estimate D2E/DX2                !
 ! R7    R(4,22)                 1.087          estimate D2E/DX2                !
 ! R8    R(4,23)                 1.0867         estimate D2E/DX2                !
 ! R9    R(4,24)                 1.0864         estimate D2E/DX2                !
 ! R10   R(5,25)                 1.0859         estimate D2E/DX2                !
 ! R11   R(5,26)                 1.0872         estimate D2E/DX2                !
 ! R12   R(5,27)                 1.0882         estimate D2E/DX2                !
 ! R13   R(6,7)                  1.4528         estimate D2E/DX2                !
 ! R14   R(6,11)                 1.4545         estimate D2E/DX2                !
 ! R15   R(7,8)                  1.5313         estimate D2E/DX2                !
 ! R16   R(7,28)                 1.0892         estimate D2E/DX2                !
 ! R17   R(7,29)                 1.1025         estimate D2E/DX2                !
 ! R18   R(8,9)                  1.4076         estimate D2E/DX2                !
 ! R19   R(8,30)                 1.0913         estimate D2E/DX2                !
 ! R20   R(8,31)                 1.1011         estimate D2E/DX2                !
 ! R21   R(9,10)                 1.4078         estimate D2E/DX2                !
 ! R22   R(10,11)                1.5301         estimate D2E/DX2                !
 ! R23   R(10,32)                1.101          estimate D2E/DX2                !
 ! R24   R(10,33)                1.0912         estimate D2E/DX2                !
 ! R25   R(11,34)                1.1022         estimate D2E/DX2                !
 ! R26   R(11,35)                1.0915         estimate D2E/DX2                !
 ! R27   R(12,13)                1.3948         estimate D2E/DX2                !
 ! R28   R(12,15)                1.3976         estimate D2E/DX2                !
 ! R29   R(13,14)                1.3831         estimate D2E/DX2                !
 ! R30   R(13,36)                1.0782         estimate D2E/DX2                !
 ! R31   R(14,17)                1.3814         estimate D2E/DX2                !
 ! R32   R(14,37)                1.0782         estimate D2E/DX2                !
 ! R33   R(15,16)                1.3809         estimate D2E/DX2                !
 ! R34   R(15,38)                1.0799         estimate D2E/DX2                !
 ! R35   R(16,17)                1.3829         estimate D2E/DX2                !
 ! R36   R(16,39)                1.0799         estimate D2E/DX2                !
 ! R37   R(17,18)                1.8094         estimate D2E/DX2                !
 ! R38   R(18,19)                1.5376         estimate D2E/DX2                !
 ! R39   R(18,20)                1.8298         estimate D2E/DX2                !
 ! R40   R(18,21)                1.5366         estimate D2E/DX2                !
 ! R41   R(19,40)                1.0065         estimate D2E/DX2                !
 ! R42   R(20,41)                1.0834         estimate D2E/DX2                !
 ! R43   R(20,42)                1.0818         estimate D2E/DX2                !
 ! R44   R(20,43)                1.0834         estimate D2E/DX2                !
 ! R45   R(21,44)                1.0069         estimate D2E/DX2                !
 ! A1    A(1,2,3)              120.9913         estimate D2E/DX2                !
 ! A2    A(1,2,12)             120.3062         estimate D2E/DX2                !
 ! A3    A(3,2,12)             118.5596         estimate D2E/DX2                !
 ! A4    A(2,3,4)              108.4717         estimate D2E/DX2                !
 ! A5    A(2,3,5)              105.9537         estimate D2E/DX2                !
 ! A6    A(2,3,6)              108.4382         estimate D2E/DX2                !
 ! A7    A(4,3,5)              109.0241         estimate D2E/DX2                !
 ! A8    A(4,3,6)              113.8739         estimate D2E/DX2                !
 ! A9    A(5,3,6)              110.7516         estimate D2E/DX2                !
 ! A10   A(3,4,22)             110.4199         estimate D2E/DX2                !
 ! A11   A(3,4,23)             110.7257         estimate D2E/DX2                !
 ! A12   A(3,4,24)             109.5399         estimate D2E/DX2                !
 ! A13   A(22,4,23)            109.4043         estimate D2E/DX2                !
 ! A14   A(22,4,24)            108.8127         estimate D2E/DX2                !
 ! A15   A(23,4,24)            107.8792         estimate D2E/DX2                !
 ! A16   A(3,5,25)             111.0475         estimate D2E/DX2                !
 ! A17   A(3,5,26)             110.6421         estimate D2E/DX2                !
 ! A18   A(3,5,27)             109.3825         estimate D2E/DX2                !
 ! A19   A(25,5,26)            109.3052         estimate D2E/DX2                !
 ! A20   A(25,5,27)            108.5081         estimate D2E/DX2                !
 ! A21   A(26,5,27)            107.8745         estimate D2E/DX2                !
 ! A22   A(3,6,7)              116.5812         estimate D2E/DX2                !
 ! A23   A(3,6,11)             114.2961         estimate D2E/DX2                !
 ! A24   A(7,6,11)             108.7758         estimate D2E/DX2                !
 ! A25   A(6,7,8)              107.9741         estimate D2E/DX2                !
 ! A26   A(6,7,28)             109.943          estimate D2E/DX2                !
 ! A27   A(6,7,29)             112.1784         estimate D2E/DX2                !
 ! A28   A(8,7,28)             108.9848         estimate D2E/DX2                !
 ! A29   A(8,7,29)             108.4706         estimate D2E/DX2                !
 ! A30   A(28,7,29)            109.2234         estimate D2E/DX2                !
 ! A31   A(7,8,9)              111.5554         estimate D2E/DX2                !
 ! A32   A(7,8,30)             110.665          estimate D2E/DX2                !
 ! A33   A(7,8,31)             109.1647         estimate D2E/DX2                !
 ! A34   A(9,8,30)             106.2567         estimate D2E/DX2                !
 ! A35   A(9,8,31)             109.8194         estimate D2E/DX2                !
 ! A36   A(30,8,31)            109.3301         estimate D2E/DX2                !
 ! A37   A(8,9,10)             110.6235         estimate D2E/DX2                !
 ! A38   A(9,10,11)            111.3124         estimate D2E/DX2                !
 ! A39   A(9,10,32)            109.9133         estimate D2E/DX2                !
 ! A40   A(9,10,33)            106.3051         estimate D2E/DX2                !
 ! A41   A(11,10,32)           109.2974         estimate D2E/DX2                !
 ! A42   A(11,10,33)           110.6423         estimate D2E/DX2                !
 ! A43   A(32,10,33)           109.3208         estimate D2E/DX2                !
 ! A44   A(6,11,10)            108.4714         estimate D2E/DX2                !
 ! A45   A(6,11,34)            111.9261         estimate D2E/DX2                !
 ! A46   A(6,11,35)            109.5954         estimate D2E/DX2                !
 ! A47   A(10,11,34)           108.4005         estimate D2E/DX2                !
 ! A48   A(10,11,35)           109.5362         estimate D2E/DX2                !
 ! A49   A(34,11,35)           108.879          estimate D2E/DX2                !
 ! A50   A(2,12,13)            124.1417         estimate D2E/DX2                !
 ! A51   A(2,12,15)            116.5023         estimate D2E/DX2                !
 ! A52   A(13,12,15)           119.3553         estimate D2E/DX2                !
 ! A53   A(12,13,14)           120.085          estimate D2E/DX2                !
 ! A54   A(12,13,36)           119.3034         estimate D2E/DX2                !
 ! A55   A(14,13,36)           120.5977         estimate D2E/DX2                !
 ! A56   A(13,14,17)           119.601          estimate D2E/DX2                !
 ! A57   A(13,14,37)           122.1245         estimate D2E/DX2                !
 ! A58   A(17,14,37)           118.2693         estimate D2E/DX2                !
 ! A59   A(12,15,16)           120.5002         estimate D2E/DX2                !
 ! A60   A(12,15,38)           118.5853         estimate D2E/DX2                !
 ! A61   A(16,15,38)           120.9133         estimate D2E/DX2                !
 ! A62   A(15,16,17)           119.1903         estimate D2E/DX2                !
 ! A63   A(15,16,39)           121.7414         estimate D2E/DX2                !
 ! A64   A(17,16,39)           119.0658         estimate D2E/DX2                !
 ! A65   A(14,17,16)           121.2631         estimate D2E/DX2                !
 ! A66   A(14,17,18)           120.2428         estimate D2E/DX2                !
 ! A67   A(16,17,18)           118.4935         estimate D2E/DX2                !
 ! A68   A(17,18,19)           102.1442         estimate D2E/DX2                !
 ! A69   A(17,18,20)            98.6429         estimate D2E/DX2                !
 ! A70   A(17,18,21)           113.6075         estimate D2E/DX2                !
 ! A71   A(19,18,20)           113.8726         estimate D2E/DX2                !
 ! A72   A(19,18,21)           124.942          estimate D2E/DX2                !
 ! A73   A(20,18,21)           100.9169         estimate D2E/DX2                !
 ! A74   A(18,19,40)           114.119          estimate D2E/DX2                !
 ! A75   A(18,20,41)           108.0717         estimate D2E/DX2                !
 ! A76   A(18,20,42)           107.4533         estimate D2E/DX2                !
 ! A77   A(18,20,43)           108.465          estimate D2E/DX2                !
 ! A78   A(41,20,42)           110.1172         estimate D2E/DX2                !
 ! A79   A(41,20,43)           110.9565         estimate D2E/DX2                !
 ! A80   A(42,20,43)           111.632          estimate D2E/DX2                !
 ! A81   A(18,21,44)           114.2336         estimate D2E/DX2                !
 ! D1    D(1,2,3,4)             -0.6983         estimate D2E/DX2                !
 ! D2    D(1,2,3,5)           -117.6302         estimate D2E/DX2                !
 ! D3    D(1,2,3,6)            123.4384         estimate D2E/DX2                !
 ! D4    D(12,2,3,4)           174.969          estimate D2E/DX2                !
 ! D5    D(12,2,3,5)            58.0371         estimate D2E/DX2                !
 ! D6    D(12,2,3,6)           -60.8943         estimate D2E/DX2                !
 ! D7    D(1,2,12,13)         -158.4201         estimate D2E/DX2                !
 ! D8    D(1,2,12,15)           21.2818         estimate D2E/DX2                !
 ! D9    D(3,2,12,13)           25.882          estimate D2E/DX2                !
 ! D10   D(3,2,12,15)         -154.4162         estimate D2E/DX2                !
 ! D11   D(2,3,4,22)           179.446          estimate D2E/DX2                !
 ! D12   D(2,3,4,23)            58.12           estimate D2E/DX2                !
 ! D13   D(2,3,4,24)           -60.7355         estimate D2E/DX2                !
 ! D14   D(5,3,4,22)           -65.6114         estimate D2E/DX2                !
 ! D15   D(5,3,4,23)           173.0626         estimate D2E/DX2                !
 ! D16   D(5,3,4,24)            54.2071         estimate D2E/DX2                !
 ! D17   D(6,3,4,22)            58.6149         estimate D2E/DX2                !
 ! D18   D(6,3,4,23)           -62.7111         estimate D2E/DX2                !
 ! D19   D(6,3,4,24)           178.4334         estimate D2E/DX2                !
 ! D20   D(2,3,5,25)           -76.4412         estimate D2E/DX2                !
 ! D21   D(2,3,5,26)           161.9915         estimate D2E/DX2                !
 ! D22   D(2,3,5,27)            43.2912         estimate D2E/DX2                !
 ! D23   D(4,3,5,25)           166.9989         estimate D2E/DX2                !
 ! D24   D(4,3,5,26)            45.4316         estimate D2E/DX2                !
 ! D25   D(4,3,5,27)           -73.2687         estimate D2E/DX2                !
 ! D26   D(6,3,5,25)            40.9517         estimate D2E/DX2                !
 ! D27   D(6,3,5,26)           -80.6156         estimate D2E/DX2                !
 ! D28   D(6,3,5,27)           160.684          estimate D2E/DX2                !
 ! D29   D(2,3,6,7)            175.3162         estimate D2E/DX2                !
 ! D30   D(2,3,6,11)           -56.3122         estimate D2E/DX2                !
 ! D31   D(4,3,6,7)            -63.8339         estimate D2E/DX2                !
 ! D32   D(4,3,6,11)            64.5376         estimate D2E/DX2                !
 ! D33   D(5,3,6,7)             59.4572         estimate D2E/DX2                !
 ! D34   D(5,3,6,11)          -172.1712         estimate D2E/DX2                !
 ! D35   D(3,6,7,8)           -168.2363         estimate D2E/DX2                !
 ! D36   D(3,6,7,28)           -49.4502         estimate D2E/DX2                !
 ! D37   D(3,6,7,29)            72.2958         estimate D2E/DX2                !
 ! D38   D(11,6,7,8)            60.7651         estimate D2E/DX2                !
 ! D39   D(11,6,7,28)          179.5512         estimate D2E/DX2                !
 ! D40   D(11,6,7,29)          -58.7028         estimate D2E/DX2                !
 ! D41   D(3,6,11,10)          167.0018         estimate D2E/DX2                !
 ! D42   D(3,6,11,34)          -73.4463         estimate D2E/DX2                !
 ! D43   D(3,6,11,35)           47.4536         estimate D2E/DX2                !
 ! D44   D(7,6,11,10)          -60.7757         estimate D2E/DX2                !
 ! D45   D(7,6,11,34)           58.7762         estimate D2E/DX2                !
 ! D46   D(7,6,11,35)          179.6761         estimate D2E/DX2                !
 ! D47   D(6,7,8,9)            -59.498          estimate D2E/DX2                !
 ! D48   D(6,7,8,30)          -177.5766         estimate D2E/DX2                !
 ! D49   D(6,7,8,31)            62.0514         estimate D2E/DX2                !
 ! D50   D(28,7,8,9)          -178.8927         estimate D2E/DX2                !
 ! D51   D(28,7,8,30)           63.0287         estimate D2E/DX2                !
 ! D52   D(28,7,8,31)          -57.3433         estimate D2E/DX2                !
 ! D53   D(29,7,8,9)            62.29           estimate D2E/DX2                !
 ! D54   D(29,7,8,30)          -55.7886         estimate D2E/DX2                !
 ! D55   D(29,7,8,31)         -176.1606         estimate D2E/DX2                !
 ! D56   D(7,8,9,10)            57.7248         estimate D2E/DX2                !
 ! D57   D(30,8,9,10)          178.4176         estimate D2E/DX2                !
 ! D58   D(31,8,9,10)          -63.4443         estimate D2E/DX2                !
 ! D59   D(8,9,10,11)          -57.2759         estimate D2E/DX2                !
 ! D60   D(8,9,10,32)           63.9637         estimate D2E/DX2                !
 ! D61   D(8,9,10,33)         -177.8325         estimate D2E/DX2                !
 ! D62   D(9,10,11,6)           58.9693         estimate D2E/DX2                !
 ! D63   D(9,10,11,34)         -62.7682         estimate D2E/DX2                !
 ! D64   D(9,10,11,35)         178.5546         estimate D2E/DX2                !
 ! D65   D(32,10,11,6)         -62.6294         estimate D2E/DX2                !
 ! D66   D(32,10,11,34)        175.6331         estimate D2E/DX2                !
 ! D67   D(32,10,11,35)         56.9559         estimate D2E/DX2                !
 ! D68   D(33,10,11,6)         176.9391         estimate D2E/DX2                !
 ! D69   D(33,10,11,34)         55.2016         estimate D2E/DX2                !
 ! D70   D(33,10,11,35)        -63.4756         estimate D2E/DX2                !
 ! D71   D(2,12,13,14)         179.6053         estimate D2E/DX2                !
 ! D72   D(2,12,13,36)           0.9555         estimate D2E/DX2                !
 ! D73   D(15,12,13,14)         -0.0885         estimate D2E/DX2                !
 ! D74   D(15,12,13,36)       -178.7383         estimate D2E/DX2                !
 ! D75   D(2,12,15,16)         179.7674         estimate D2E/DX2                !
 ! D76   D(2,12,15,38)           0.1749         estimate D2E/DX2                !
 ! D77   D(13,12,15,16)         -0.5157         estimate D2E/DX2                !
 ! D78   D(13,12,15,38)        179.8918         estimate D2E/DX2                !
 ! D79   D(12,13,14,17)          0.3269         estimate D2E/DX2                !
 ! D80   D(12,13,14,37)        179.4834         estimate D2E/DX2                !
 ! D81   D(36,13,14,17)        178.959          estimate D2E/DX2                !
 ! D82   D(36,13,14,37)         -1.8845         estimate D2E/DX2                !
 ! D83   D(13,14,17,16)          0.0336         estimate D2E/DX2                !
 ! D84   D(13,14,17,18)        179.7274         estimate D2E/DX2                !
 ! D85   D(37,14,17,16)       -179.1554         estimate D2E/DX2                !
 ! D86   D(37,14,17,18)          0.5385         estimate D2E/DX2                !
 ! D87   D(12,15,16,17)          0.8683         estimate D2E/DX2                !
 ! D88   D(12,15,16,39)       -178.5439         estimate D2E/DX2                !
 ! D89   D(38,15,16,17)       -179.5488         estimate D2E/DX2                !
 ! D90   D(38,15,16,39)          1.0391         estimate D2E/DX2                !
 ! D91   D(15,16,17,14)         -0.6305         estimate D2E/DX2                !
 ! D92   D(15,16,17,18)        179.6704         estimate D2E/DX2                !
 ! D93   D(39,16,17,14)        178.7975         estimate D2E/DX2                !
 ! D94   D(39,16,17,18)         -0.9016         estimate D2E/DX2                !
 ! D95   D(14,17,18,19)        -15.8626         estimate D2E/DX2                !
 ! D96   D(14,17,18,20)        100.973          estimate D2E/DX2                !
 ! D97   D(14,17,18,21)       -153.0359         estimate D2E/DX2                !
 ! D98   D(16,17,18,19)        163.8396         estimate D2E/DX2                !
 ! D99   D(16,17,18,20)        -79.3248         estimate D2E/DX2                !
 ! D100  D(16,17,18,21)         26.6663         estimate D2E/DX2                !
 ! D101  D(17,18,19,40)       -164.1664         estimate D2E/DX2                !
 ! D102  D(20,18,19,40)         90.5657         estimate D2E/DX2                !
 ! D103  D(21,18,19,40)        -33.6194         estimate D2E/DX2                !
 ! D104  D(17,18,20,41)       -177.8023         estimate D2E/DX2                !
 ! D105  D(17,18,20,42)         63.392          estimate D2E/DX2                !
 ! D106  D(17,18,20,43)        -57.4314         estimate D2E/DX2                !
 ! D107  D(19,18,20,41)        -70.3466         estimate D2E/DX2                !
 ! D108  D(19,18,20,42)        170.8477         estimate D2E/DX2                !
 ! D109  D(19,18,20,43)         50.0243         estimate D2E/DX2                !
 ! D110  D(21,18,20,41)         65.9755         estimate D2E/DX2                !
 ! D111  D(21,18,20,42)        -52.8301         estimate D2E/DX2                !
 ! D112  D(21,18,20,43)       -173.6535         estimate D2E/DX2                !
 ! D113  D(17,18,21,44)         88.7159         estimate D2E/DX2                !
 ! D114  D(19,18,21,44)        -37.1181         estimate D2E/DX2                !
 ! D115  D(20,18,21,44)       -166.7285         estimate D2E/DX2                !
 --------------------------------------------------------------------------------
 Trust Radius=3.00D-01 FncErr=1.00D-07 GrdErr=1.00D-06 EigMax=2.50D+02 EigMin=1.00D-04
 Number of steps in this run=    251 maximum allowed number of steps=    264.
 GradGradGradGradGradGradGradGradGradGradGradGradGradGradGradGradGradGrad

                          Input orientation:                          
 ---------------------------------------------------------------------
 Center     Atomic      Atomic             Coordinates (Angstroms)
 Number     Number       Type             X           Y           Z
 ---------------------------------------------------------------------
      1          8           0       -1.500074   -2.669986    1.109722
      2          6           0       -1.356137   -1.728195    0.363391
      3          6           0       -2.523322   -1.217094   -0.503588
      4          6           0       -3.752262   -2.099283   -0.234573
      5          6           0       -2.079863   -1.406987   -1.964046
      6          7           0       -2.735092    0.200998   -0.205836
      7          6           0       -3.731935    0.891428   -1.005937
      8          6           0       -3.588002    2.393820   -0.746840
      9          8           0       -3.775893    2.704398    0.613130
     10          6           0       -2.859615    1.997132    1.414467
     11          6           0       -2.981884    0.487230    1.198655
     12          6           0       -0.016114   -1.101826    0.193912
     13          6           0        0.187582    0.197478   -0.270729
     14          6           0        1.471397    0.698512   -0.388211
     15          6           0        1.087553   -1.888059    0.535868
     16          6           0        2.369301   -1.390939    0.406330
     17          6           0        2.548235   -0.097604   -0.049312
     18         16           0        4.235466    0.537689   -0.203284
     19          7           0        4.036066    1.771491   -1.098915
     20          6           0        4.539128    0.940675    1.555563
     21          7           0        5.286823   -0.558394   -0.436412
     22          1           0       -4.599560   -1.759444   -0.824649
     23          1           0       -4.015720   -2.080656    0.819548
     24          1           0       -3.527507   -3.127418   -0.504070
     25          1           0       -1.366831   -0.642386   -2.257681
     26          1           0       -2.936955   -1.374742   -2.632121
     27          1           0       -1.606989   -2.380874   -2.074170
     28          1           0       -3.559726    0.696161   -2.063549
     29          1           0       -4.758946    0.588534   -0.743416
     30          1           0       -4.347013    2.953750   -1.295771
     31          1           0       -2.587919    2.722206   -1.070080
     32          1           0       -1.832221    2.316166    1.180106
     33          1           0       -3.091688    2.257991    2.448258
     34          1           0       -3.990377    0.171515    1.512016
     35          1           0       -2.242932   -0.030328    1.813071
     36          1           0       -0.665182    0.810355   -0.514849
     37          1           0        1.667077    1.694725   -0.751218
     38          1           0        0.915441   -2.891514    0.895887
     39          1           0        3.237055   -1.988683    0.642630
     40          1           0        4.885271    2.124229   -1.508141
     41          1           0        5.525418    1.382109    1.633775
     42          1           0        4.501152    0.013764    2.112042
     43          1           0        3.776205    1.635854    1.884998
     44          1           0        5.440650   -0.784109   -1.405574
 ---------------------------------------------------------------------
                    Distance matrix (angstroms):
                    1          2          3          4          5
     1  O    0.000000
     2  C    1.210248   0.000000
     3  C    2.400147   1.541168   0.000000
     4  C    2.684247   2.497335   1.536528   0.000000
     5  C    3.373333   2.458437   1.538067   2.503451   0.000000
     6  N    3.390946   2.438712   1.464407   2.515304   2.471080
     7  C    4.705411   3.792347   2.481726   3.088652   2.988315
     8  C    5.783459   4.817139   3.772455   4.525193   4.266404
     9  O    5.857471   5.056230   4.265454   4.877962   5.140218
    10  C    4.870649   4.152501   3.758095   4.505194   4.859052
    11  C    3.488794   2.872077   2.452067   3.055761   3.795310
    12  C    2.345201   1.488866   2.604973   3.890670   3.001493
    13  C    3.602247   2.548214   3.066633   4.560569   3.253142
    14  C    4.735000   3.801152   4.431776   5.927720   4.419030
    15  C    2.763427   2.454980   3.816947   4.905303   4.063684
    16  C    4.135551   3.740919   4.979552   6.195647   5.041230
    17  C    4.934502   4.251267   5.213475   6.613418   5.176870
    18  S    6.701461   6.059816   6.989325   8.411801   6.838525
    19  N    7.433279   6.592571   7.232678   8.740024   6.946636
    20  C    7.050362   6.580143   7.666438   9.010720   7.855584
    21  N    7.274017   6.792425   7.838161   9.171703   7.571119
    22  H    3.765328   3.454302   2.169789   1.087012   2.787710
    23  H    2.599997   2.721339   2.173402   1.086705   3.456843
    24  H    2.631360   2.724915   2.158176   1.086372   2.680874
    25  H    3.932979   2.837096   2.178211   3.450477   1.085932
    26  H    4.212324   3.405437   2.174073   2.633993   1.087185
    27  H    3.198779   2.535867   2.158883   2.840001   1.088207
    28  H    5.063869   4.077173   2.677341   3.346152   2.573543
    29  H    4.967124   4.262788   2.883717   2.914909   3.556617
    30  H    6.746693   5.798169   4.620535   5.197405   4.960099
    31  H    5.916982   4.835099   3.980348   5.029962   4.255294
    32  H    4.997698   4.153376   3.974465   5.018372   4.879434
    33  H    5.348819   4.821668   4.594850   5.159436   5.824454
    34  H    3.799682   3.444917   2.853620   2.874682   4.269044
    35  H    2.830960   2.402234   2.618003   3.278947   4.023480
    36  H    3.930529   2.773619   2.750157   4.251425   3.003015
    37  H    5.704792   4.700910   5.108763   6.635560   5.013096
    38  H    2.435059   2.607093   4.072752   4.867548   4.399419
    39  H    4.808611   4.609039   5.923775   7.045017   5.950021
    40  H    8.402996   7.569609   8.189068   9.698815   7.822431
    41  H    8.127216   7.657915   8.723898  10.083955   8.863615
    42  H    6.649952   6.356102   7.596036   8.836877   7.870373
    43  H    6.854228   6.322425   7.316332   8.667275   7.639866
    44  H    7.619507   7.086384   8.026575   9.360050   7.566900
                    6          7          8          9         10
     6  N    0.000000
     7  C    1.452774   0.000000
     8  C    2.414251   1.531349   0.000000
     9  O    2.832135   2.431084   1.407579   0.000000
    10  C    2.422186   2.800335   2.314984   1.407810   0.000000
    11  C    1.454452   2.363510   2.790594   2.426752   1.530141
    12  C    3.041379   4.384065   5.085561   5.366472   4.379360
    13  C    2.923396   4.047803   4.393817   4.772314   3.919700
    14  C    4.239732   5.243421   5.347915   5.706164   4.867620
    15  C    4.418925   5.773230   6.468434   6.689525   5.607743
    16  C    5.381806   6.665491   7.151479   7.387689   6.311650
    17  C    5.294073   6.429141   6.659365   6.948715   5.981255
    18  S    6.978685   8.015539   8.058990   8.339246   7.422079
    19  N    7.008039   7.818248   7.657523   8.051591   7.342916
    20  C    7.520899   8.658764   8.571052   8.552103   7.475119
    21  N    8.061077   9.152286   9.358122   9.689178   8.736184
    22  H    2.775338   2.795132   4.275383   4.761462   4.706688
    23  H    2.810225   3.499459   4.759984   4.795506   4.280055
    24  H    3.434416   4.055217   5.526903   5.943056   5.512520
    25  H    2.606434   3.084342   4.053984   5.024550   4.762366
    26  H    2.900097   2.900344   4.263825   5.279665   5.267864
    27  H    3.380732   4.045303   5.337033   6.147009   5.736427
    28  H    2.091963   1.089187   2.148620   3.353261   3.778793
    29  H    2.129592   1.102458   2.151785   2.698795   3.201260
    30  H    3.371037   2.171519   1.091304   2.008048   3.236180
    31  H    2.669282   2.159776   1.101130   2.060290   2.602407
    32  H    2.685134   3.227627   2.608048   2.061563   1.101019
    33  H    3.376773   3.769465   3.236267   2.008758   1.091159
    34  H    2.127822   2.631569   3.194209   2.696201   2.149655
    35  H    2.090865   3.318670   3.773440   3.356867   2.156335
    36  H    2.179755   3.106882   3.332275   3.812645   3.153766
    37  H    4.680572   5.464385   5.301378   5.701474   5.027184
    38  H    4.909564   6.286946   7.135426   7.307722   6.198293
    39  H    6.417253   7.718785   8.229117   8.438443   7.324742
    40  H    7.966477   8.719418   8.511675   8.936003   8.278952
    41  H    8.544894   9.638850   9.473400   9.450108   8.410418
    42  H    7.600713   8.847361   8.903498   8.831518   7.655145
    43  H    6.987660   8.079842   7.857011   7.732633   6.662284
    44  H    8.321812   9.332923   9.594254  10.059299   9.196865
                   11         12         13         14         15
    11  C    0.000000
    12  C    3.511467   0.000000
    13  C    3.505505   1.394839   0.000000
    14  C    4.732282   2.406818   1.383119   0.000000
    15  C    4.758320   1.397562   2.410397   2.773375   0.000000
    16  C    5.726297   2.412242   2.782333   2.409010   1.380865
    17  C    5.699270   2.764689   2.389306   1.381389   2.383644
    18  S    7.352423   4.574025   4.062715   2.774913   4.042271
    19  N    7.495317   5.132983   4.239603   2.869479   4.975797
    20  C    7.543117   5.174566   4.777409   3.639763   4.577650
    21  N    8.493427   5.367846   5.157621   4.017414   4.510788
    22  H    3.429020   4.741086   5.201259   6.564186   5.849000
    23  H    2.794025   4.164898   4.903707   6.268246   5.114779
    24  H    4.032698   4.113402   4.991119   6.296046   4.890426
    25  H    3.978780   2.836517   2.658863   3.653555   3.921686
    26  H    4.259555   4.073359   4.220282   5.363495   5.147457
    27  H    4.563742   3.051400   3.622262   4.669211   3.783613
    28  H    3.319568   4.570129   4.183923   5.302732   5.918815
    29  H    2.634360   5.121558   4.984425   6.241429   6.477008
    30  H    3.764235   6.117478   5.404655   6.305843   7.505500
    31  H    3.208970   4.778606   3.836224   4.586755   6.110868
    32  H    2.160341   3.994183   3.267012   3.998789   5.159034
    33  H    2.170059   5.082283   4.732041   5.594575   6.189751
    34  H    1.102238   4.376478   4.542488   5.806855   5.565976
    35  H    1.091523   2.954404   3.209598   4.378709   4.021759
    36  H    2.899590   2.140110   1.078155   2.143248   3.384897
    37  H    5.183907   3.398103   2.159056   1.078195   3.850816
    38  H    5.166887   2.136246   3.381220   3.853087   1.079887
    39  H    6.716734   3.401613   3.861711   3.376567   2.154503
    40  H    8.479307   6.109664   5.226073   3.865417   5.890594
    41  H    8.565298   6.241131   5.789903   4.581574   5.620858
    42  H    7.553428   5.032838   4.931352   3.987425   4.213539
    43  H    6.889280   4.973566   4.426545   3.370198   4.633246
    44  H    8.907154   5.695223   5.463159   4.357541   4.892581
                   16         17         18         19         20
    16  C    0.000000
    17  C    1.382874   0.000000
    18  S    2.752054   1.809434   0.000000
    19  N    3.878766   2.609372   1.537590   0.000000
    20  C    3.386046   2.759946   1.829796   2.826585   0.000000
    21  N    3.148854   2.803933   1.536586   2.726108   2.602733
    22  H    7.086334   7.379284   9.149896   9.333636   9.821999
    23  H    6.435445   6.911795   8.716879   9.129665   9.102504
    24  H    6.214220   6.804500   8.589949   9.031101   9.266179
    25  H    4.649298   4.527850   6.082669   6.029995   7.206058
    26  H    6.114638   6.195909   7.810266   7.802084   8.876354
    27  H    4.789962   5.155508   6.793563   7.073706   7.872890
    28  H    6.753492   6.480309   8.015655   7.731941   8.874075
    29  H    7.486797   7.372073   9.010759   8.881329   9.584544
    30  H    8.178162   7.642569   8.982751   8.468323   9.547045
    31  H    6.608462   5.947552   7.216788   6.691926   7.801452
    32  H    5.656337   5.150355   6.472525   6.318814   6.528938
    33  H    6.877976   6.602682   7.979805   7.976465   7.794971
    34  H    6.641484   6.727824   8.410757   8.590732   8.564225
    35  H    5.010277   5.140844   6.808669   7.152065   6.856055
    36  H    3.860356   3.371522   4.918106   4.833906   5.602538
    37  H    3.369623   2.116969   2.869771   2.395599   3.760121
    38  H    2.145950   3.371253   4.897976   5.954926   5.315256
    39  H    1.079877   2.128248   2.845163   4.220226   3.333164
    40  H    4.727759   3.539274   2.154532   1.006499   3.302560
    41  H    4.376927   3.726386   2.398293   3.136460   1.083397
    42  H    3.070412   2.915087   2.388686   3.690007   1.081792
    43  H    3.650660   2.873037   2.403707   2.998276   1.083445
    44  H    3.617239   3.267537   2.155254   2.932232   3.543438
                   21         22         23         24         25
    21  N    0.000000
    22  H    9.966635   0.000000
    23  H    9.509575   1.774099   0.000000
    24  H    9.181333   1.767320   1.756709   0.000000
    25  H    6.898927   3.708360   4.307501   3.730825   0.000000
    26  H    8.550912   2.485801   3.684571   2.819437   1.772523
    27  H    7.316306   3.301963   3.776999   2.590547   1.764565
    28  H    9.082011   2.940429   4.028758   4.129500   2.576467
    29  H   10.115689   2.354783   3.181166   3.921993   3.913388
    30  H   10.290017   4.743410   5.470793   6.187001   4.768537
    31  H    8.554264   4.918548   5.355071   5.951578   3.771198
    32  H    7.845828   5.318627   4.922368   5.945002   4.559386
    33  H    9.297999   5.396793   4.725504   6.157013   5.790784
    34  H    9.507659   3.091878   2.356360   3.893817   4.664337
    35  H    7.876309   3.937143   2.886816   4.075689   4.208704
    36  H    6.107863   4.709477   4.622193   4.868170   2.374917
    37  H    4.275302   7.155936   7.001071   7.092098   4.115352
    38  H    5.131028   5.887025   4.997966   4.664260   4.495813
    39  H    2.722427   7.976089   7.255515   6.954922   5.605363
    40  H    2.916558  10.271908  10.115673   9.968089   6.877845
    41  H    2.847482  10.882480  10.182682  10.337392   8.169768
    42  H    2.727500   9.725809   8.865339   9.009463   7.345627
    43  H    3.533501   9.435236   8.698375   9.041052   6.985914
    44  H    1.006919  10.104185   9.800771   9.312982   6.862067
                   26         27         28         29         30
    26  H    0.000000
    27  H    1.758527   0.000000
    28  H    2.236014   3.644371   0.000000
    29  H    3.277394   4.530245   1.786746   0.000000
    30  H    4.744464   6.047466   2.511178   2.463540   0.000000
    31  H    4.398498   5.292621   2.456878   3.061474   1.788564
    32  H    5.419992   5.718673   4.016216   3.905172   3.586176
    33  H    6.247475   6.646484   4.797372   3.969083   4.009697
    34  H    4.546920   5.005593   3.639421   2.419004   3.968840
    35  H    4.695620   4.586952   4.158115   3.639909   4.795495
    36  H    3.797162   3.674565   3.284799   4.106136   4.331265
    37  H    5.844359   5.392608   5.480768   6.520544   6.168546
    38  H    5.439521   3.929968   6.454208   6.855415   8.164796
    39  H    7.015648   5.567727   7.792819   8.514646   9.257599
    40  H    8.642531   7.922486   8.582881   9.795616   9.271908
    41  H    9.869643   8.875817   9.832628  10.585317  10.417158
    42  H    8.930871   7.782547   9.103790   9.707389   9.927070
    43  H    8.633341   7.796659   8.383910   8.991899   8.822744
    44  H    8.487492   7.257126   9.144993  10.312825  10.477690
                   31         32         33         34         35
    31  H    0.000000
    32  H    2.408170   0.000000
    33  H    3.584407   1.788252   0.000000
    34  H    3.891032   3.060609   2.457147   0.000000
    35  H    4.001002   2.464825   2.521954   1.784639   0.000000
    36  H    2.767738   2.549965   4.094335   3.946293   2.935176
    37  H    4.388893   4.044910   5.761923   6.280859   4.983930
    38  H    6.903072   5.894943   6.707036   5.816254   4.359235
    39  H    7.684802   6.672194   7.832466   7.593291   5.935937
    40  H    7.509863   7.237971   8.905215   9.576616   8.153763
    41  H    8.656381   7.430554   8.699716   9.593264   7.897746
    42  H    8.229002   6.803027   7.924696   8.514163   6.750852
    43  H    7.100332   5.693342   6.918979   7.912219   6.245907
    44  H    8.767253   8.318179   9.844144   9.918156   8.364526
                   36         37         38         39         40
    36  H    0.000000
    37  H    2.505476   0.000000
    38  H    4.265253   4.930669   0.000000
    39  H    4.939821   4.239710   2.503823   0.000000
    40  H    5.789682   3.333793   6.833489   4.925290   0.000000
    41  H    6.577767   4.546726   6.329314   4.192996   3.291225
    42  H    5.850309   4.365303   4.772524   2.786917   4.208008
    43  H    5.115333   3.376614   5.446042   3.869294   3.603044
    44  H    6.373138   4.562089   5.496852   3.240674   2.962668
                   41         42         43         44
    41  H    0.000000
    42  H    1.774889   0.000000
    43  H    1.785285   1.791166   0.000000
    44  H    3.733273   3.727315   4.410721   0.000000
 Stoichiometry    C15H23N3O2S
 Framework group  C1[X(C15H23N3O2S)]
 Deg. of freedom   126
 Full point group                 C1      NOp   1
 Largest Abelian subgroup         C1      NOp   1
 Largest concise Abelian subgroup C1      NOp   1
                         Standard orientation:                         
 ---------------------------------------------------------------------
 Center     Atomic      Atomic             Coordinates (Angstroms)
 Number     Number       Type             X           Y           Z
 ---------------------------------------------------------------------
      1          8           0        1.456605   -2.649729   -1.177606
      2          6           0        1.314979   -1.721883   -0.413574
      3          6           0        2.487530   -1.220380    0.451767
      4          6           0        3.718136   -2.091712    0.156289
      5          6           0        2.058193   -1.438014    1.912574
      6          7           0        2.689905    0.203732    0.177106
      7          6           0        3.690672    0.884878    0.980260
      8          6           0        3.537315    2.390863    0.748914
      9          8           0        3.711435    2.726155   -0.607014
     10          6           0        2.791297    2.028591   -1.412421
     11          6           0        2.922636    0.515750   -1.224291
     12          6           0       -0.026398   -1.105126   -0.221115
     13          6           0       -0.232013    0.184822    0.268101
     14          6           0       -1.517064    0.677452    0.405867
     15          6           0       -1.129389   -1.890614   -0.566942
     16          6           0       -2.412245   -1.402098   -0.417209
     17          6           0       -2.593153   -0.117841    0.062682
     18         16           0       -4.281902    0.506419    0.242905
     19          7           0       -4.080237    1.725282    1.158265
     20          6           0       -4.603351    0.938701   -1.505796
     21          7           0       -5.325925   -0.598698    0.466135
     22          1           0        4.569121   -1.758144    0.744635
     23          1           0        3.971962   -2.053317   -0.899659
     24          1           0        3.500681   -3.125498    0.409672
     25          1           0        1.344246   -0.682167    2.225980
     26          1           0        2.921128   -1.413311    2.573410
     27          1           0        1.590935   -2.415977    2.009792
     28          1           0        3.528955    0.670257    2.035777
     29          1           0        4.716685    0.591646    0.703267
     30          1           0        4.298607    2.944775    1.300784
     31          1           0        2.538656    2.708649    1.086821
     32          1           0        1.764571    2.338451   -1.163296
     33          1           0        3.012781    2.308667   -2.443504
     34          1           0        3.929733    0.210501   -1.552173
     35          1           0        2.180610    0.005449   -1.841067
     36          1           0        0.620021    0.797475    0.515310
     37          1           0       -1.714153    1.666180    0.788069
     38          1           0       -0.955806   -2.886750   -0.946072
     39          1           0       -3.279270   -1.999832   -0.656200
     40          1           0       -4.927363    2.066645    1.581218
     41          1           0       -5.592380    1.376624   -1.567399
     42          1           0       -4.566034    0.021887   -2.078801
     43          1           0       -3.846727    1.643263   -1.829778
     44          1           0       -5.469916   -0.842122    1.432518
 ---------------------------------------------------------------------
 Rotational constants (GHZ):           0.5171401           0.1492508           0.1309787
 Standard basis: def2SVP (5D, 7F)
 There are   434 symmetry adapted cartesian basis functions of A   symmetry.
 There are   413 symmetry adapted basis functions of A   symmetry.
   413 basis functions,   698 primitive gaussians,   434 cartesian basis functions
    83 alpha electrons       83 beta electrons
       nuclear repulsion energy      1927.8867376589 Hartrees.
 NAtoms=   44 NActive=   44 NUniq=   44 SFac= 1.00D+00 NAtFMM=   60 NAOKFM=F Big=F
 Integral buffers will be    131072 words long.
 Raffenetti 2 integral format.
 Two-electron integral symmetry is turned on.
 Nuclear repulsion after empirical dispersion term =     1927.8328758160 Hartrees.
 One-electron integrals computed using PRISM.
   1 Symmetry operations used in ECPInt.
 ECPInt:  NShTT=   19503 NPrTT=   70103 LenC2=   17298 LenP2D=   43760.
 LDataN:  DoStor=T MaxTD1= 4 Len=   56
 NBasis=   413 RedAO= T EigKep=  2.38D-04  NBF=   413
 NBsUse=   413 1.00D-06 EigRej= -1.00D+00 NBFU=   413
 ExpMin= 1.22D-01 ExpMax= 9.18D+03 ExpMxC= 1.38D+03 IAcc=3 IRadAn=         5 AccDes= 0.00D+00
 Harris functional with IExCor= 1009 and IRadAn=       5 diagonalized for initial guess.
 HarFok:  IExCor= 1009 AccDes= 0.00D+00 IRadAn=         5 IDoV= 1 UseB2=F ITyADJ=14
 ICtDFT=  3500011 ScaDFX=  1.000000  1.000000  1.000000  1.000000
 FoFCou: FMM=F IPFlag=           0 FMFlag=      100000 FMFlg1=           0
         NFxFlg=           0 DoJE=T BraDBF=F KetDBF=T FulRan=T
         wScrn=  0.000000 ICntrl=       500 IOpCl=  0 I1Cent=   200000004 NGrid=           0
         NMat0=    1 NMatS0=      1 NMatT0=    0 NMatD0=    1 NMtDS0=    0 NMtDT0=    0
 Petite list used in FoFCou.
 Requested convergence on RMS density matrix=1.00D-08 within 128 cycles.
 Requested convergence on MAX density matrix=1.00D-06.
 Requested convergence on             energy=1.00D-06.
 No special actions if energy rises.
 Integral accuracy reduced to 1.0D-05 until final iterations.
 Initial convergence to 1.0D-05 achieved.  Increase integral accuracy.
 SCF Done:  E(RPBE1PBE) =  -1296.27807119     A.U. after   14 cycles
            NFock= 14  Conv=0.97D-08     -V/T= 2.0072

 **********************************************************************

            Population analysis using the SCF Density.

 **********************************************************************

 Orbital symmetries:
       Occupied  (A) (A) (A) (A) (A) (A) (A) (A) (A) (A) (A) (A)
                 (A) (A) (A) (A) (A) (A) (A) (A) (A) (A) (A) (A)
                 (A) (A) (A) (A) (A) (A) (A) (A) (A) (A) (A) (A)
                 (A) (A) (A) (A) (A) (A) (A) (A) (A) (A) (A) (A)
                 (A) (A) (A) (A) (A) (A) (A) (A) (A) (A) (A) (A)
                 (A) (A) (A) (A) (A) (A) (A) (A) (A) (A) (A) (A)
                 (A) (A) (A) (A) (A) (A) (A) (A) (A) (A) (A)
       Virtual   (A) (A) (A) (A) (A) (A) (A) (A) (A) (A) (A) (A)
                 (A) (A) (A) (A) (A) (A) (A) (A) (A) (A) (A) (A)
                 (A) (A) (A) (A) (A) (A) (A) (A) (A) (A) (A) (A)
                 (A) (A) (A) (A) (A) (A) (A) (A) (A) (A) (A) (A)
                 (A) (A) (A) (A) (A) (A) (A) (A) (A) (A) (A) (A)
                 (A) (A) (A) (A) (A) (A) (A) (A) (A) (A) (A) (A)
                 (A) (A) (A) (A) (A) (A) (A) (A) (A) (A) (A) (A)
                 (A) (A) (A) (A) (A) (A) (A) (A) (A) (A) (A) (A)
                 (A) (A) (A) (A) (A) (A) (A) (A) (A) (A) (A) (A)
                 (A) (A) (A) (A) (A) (A) (A) (A) (A) (A) (A) (A)
                 (A) (A) (A) (A) (A) (A) (A) (A) (A) (A) (A) (A)
                 (A) (A) (A) (A) (A) (A) (A) (A) (A) (A) (A) (A)
                 (A) (A) (A) (A) (A) (A) (A) (A) (A) (A) (A) (A)
                 (A) (A) (A) (A) (A) (A) (A) (A) (A) (A) (A) (A)
                 (A) (A) (A) (A) (A) (A) (A) (A) (A) (A) (A) (A)
                 (A) (A) (A) (A) (A) (A) (A) (A) (A) (A) (A) (A)
                 (A) (A) (A) (A) (A) (A) (A) (A) (A) (A) (A) (A)
                 (A) (A) (A) (A) (A) (A) (A) (A) (A) (A) (A) (A)
                 (A) (A) (A) (A) (A) (A) (A) (A) (A) (A) (A) (A)
                 (A) (A) (A) (A) (A) (A) (A) (A) (A) (A) (A) (A)
                 (A) (A) (A) (A) (A) (A) (A) (A) (A) (A) (A) (A)
                 (A) (A) (A) (A) (A) (A) (A) (A) (A) (A) (A) (A)
                 (A) (A) (A) (A) (A) (A) (A) (A) (A) (A) (A) (A)
                 (A) (A) (A) (A) (A) (A) (A) (A) (A) (A) (A) (A)
                 (A) (A) (A) (A) (A) (A) (A) (A) (A) (A) (A) (A)
                 (A) (A) (A) (A) (A) (A) (A) (A) (A) (A) (A) (A)
                 (A) (A) (A) (A) (A) (A) (A) (A) (A) (A) (A) (A)
                 (A) (A) (A) (A) (A) (A)
 The electronic state is 1-A.
 Alpha  occ. eigenvalues --  -89.18441 -19.21520 -19.21129 -14.40052 -14.34651
 Alpha  occ. eigenvalues --  -14.34588 -10.32760 -10.28446 -10.28111 -10.27999
 Alpha  occ. eigenvalues --  -10.26857 -10.26465 -10.26302 -10.25835 -10.25711
 Alpha  occ. eigenvalues --  -10.25575 -10.25347 -10.25046 -10.24886 -10.23738
 Alpha  occ. eigenvalues --  -10.22297  -8.15857  -6.09990  -6.09891  -6.09865
 Alpha  occ. eigenvalues --   -1.07484  -1.06789  -1.00696  -0.96465  -0.89994
 Alpha  occ. eigenvalues --   -0.85451  -0.82469  -0.80074  -0.79582  -0.78223
 Alpha  occ. eigenvalues --   -0.76352  -0.71476  -0.70892  -0.69161  -0.67459
 Alpha  occ. eigenvalues --   -0.64767  -0.63547  -0.61136  -0.58674  -0.57193
 Alpha  occ. eigenvalues --   -0.55429  -0.54238  -0.51418  -0.50392  -0.49740
 Alpha  occ. eigenvalues --   -0.49214  -0.48897  -0.47763  -0.47400  -0.47364
 Alpha  occ. eigenvalues --   -0.46505  -0.46111  -0.45892  -0.44894  -0.44464
 Alpha  occ. eigenvalues --   -0.43993  -0.43423  -0.41687  -0.40731  -0.40646
 Alpha  occ. eigenvalues --   -0.40134  -0.39332  -0.38992  -0.38648  -0.37450
 Alpha  occ. eigenvalues --   -0.37170  -0.36928  -0.35874  -0.34858  -0.32517
 Alpha  occ. eigenvalues --   -0.29096  -0.28714  -0.28056  -0.27082  -0.26952
 Alpha  occ. eigenvalues --   -0.25858  -0.24401  -0.23515
 Alpha virt. eigenvalues --   -0.06837  -0.01929   0.01458   0.05950   0.06690
 Alpha virt. eigenvalues --    0.07456   0.08074   0.08381   0.09147   0.09576
 Alpha virt. eigenvalues --    0.09887   0.10490   0.10991   0.11264   0.11602
 Alpha virt. eigenvalues --    0.12145   0.13039   0.13221   0.13793   0.14297
 Alpha virt. eigenvalues --    0.14464   0.14590   0.14851   0.15633   0.16441
 Alpha virt. eigenvalues --    0.17068   0.17310   0.18048   0.18240   0.18784
 Alpha virt. eigenvalues --    0.19438   0.20194   0.20622   0.20977   0.23112
 Alpha virt. eigenvalues --    0.23654   0.24622   0.25894   0.26312   0.27097
 Alpha virt. eigenvalues --    0.27891   0.28732   0.29799   0.30987   0.32232
 Alpha virt. eigenvalues --    0.33155   0.35387   0.36889   0.38351   0.41588
 Alpha virt. eigenvalues --    0.41791   0.42026   0.42128   0.43364   0.44020
 Alpha virt. eigenvalues --    0.45166   0.46450   0.47215   0.47519   0.48060
 Alpha virt. eigenvalues --    0.48520   0.49465   0.50089   0.51057   0.51435
 Alpha virt. eigenvalues --    0.52349   0.53269   0.54341   0.54860   0.56115
 Alpha virt. eigenvalues --    0.56571   0.57343   0.58015   0.59693   0.59928
 Alpha virt. eigenvalues --    0.60762   0.62017   0.62665   0.63450   0.63772
 Alpha virt. eigenvalues --    0.64546   0.64821   0.65308   0.65632   0.66030
 Alpha virt. eigenvalues --    0.66355   0.66610   0.66968   0.67180   0.67297
 Alpha virt. eigenvalues --    0.67879   0.68412   0.68655   0.69010   0.69059
 Alpha virt. eigenvalues --    0.69411   0.69873   0.70067   0.70363   0.70567
 Alpha virt. eigenvalues --    0.71281   0.71527   0.72089   0.72607   0.72920
 Alpha virt. eigenvalues --    0.73970   0.74464   0.74832   0.75414   0.75865
 Alpha virt. eigenvalues --    0.76640   0.77436   0.78661   0.79233   0.79897
 Alpha virt. eigenvalues --    0.82140   0.82392   0.82858   0.82895   0.84899
 Alpha virt. eigenvalues --    0.85982   0.86963   0.87803   0.89487   0.89970
 Alpha virt. eigenvalues --    0.90746   0.92003   0.92465   0.94867   0.95230
 Alpha virt. eigenvalues --    0.97096   0.97897   0.99582   1.00852   1.04085
 Alpha virt. eigenvalues --    1.04724   1.05884   1.06809   1.08192   1.10613
 Alpha virt. eigenvalues --    1.11567   1.13290   1.14873   1.15549   1.16420
 Alpha virt. eigenvalues --    1.17223   1.18590   1.20978   1.21312   1.21487
 Alpha virt. eigenvalues --    1.22522   1.23426   1.24133   1.24725   1.25428
 Alpha virt. eigenvalues --    1.26951   1.27840   1.28704   1.30387   1.31161
 Alpha virt. eigenvalues --    1.32722   1.33659   1.35137   1.36515   1.36914
 Alpha virt. eigenvalues --    1.38598   1.39460   1.42928   1.44509   1.45164
 Alpha virt. eigenvalues --    1.47271   1.47778   1.49184   1.50471   1.50961
 Alpha virt. eigenvalues --    1.52211   1.54140   1.54875   1.55507   1.56898
 Alpha virt. eigenvalues --    1.57280   1.58052   1.59445   1.63155   1.64741
 Alpha virt. eigenvalues --    1.66459   1.68339   1.69919   1.70948   1.71496
 Alpha virt. eigenvalues --    1.72535   1.73704   1.73854   1.74903   1.75164
 Alpha virt. eigenvalues --    1.76456   1.76854   1.77499   1.77892   1.78007
 Alpha virt. eigenvalues --    1.78351   1.78758   1.79064   1.79876   1.80818
 Alpha virt. eigenvalues --    1.81398   1.83000   1.83647   1.84064   1.84362
 Alpha virt. eigenvalues --    1.84869   1.86187   1.86806   1.88399   1.88720
 Alpha virt. eigenvalues --    1.89794   1.90989   1.91543   1.93008   1.93459
 Alpha virt. eigenvalues --    1.93578   1.94023   1.94191   1.95946   1.96994
 Alpha virt. eigenvalues --    1.97174   1.97317   1.97836   1.99498   2.01226
 Alpha virt. eigenvalues --    2.01443   2.02665   2.03229   2.05080   2.06458
 Alpha virt. eigenvalues --    2.06762   2.10637   2.10814   2.12160   2.13311
 Alpha virt. eigenvalues --    2.14614   2.15274   2.16095   2.16880   2.18334
 Alpha virt. eigenvalues --    2.18778   2.19871   2.21385   2.22378   2.23081
 Alpha virt. eigenvalues --    2.24500   2.26069   2.28678   2.30120   2.31518
 Alpha virt. eigenvalues --    2.32438   2.33499   2.34171   2.35079   2.37013
 Alpha virt. eigenvalues --    2.37414   2.38058   2.38833   2.40780   2.43545
 Alpha virt. eigenvalues --    2.44451   2.45125   2.46107   2.46843   2.47965
 Alpha virt. eigenvalues --    2.49931   2.52135   2.53163   2.54614   2.55163
 Alpha virt. eigenvalues --    2.56800   2.57420   2.57715   2.58235   2.59395
 Alpha virt. eigenvalues --    2.60736   2.61314   2.65571   2.66162   2.67575
 Alpha virt. eigenvalues --    2.68983   2.70154   2.72634   2.74150   2.74518
 Alpha virt. eigenvalues --    2.75455   2.75858   2.77497   2.77872   2.81169
 Alpha virt. eigenvalues --    2.84411   2.84656   2.87311   2.87659   2.89492
 Alpha virt. eigenvalues --    2.89974   2.91035   2.91689   2.92628   2.94821
 Alpha virt. eigenvalues --    2.95161   2.95376   2.96658   2.98467   2.99140
 Alpha virt. eigenvalues --    3.00116   3.00217   3.01086   3.06110   3.06205
 Alpha virt. eigenvalues --    3.11236   3.13268   3.15223   3.17327   3.19982
 Alpha virt. eigenvalues --    3.23243   3.25189   3.25988   3.28166   3.32378
 Alpha virt. eigenvalues --    3.33708   3.41324   3.55173   3.64232   3.66707
          Condensed to atoms (all electrons):
               1          2          3          4          5          6
     1  O    7.635493   0.763256  -0.136325   0.022731   0.000608   0.001214
     2  C    0.763256   5.133279   0.052869  -0.063172  -0.040483  -0.017508
     3  C   -0.136325   0.052869   5.842647   0.340599   0.378099   0.187245
     4  C    0.022731  -0.063172   0.340599   4.578892  -0.074731  -0.048422
     5  C    0.000608  -0.040483   0.378099  -0.074731   4.591298  -0.055862
     6  N    0.001214  -0.017508   0.187245  -0.048422  -0.055862   7.001234
     7  C   -0.000167   0.008244  -0.046571  -0.012514  -0.008180   0.311915
     8  C    0.000000  -0.000177   0.008959  -0.000461  -0.000149  -0.055445
     9  O   -0.000000   0.000064  -0.000600  -0.000113   0.000033  -0.006300
    10  C    0.000048   0.000059   0.009366  -0.000257  -0.000361  -0.051154
    11  C   -0.000908  -0.006929  -0.065734  -0.011046   0.010710   0.304193
    12  C   -0.129538   0.185608  -0.172353   0.018169   0.003761  -0.009779
    13  C    0.000555  -0.071459  -0.010953   0.000118  -0.006547  -0.031326
    14  C   -0.000080   0.011383  -0.002265   0.000047  -0.000631   0.002341
    15  C    0.014314  -0.079772   0.020303  -0.000553  -0.002570  -0.000078
    16  C    0.001323   0.017040  -0.000235  -0.000002  -0.000053  -0.000011
    17  C   -0.000028  -0.000280  -0.000161   0.000001  -0.000005  -0.000038
    18  S    0.000000   0.000020  -0.000001   0.000000   0.000000   0.000000
    19  N   -0.000000  -0.000000  -0.000000   0.000000  -0.000000   0.000000
    20  C   -0.000000  -0.000000  -0.000000  -0.000000   0.000000  -0.000000
    21  N    0.000000   0.000000   0.000000   0.000000  -0.000000  -0.000000
    22  H    0.000903   0.010435  -0.021975   0.389753  -0.007120  -0.005587
    23  H    0.006441  -0.012931  -0.001929   0.384312   0.007599  -0.006177
    24  H    0.003676  -0.005617  -0.012731   0.383394  -0.002477   0.006405
    25  H   -0.000070  -0.018034   0.001272   0.008193   0.380351  -0.003477
    26  H   -0.000172   0.005803  -0.010477  -0.009348   0.386396  -0.005226
    27  H    0.000952   0.000634  -0.032131   0.000308   0.392155   0.007025
    28  H   -0.000002   0.000723  -0.010773  -0.004248   0.013758  -0.026280
    29  H    0.000006  -0.000194  -0.011664   0.010024  -0.002481  -0.036776
    30  H   -0.000000   0.000013  -0.000389   0.000033   0.000004   0.005942
    31  H    0.000000  -0.000067  -0.000720   0.000029  -0.000238  -0.005107
    32  H   -0.000004  -0.000786  -0.000276  -0.000018  -0.000026  -0.008400
    33  H   -0.000000   0.000093  -0.000414   0.000033   0.000014   0.005888
    34  H   -0.000163  -0.005140  -0.005922   0.008997  -0.000506  -0.037778
    35  H    0.000871   0.025053  -0.014638  -0.004397   0.001279  -0.029017
    36  H   -0.000029  -0.030769   0.001987   0.001532  -0.007554   0.047986
    37  H    0.000001  -0.000201   0.000061  -0.000001  -0.000005  -0.000017
    38  H    0.017239  -0.019238   0.003195  -0.000120  -0.000291  -0.000036
    39  H   -0.000012  -0.000311   0.000008  -0.000000  -0.000001  -0.000000
    40  H    0.000000   0.000000  -0.000000  -0.000000  -0.000000   0.000000
    41  H    0.000000   0.000000   0.000000   0.000000  -0.000000   0.000000
    42  H    0.000000  -0.000001   0.000000  -0.000000  -0.000000  -0.000000
    43  H    0.000000  -0.000000   0.000000  -0.000000   0.000000   0.000000
    44  H    0.000000  -0.000000  -0.000000  -0.000000   0.000000   0.000000
               7          8          9         10         11         12
     1  O   -0.000167   0.000000  -0.000000   0.000048  -0.000908  -0.129538
     2  C    0.008244  -0.000177   0.000064   0.000059  -0.006929   0.185608
     3  C   -0.046571   0.008959  -0.000600   0.009366  -0.065734  -0.172353
     4  C   -0.012514  -0.000461  -0.000113  -0.000257  -0.011046   0.018169
     5  C   -0.008180  -0.000149   0.000033  -0.000361   0.010710   0.003761
     6  N    0.311915  -0.055445  -0.006300  -0.051154   0.304193  -0.009779
     7  C    4.734047   0.409957  -0.057092  -0.025006  -0.033306  -0.000456
     8  C    0.409957   4.449867   0.325175  -0.042837  -0.021809   0.000018
     9  O   -0.057092   0.325175   7.995318   0.320822  -0.053993  -0.000009
    10  C   -0.025006  -0.042837   0.320822   4.443735   0.404682   0.000624
    11  C   -0.033306  -0.021809  -0.053993   0.404682   4.774255   0.000508
    12  C   -0.000456   0.000018  -0.000009   0.000624   0.000508   5.773317
    13  C    0.000671   0.000219   0.000096  -0.001843   0.003809   0.256653
    14  C   -0.000105  -0.000035  -0.000000  -0.000249  -0.000344   0.106528
    15  C    0.000042  -0.000001  -0.000000  -0.000015  -0.000285   0.214537
    16  C   -0.000000   0.000000   0.000000   0.000001   0.000008   0.113476
    17  C   -0.000001   0.000000   0.000000   0.000002  -0.000009  -0.208552
    18  S   -0.000000  -0.000000  -0.000000   0.000000  -0.000000   0.000412
    19  N    0.000000  -0.000000   0.000000   0.000000  -0.000000  -0.000036
    20  C    0.000000  -0.000000   0.000000   0.000000  -0.000000  -0.000126
    21  N    0.000000  -0.000000   0.000000   0.000000   0.000000  -0.000038
    22  H    0.003363  -0.000009   0.000002  -0.000000  -0.001064  -0.000496
    23  H   -0.001156   0.000027   0.000002   0.000073   0.004217   0.001274
    24  H    0.000315   0.000008  -0.000000   0.000002   0.000301   0.000785
    25  H   -0.000736  -0.000445  -0.000002  -0.000026  -0.000181   0.010411
    26  H    0.000694  -0.000033  -0.000002  -0.000001  -0.000305  -0.000546
    27  H    0.000228   0.000001   0.000000   0.000015  -0.000283  -0.000873
    28  H    0.365774  -0.003531   0.004065   0.000701   0.008052   0.000065
    29  H    0.345277  -0.022270   0.002088  -0.003801  -0.008406  -0.000040
    30  H   -0.020732   0.378012  -0.025547   0.007047  -0.000035  -0.000003
    31  H   -0.036389   0.373984  -0.036131   0.004025  -0.009351  -0.000030
    32  H   -0.008214   0.003252  -0.035314   0.375490  -0.035795   0.000493
    33  H    0.000065   0.006895  -0.025146   0.378346  -0.019107  -0.000044
    34  H   -0.006528  -0.004420   0.001828  -0.017886   0.343485   0.000082
    35  H    0.007425   0.000611   0.003843  -0.006473   0.372592  -0.004549
    36  H   -0.004052  -0.001408  -0.000544  -0.002277  -0.006518  -0.059844
    37  H    0.000007  -0.000000  -0.000000   0.000009   0.000007   0.015463
    38  H    0.000003  -0.000000   0.000000  -0.000001  -0.000024  -0.079862
    39  H    0.000000  -0.000000  -0.000000   0.000000   0.000000   0.014566
    40  H   -0.000000   0.000000  -0.000000  -0.000000   0.000000   0.000007
    41  H   -0.000000   0.000000  -0.000000   0.000000  -0.000000   0.000003
    42  H    0.000000   0.000000  -0.000000   0.000000   0.000000   0.000015
    43  H    0.000000   0.000000  -0.000000  -0.000000   0.000000   0.000010
    44  H    0.000000  -0.000000   0.000000  -0.000000  -0.000000  -0.000001
              13         14         15         16         17         18
     1  O    0.000555  -0.000080   0.014314   0.001323  -0.000028   0.000000
     2  C   -0.071459   0.011383  -0.079772   0.017040  -0.000280   0.000020
     3  C   -0.010953  -0.002265   0.020303  -0.000235  -0.000161  -0.000001
     4  C    0.000118   0.000047  -0.000553  -0.000002   0.000001   0.000000
     5  C   -0.006547  -0.000631  -0.002570  -0.000053  -0.000005   0.000000
     6  N   -0.031326   0.002341  -0.000078  -0.000011  -0.000038   0.000000
     7  C    0.000671  -0.000105   0.000042  -0.000000  -0.000001  -0.000000
     8  C    0.000219  -0.000035  -0.000001   0.000000   0.000000  -0.000000
     9  O    0.000096  -0.000000  -0.000000   0.000000   0.000000  -0.000000
    10  C   -0.001843  -0.000249  -0.000015   0.000001   0.000002   0.000000
    11  C    0.003809  -0.000344  -0.000285   0.000008  -0.000009  -0.000000
    12  C    0.256653   0.106528   0.214537   0.113476  -0.208552   0.000412
    13  C    5.244021   0.195223   0.049653  -0.148926   0.118292   0.003444
    14  C    0.195223   5.144208  -0.136283   0.065445   0.218484  -0.031330
    15  C    0.049653  -0.136283   5.137378   0.228639   0.117317   0.000748
    16  C   -0.148926   0.065445   0.228639   5.210302   0.165821  -0.057543
    17  C    0.118292   0.218484   0.117317   0.165821   5.957112   0.119439
    18  S    0.003444  -0.031330   0.000748  -0.057543   0.119439  14.616333
    19  N    0.001888  -0.001157  -0.000041   0.006916  -0.103357   0.378141
    20  C   -0.000349  -0.005970  -0.000697  -0.003007  -0.117726   0.284581
    21  N    0.000043   0.003409   0.001472   0.007883  -0.066328   0.350557
    22  H   -0.000001   0.000000   0.000003   0.000000  -0.000000  -0.000000
    23  H   -0.000059  -0.000000  -0.000022  -0.000001   0.000000   0.000000
    24  H   -0.000020  -0.000001   0.000024   0.000001   0.000000  -0.000000
    25  H   -0.000922   0.000259  -0.000238   0.000013  -0.000095   0.000001
    26  H    0.000261  -0.000013   0.000094   0.000001  -0.000001   0.000000
    27  H   -0.000250   0.000101  -0.000538   0.000014  -0.000000  -0.000000
    28  H    0.000207  -0.000044   0.000003   0.000000   0.000000  -0.000000
    29  H   -0.000227   0.000010  -0.000001  -0.000000  -0.000000   0.000000
    30  H   -0.000015   0.000001   0.000000   0.000000  -0.000000   0.000000
    31  H   -0.001872   0.000122   0.000001  -0.000000  -0.000001   0.000000
    32  H   -0.000819   0.000458   0.000038  -0.000011  -0.000019  -0.000000
    33  H   -0.000003   0.000014  -0.000001   0.000000  -0.000000   0.000000
    34  H   -0.000408   0.000026   0.000009  -0.000001  -0.000001   0.000000
    35  H    0.001970  -0.000380   0.000158  -0.000028   0.000042  -0.000000
    36  H    0.431121  -0.063471   0.015012  -0.002712   0.016689  -0.000099
    37  H   -0.065075   0.452919  -0.002062   0.013640  -0.068731  -0.012538
    38  H    0.013633  -0.002113   0.468528  -0.073687   0.016647  -0.000144
    39  H   -0.001877   0.012101  -0.052210   0.446409  -0.082732  -0.007668
    40  H   -0.000052  -0.000345  -0.000009  -0.000322   0.011609  -0.018662
    41  H    0.000002  -0.000003   0.000000   0.000082   0.007451  -0.007474
    42  H   -0.000006   0.000223   0.000280   0.003547   0.000934  -0.005395
    43  H    0.000225   0.002324   0.000025  -0.001439   0.005870  -0.015203
    44  H   -0.000034  -0.000042  -0.000118  -0.000940  -0.002104  -0.012016
              19         20         21         22         23         24
     1  O   -0.000000  -0.000000   0.000000   0.000903   0.006441   0.003676
     2  C   -0.000000  -0.000000   0.000000   0.010435  -0.012931  -0.005617
     3  C   -0.000000  -0.000000   0.000000  -0.021975  -0.001929  -0.012731
     4  C    0.000000  -0.000000   0.000000   0.389753   0.384312   0.383394
     5  C   -0.000000   0.000000  -0.000000  -0.007120   0.007599  -0.002477
     6  N    0.000000  -0.000000  -0.000000  -0.005587  -0.006177   0.006405
     7  C    0.000000   0.000000   0.000000   0.003363  -0.001156   0.000315
     8  C   -0.000000  -0.000000  -0.000000  -0.000009   0.000027   0.000008
     9  O    0.000000   0.000000   0.000000   0.000002   0.000002  -0.000000
    10  C    0.000000   0.000000   0.000000  -0.000000   0.000073   0.000002
    11  C   -0.000000  -0.000000   0.000000  -0.001064   0.004217   0.000301
    12  C   -0.000036  -0.000126  -0.000038  -0.000496   0.001274   0.000785
    13  C    0.001888  -0.000349   0.000043  -0.000001  -0.000059  -0.000020
    14  C   -0.001157  -0.005970   0.003409   0.000000  -0.000000  -0.000001
    15  C   -0.000041  -0.000697   0.001472   0.000003  -0.000022   0.000024
    16  C    0.006916  -0.003007   0.007883   0.000000  -0.000001   0.000001
    17  C   -0.103357  -0.117726  -0.066328  -0.000000   0.000000   0.000000
    18  S    0.378141   0.284581   0.350557  -0.000000   0.000000  -0.000000
    19  N    6.866009  -0.047659  -0.040434  -0.000000   0.000000  -0.000000
    20  C   -0.047659   4.951140  -0.097695   0.000000  -0.000000   0.000000
    21  N   -0.040434  -0.097695   6.910213  -0.000000   0.000000  -0.000000
    22  H   -0.000000   0.000000  -0.000000   0.639842  -0.023292  -0.021718
    23  H    0.000000  -0.000000   0.000000  -0.023292   0.612595  -0.017095
    24  H   -0.000000   0.000000  -0.000000  -0.021718  -0.017095   0.625481
    25  H    0.000000   0.000000  -0.000000   0.000044  -0.000482   0.000074
    26  H    0.000000  -0.000000   0.000000   0.004457   0.000200  -0.001191
    27  H    0.000000   0.000000  -0.000000  -0.000571  -0.000130   0.003188
    28  H   -0.000000   0.000000   0.000000   0.000661   0.000053  -0.000004
    29  H    0.000000  -0.000000  -0.000000   0.000817  -0.000123  -0.000624
    30  H    0.000000  -0.000000  -0.000000   0.000023  -0.000001  -0.000001
    31  H    0.000000   0.000000   0.000000  -0.000022  -0.000005  -0.000001
    32  H   -0.000000  -0.000000   0.000000  -0.000006  -0.000020   0.000001
    33  H    0.000000  -0.000000  -0.000000   0.000003   0.000023  -0.000002
    34  H   -0.000000  -0.000000  -0.000000  -0.000155   0.001136  -0.000611
    35  H   -0.000000   0.000000   0.000000   0.000042   0.001153  -0.000001
    36  H   -0.000061   0.000007   0.000000  -0.000028  -0.000010  -0.000074
    37  H    0.032204   0.000859   0.000376  -0.000000  -0.000000  -0.000000
    38  H    0.000001   0.000019  -0.000009  -0.000001  -0.000008  -0.000009
    39  H    0.000675  -0.000227   0.021731   0.000000  -0.000000  -0.000000
    40  H    0.334373  -0.005120  -0.000468   0.000000  -0.000000   0.000000
    41  H    0.000561   0.363311   0.007294  -0.000000   0.000000  -0.000000
    42  H    0.003387   0.355453   0.003814   0.000000   0.000000  -0.000000
    43  H    0.003760   0.362648   0.006041  -0.000000   0.000000  -0.000000
    44  H   -0.001085   0.009197   0.326577   0.000000  -0.000000   0.000000
              25         26         27         28         29         30
     1  O   -0.000070  -0.000172   0.000952  -0.000002   0.000006  -0.000000
     2  C   -0.018034   0.005803   0.000634   0.000723  -0.000194   0.000013
     3  C    0.001272  -0.010477  -0.032131  -0.010773  -0.011664  -0.000389
     4  C    0.008193  -0.009348   0.000308  -0.004248   0.010024   0.000033
     5  C    0.380351   0.386396   0.392155   0.013758  -0.002481   0.000004
     6  N   -0.003477  -0.005226   0.007025  -0.026280  -0.036776   0.005942
     7  C   -0.000736   0.000694   0.000228   0.365774   0.345277  -0.020732
     8  C   -0.000445  -0.000033   0.000001  -0.003531  -0.022270   0.378012
     9  O   -0.000002  -0.000002   0.000000   0.004065   0.002088  -0.025547
    10  C   -0.000026  -0.000001   0.000015   0.000701  -0.003801   0.007047
    11  C   -0.000181  -0.000305  -0.000283   0.008052  -0.008406  -0.000035
    12  C    0.010411  -0.000546  -0.000873   0.000065  -0.000040  -0.000003
    13  C   -0.000922   0.000261  -0.000250   0.000207  -0.000227  -0.000015
    14  C    0.000259  -0.000013   0.000101  -0.000044   0.000010   0.000001
    15  C   -0.000238   0.000094  -0.000538   0.000003  -0.000001   0.000000
    16  C    0.000013   0.000001   0.000014   0.000000  -0.000000   0.000000
    17  C   -0.000095  -0.000001  -0.000000   0.000000  -0.000000  -0.000000
    18  S    0.000001   0.000000  -0.000000  -0.000000   0.000000   0.000000
    19  N    0.000000   0.000000   0.000000  -0.000000   0.000000   0.000000
    20  C    0.000000  -0.000000   0.000000   0.000000  -0.000000  -0.000000
    21  N   -0.000000   0.000000  -0.000000   0.000000  -0.000000  -0.000000
    22  H    0.000044   0.004457  -0.000571   0.000661   0.000817   0.000023
    23  H   -0.000482   0.000200  -0.000130   0.000053  -0.000123  -0.000001
    24  H    0.000074  -0.001191   0.003188  -0.000004  -0.000624  -0.000001
    25  H    0.609138  -0.021872  -0.016927   0.000616   0.000363   0.000015
    26  H   -0.021872   0.618294  -0.017406   0.001872  -0.000111   0.000006
    27  H   -0.016927  -0.017406   0.613323  -0.000486   0.000073   0.000001
    28  H    0.000616   0.001872  -0.000486   0.648530  -0.030403  -0.002389
    29  H    0.000363  -0.000111   0.000073  -0.030403   0.707868  -0.005143
    30  H    0.000015   0.000006   0.000001  -0.002389  -0.005143   0.654811
    31  H    0.000151   0.000035  -0.000003  -0.003300   0.010256  -0.029936
    32  H   -0.000006   0.000001   0.000001   0.000281   0.000894  -0.000190
    33  H    0.000001  -0.000000  -0.000000   0.000028   0.000211  -0.000310
    34  H    0.000038  -0.000016   0.000045  -0.000203   0.018408   0.000235
    35  H   -0.000023  -0.000019  -0.000067  -0.000220  -0.000297   0.000027
    36  H    0.004324  -0.000016   0.000313  -0.000862   0.001120   0.000090
    37  H    0.000053   0.000000  -0.000001   0.000001  -0.000000  -0.000000
    38  H   -0.000000   0.000011  -0.000106   0.000000   0.000000   0.000000
    39  H    0.000000   0.000000  -0.000001   0.000000  -0.000000   0.000000
    40  H    0.000000  -0.000000   0.000000  -0.000000   0.000000   0.000000
    41  H   -0.000000   0.000000  -0.000000  -0.000000   0.000000   0.000000
    42  H   -0.000000   0.000000  -0.000000   0.000000  -0.000000   0.000000
    43  H   -0.000000  -0.000000   0.000000   0.000000   0.000000   0.000000
    44  H    0.000000  -0.000000   0.000000  -0.000000  -0.000000   0.000000
              31         32         33         34         35         36
     1  O    0.000000  -0.000004  -0.000000  -0.000163   0.000871  -0.000029
     2  C   -0.000067  -0.000786   0.000093  -0.005140   0.025053  -0.030769
     3  C   -0.000720  -0.000276  -0.000414  -0.005922  -0.014638   0.001987
     4  C    0.000029  -0.000018   0.000033   0.008997  -0.004397   0.001532
     5  C   -0.000238  -0.000026   0.000014  -0.000506   0.001279  -0.007554
     6  N   -0.005107  -0.008400   0.005888  -0.037778  -0.029017   0.047986
     7  C   -0.036389  -0.008214   0.000065  -0.006528   0.007425  -0.004052
     8  C    0.373984   0.003252   0.006895  -0.004420   0.000611  -0.001408
     9  O   -0.036131  -0.035314  -0.025146   0.001828   0.003843  -0.000544
    10  C    0.004025   0.375490   0.378346  -0.017886  -0.006473  -0.002277
    11  C   -0.009351  -0.035795  -0.019107   0.343485   0.372592  -0.006518
    12  C   -0.000030   0.000493  -0.000044   0.000082  -0.004549  -0.059844
    13  C   -0.001872  -0.000819  -0.000003  -0.000408   0.001970   0.431121
    14  C    0.000122   0.000458   0.000014   0.000026  -0.000380  -0.063471
    15  C    0.000001   0.000038  -0.000001   0.000009   0.000158   0.015012
    16  C   -0.000000  -0.000011   0.000000  -0.000001  -0.000028  -0.002712
    17  C   -0.000001  -0.000019  -0.000000  -0.000001   0.000042   0.016689
    18  S    0.000000  -0.000000   0.000000   0.000000  -0.000000  -0.000099
    19  N    0.000000  -0.000000   0.000000  -0.000000  -0.000000  -0.000061
    20  C    0.000000  -0.000000  -0.000000  -0.000000   0.000000   0.000007
    21  N    0.000000   0.000000  -0.000000  -0.000000   0.000000   0.000000
    22  H   -0.000022  -0.000006   0.000003  -0.000155   0.000042  -0.000028
    23  H   -0.000005  -0.000020   0.000023   0.001136   0.001153  -0.000010
    24  H   -0.000001   0.000001  -0.000002  -0.000611  -0.000001  -0.000074
    25  H    0.000151  -0.000006   0.000001   0.000038  -0.000023   0.004324
    26  H    0.000035   0.000001  -0.000000  -0.000016  -0.000019  -0.000016
    27  H   -0.000003   0.000001  -0.000000   0.000045  -0.000067   0.000313
    28  H   -0.003300   0.000281   0.000028  -0.000203  -0.000220  -0.000862
    29  H    0.010256   0.000894   0.000211   0.018408  -0.000297   0.001120
    30  H   -0.029936  -0.000190  -0.000310   0.000235   0.000027   0.000090
    31  H    0.698544   0.011435  -0.000135   0.001092   0.000245   0.005446
    32  H    0.011435   0.697710  -0.030677   0.009515  -0.002434   0.007145
[...]
    29  H    0.011756   0.001324   0.000455   0.018702  -0.000084   0.002030
    30  H   -0.036593   0.000156  -0.000140   0.000428   0.000040   0.000205
    31  H    0.637704   0.012292   0.000139   0.001432   0.000685   0.006447
    32  H    0.012292   0.630452  -0.036547   0.011015   0.001821   0.003826
    33  H    0.000139  -0.036547   0.590764  -0.003160  -0.002388   0.000350
    34  H    0.001432   0.011015  -0.003160   0.632766  -0.028874   0.001997
    35  H    0.000685   0.001821  -0.002388  -0.028874   0.562209  -0.000961
    36  H    0.006447   0.003826   0.000350   0.001997  -0.000961   0.513341
    37  H    0.000045   0.000074  -0.000002  -0.000001   0.000018  -0.007196
    38  H    0.000000   0.000009  -0.000001   0.000013   0.000187   0.000014
    39  H   -0.000000  -0.000000   0.000000   0.000000  -0.000002   0.000105
    40  H   -0.000000   0.000000   0.000000   0.000000  -0.000000   0.000002
    41  H    0.000000   0.000000   0.000000   0.000000   0.000000   0.000000
    42  H    0.000000  -0.000000   0.000000   0.000000   0.000000   0.000006
    43  H    0.000000   0.000012   0.000000   0.000000  -0.000000   0.000007
    44  H    0.000000  -0.000000  -0.000000  -0.000000   0.000000  -0.000002
              37         38         39         40         41         42
     1  O    0.000007   0.028280  -0.000116   0.000000   0.000000   0.000000
     2  C    0.000138  -0.016091  -0.000326   0.000001  -0.000000   0.000026
     3  C    0.000120   0.005955  -0.000011  -0.000000  -0.000000  -0.000000
     4  C   -0.000003  -0.000340   0.000000  -0.000000  -0.000000  -0.000000
     5  C    0.000029  -0.000317  -0.000001   0.000000   0.000000  -0.000000
     6  N   -0.000187  -0.000113   0.000000   0.000000   0.000000  -0.000000
     7  C    0.000011   0.000011  -0.000000  -0.000000  -0.000000  -0.000000
     8  C    0.000005   0.000000  -0.000000   0.000000  -0.000000  -0.000000
     9  O   -0.000002  -0.000000   0.000000  -0.000000  -0.000000  -0.000000
    10  C    0.000008  -0.000005   0.000000  -0.000000   0.000000   0.000000
    11  C    0.000002  -0.000149  -0.000002   0.000000  -0.000000   0.000000
    12  C    0.013197  -0.073303   0.012840  -0.000029  -0.000030  -0.000075
    13  C   -0.068419   0.012661  -0.001431  -0.000021   0.000073  -0.000059
    14  C    0.443548  -0.003903   0.003535  -0.003475  -0.000847   0.001550
    15  C   -0.002632   0.463173  -0.064052   0.000095   0.000066   0.000387
    16  C    0.009566  -0.077102   0.457101  -0.001064  -0.000166  -0.010056
    17  C   -0.053270   0.015498  -0.072186   0.018862   0.007969   0.012148
    18  S   -0.001314  -0.000274  -0.001471  -0.019102  -0.014040  -0.012573
    19  N    0.025663  -0.000004   0.002185   0.311243   0.000871   0.004924
    20  C    0.001830   0.000038  -0.002734  -0.010010   0.372338   0.359867
    21  N    0.000921  -0.000032   0.021393  -0.000919   0.005115   0.002432
    22  H   -0.000000  -0.000002   0.000000   0.000000  -0.000000   0.000000
    23  H   -0.000000  -0.000022   0.000000  -0.000000   0.000000  -0.000000
    24  H    0.000000  -0.000037  -0.000000   0.000000  -0.000000   0.000000
    25  H    0.000026   0.000003   0.000001  -0.000000  -0.000000  -0.000000
    26  H    0.000001   0.000017  -0.000000  -0.000000   0.000000  -0.000000
    27  H   -0.000002  -0.000089   0.000000   0.000000  -0.000000   0.000000
    28  H    0.000005   0.000001  -0.000000  -0.000000  -0.000000   0.000000
    29  H   -0.000001   0.000001   0.000000   0.000000   0.000000  -0.000000
    30  H   -0.000000   0.000000  -0.000000  -0.000000   0.000000  -0.000000
    31  H    0.000045   0.000000  -0.000000  -0.000000   0.000000   0.000000
    32  H    0.000074   0.000009  -0.000000   0.000000   0.000000  -0.000000
    33  H   -0.000002  -0.000001   0.000000   0.000000   0.000000   0.000000
    34  H   -0.000001   0.000013   0.000000   0.000000   0.000000   0.000000
    35  H    0.000018   0.000187  -0.000002  -0.000000   0.000000   0.000000
    36  H   -0.007196   0.000014   0.000105   0.000002   0.000000   0.000006
    37  H    0.486095   0.000046  -0.000291  -0.001492  -0.000108  -0.000172
    38  H    0.000046   0.502941  -0.006632  -0.000000  -0.000001   0.000010
    39  H   -0.000291  -0.006632   0.495352  -0.000076  -0.000102  -0.000607
    40  H   -0.001492  -0.000000  -0.000076   0.488931   0.002088   0.000209
    41  H   -0.000108  -0.000001  -0.000102   0.002088   0.500470  -0.010555
    42  H   -0.000172   0.000010  -0.000607   0.000209  -0.010555   0.514609
    43  H    0.000268  -0.000002   0.000343   0.000083  -0.014288  -0.017140
    44  H    0.000027   0.000013  -0.003014  -0.000338  -0.000650  -0.000819
              43         44
     1  O    0.000000   0.000000
     2  C   -0.000005  -0.000001
     3  C   -0.000000   0.000000
     4  C   -0.000000   0.000000
     5  C    0.000000  -0.000000
     6  N    0.000000  -0.000000
     7  C   -0.000000   0.000000
     8  C    0.000000  -0.000000
     9  O   -0.000000   0.000000
    10  C   -0.000003   0.000000
    11  C    0.000001  -0.000000
    12  C   -0.000069  -0.000043
    13  C    0.000165   0.000015
    14  C   -0.007544   0.002560
    15  C   -0.000118  -0.000102
    16  C    0.004577  -0.005561
    17  C    0.007529   0.000852
    18  S   -0.022622  -0.024424
    19  N    0.003123  -0.002344
    20  C    0.376258   0.013560
    21  N    0.005523   0.312111
    22  H   -0.000000  -0.000000
    23  H   -0.000000  -0.000000
    24  H   -0.000000   0.000000
    25  H   -0.000000   0.000000
    26  H   -0.000000   0.000000
    27  H    0.000000   0.000000
    28  H    0.000000  -0.000000
    29  H    0.000000  -0.000000
    30  H    0.000000   0.000000
    31  H    0.000000   0.000000
    32  H    0.000012  -0.000000
    33  H    0.000000  -0.000000
    34  H    0.000000  -0.000000
    35  H   -0.000000   0.000000
    36  H    0.000007  -0.000002
    37  H    0.000268   0.000027
    38  H   -0.000002   0.000013
    39  H    0.000343  -0.003014
    40  H    0.000083  -0.000338
    41  H   -0.014288  -0.000650
    42  H   -0.017140  -0.000819
    43  H    0.511816  -0.000598
    44  H   -0.000598   0.491018
 Mulliken charges:
               1
     1  O   -0.290768
     2  C    0.110058
     3  C    0.254340
     4  C   -0.401290
     5  C   -0.442688
     6  N   -0.194506
     7  C   -0.151729
     8  C   -0.056013
     9  O   -0.269978
    10  C   -0.073929
    11  C   -0.144945
    12  C    0.086237
    13  C   -0.109520
    14  C   -0.251540
    15  C   -0.194510
    16  C   -0.176535
    17  C    0.139416
    18  S    0.458253
    19  N   -0.552969
    20  C   -0.344506
    21  N   -0.559061
    22  H    0.130762
    23  H    0.139091
    24  H    0.137524
    25  H    0.149218
    26  H    0.141275
    27  H    0.146666
    28  H    0.115258
    29  H    0.083054
    30  H    0.118204
    31  H    0.082041
    32  H    0.087141
    33  H    0.116030
    34  H    0.090730
    35  H    0.128238
    36  H    0.144649
    37  H    0.153443
    38  H    0.149547
    39  H    0.160197
    40  H    0.215011
    41  H    0.151797
    42  H    0.155887
    43  H    0.152680
    44  H    0.217740
 Sum of Mulliken charges =  -0.00000
 Mulliken charges with hydrogens summed into heavy atoms:
               1
     1  O   -0.290768
     2  C    0.110058
     3  C    0.254340
     4  C    0.006087
     5  C   -0.005529
     6  N   -0.194506
     7  C    0.046584
     8  C    0.144231
     9  O   -0.269978
    10  C    0.129242
    11  C    0.074023
    12  C    0.086237
    13  C    0.035129
    14  C   -0.098097
    15  C   -0.044963
    16  C   -0.016338
    17  C    0.139416
    18  S    0.458253
    19  N   -0.337958
    20  C    0.115858
    21  N   -0.341321
 Electronic spatial extent (au):  <R**2>=           8451.0521
 Charge=             -0.0000 electrons
 Dipole moment (field-independent basis, Debye):
    X=              1.1568    Y=              1.1915    Z=              0.3098  Tot=              1.6894
 Quadrupole moment (field-independent basis, Debye-Ang):
   XX=           -139.1789   YY=           -141.8062   ZZ=           -131.1819
   XY=             -6.8322   XZ=             10.8816   YZ=             -5.1983
 Traceless Quadrupole moment (field-independent basis, Debye-Ang):
   XX=             -1.7900   YY=             -4.4172   ZZ=              6.2071
   XY=             -6.8322   XZ=             10.8816   YZ=             -5.1983
 Octapole moment (field-independent basis, Debye-Ang**2):
  XXX=             50.8095  YYY=              6.0583  ZZZ=            -13.5136  XYY=            -36.5202
  XXY=             27.7424  XXZ=             17.7523  XZZ=              5.9305  YZZ=              8.0358
  YYZ=             15.8495  XYZ=             17.1309
 Hexadecapole moment (field-independent basis, Debye-Ang**3):
 XXXX=          -8700.4060 YYYY=          -2157.1753 ZZZZ=           -868.0837 XXXY=           -361.1992
 XXXZ=             17.4130 YYYX=            -14.8723 YYYZ=             -9.8736 ZZZX=             -0.3977
 ZZZY=            -18.5066 XXYY=          -1755.1719 XXZZ=          -1445.5131 YYZZ=           -480.9523
 XXYZ=            -22.9174 YYXZ=             61.9982 ZZXY=             33.5658
 N-N= 1.921526574742D+03 E-N=-6.883302472949D+03  KE= 1.292092769244D+03
 Breneman (CHELPG) radii used.
 Read replacement radii for each type of atom:
 Atom Element Radius
    1     8    1.70
    2     6    1.50
    3     6    1.50
    4     6    1.50
    5     6    1.50
    6     7    1.70
    7     6    1.50
    8     6    1.50
    9     8    1.70
   10     6    1.50
   11     6    1.50
   12     6    1.50
   13     6    1.50
   14     6    1.50
   15     6    1.50
   16     6    1.50
   17     6    1.50
   18    16    2.00
   19     7    1.70
   20     6    1.50
   21     7    1.70
   22     1    1.45
   23     1    1.45
   24     1    1.45
   25     1    1.45
   26     1    1.45
   27     1    1.45
   28     1    1.45
   29     1    1.45
   30     1    1.45
   31     1    1.45
   32     1    1.45
   33     1    1.45
   34     1    1.45
   35     1    1.45
   36     1    1.45
   37     1    1.45
   38     1    1.45
   39     1    1.45
   40     1    1.45
   41     1    1.45
   42     1    1.45
   43     1    1.45
   44     1    1.45
 Generate Potential Derived Charges using the Breneman model, NDens= 1.
 Grid spacing= 0.300 Box extension= 2.800
 NStep X,Y,Z=   55     40     37   Total possible points=       81400
 Number of Points to Fit=   22758

 **********************************************************************

            Electrostatic Properties Using The SCF Density.

 **********************************************************************

       Atomic Center    1 is at   1.429708 -2.745034 -1.023895
       Atomic Center    2 is at   1.333717 -1.751332 -0.338187
       Atomic Center    3 is at   2.584064 -1.216449  0.400271
       Atomic Center    4 is at   3.803414 -2.013595 -0.070850
       Atomic Center    5 is at   2.345169 -1.498403  1.891459
       Atomic Center    6 is at   2.704662  0.223126  0.154512
       Atomic Center    7 is at   3.708139  0.935209  0.920066
       Atomic Center    8 is at   3.537832  2.430945  0.713565
       Atomic Center    9 is at   3.603161  2.779765 -0.641517
       Atomic Center   10 is at   2.628637  2.098863 -1.384739
       Atomic Center   11 is at   2.779069  0.594978 -1.245888
       Atomic Center   12 is at  -0.020315 -1.119267 -0.153295
       Atomic Center   13 is at  -0.251234  0.104509  0.493146
       Atomic Center   14 is at  -1.544306  0.604584  0.621011
       Atomic Center   15 is at  -1.110322 -1.837681 -0.667414
       Atomic Center   16 is at  -2.404582 -1.350745 -0.538990
       Atomic Center   17 is at  -2.605258 -0.127869  0.097646
       Atomic Center   18 is at  -4.307488  0.450495  0.229384
       Atomic Center   19 is at  -4.183704  1.476398  1.383095
       Atomic Center   20 is at  -4.532492  1.206336 -1.386618
       Atomic Center   21 is at  -5.350866 -0.694585  0.147867
       Atomic Center   22 is at   4.709852 -1.646710  0.432540
       Atomic Center   23 is at   3.943729 -1.935662 -1.157265
       Atomic Center   24 is at   3.684568 -3.079780  0.160788
       Atomic Center   25 is at   1.563736 -0.851313  2.312479
       Atomic Center   26 is at   3.269970 -1.357582  2.469495
       Atomic Center   27 is at   2.036132 -2.545025  2.027530
       Atomic Center   28 is at   3.595488  0.714169  1.991166
       Atomic Center   29 is at   4.742460  0.652373  0.625807
       Atomic Center   30 is at   4.338596  2.980877  1.229688
       Atomic Center   31 is at   2.565731  2.747848  1.145795
       Atomic Center   32 is at   1.612330  2.395905 -1.053008
       Atomic Center   33 is at   2.750496  2.401300 -2.435098
       Atomic Center   34 is at   3.741750  0.291303 -1.709877
       Atomic Center   35 is at   1.972608  0.098695 -1.809659
       Atomic Center   36 is at   0.603036  0.669765  0.864889
       Atomic Center   37 is at  -1.753067  1.545422  1.132619
       Atomic Center   38 is at  -0.910786 -2.790175 -1.161717
       Atomic Center   39 is at  -3.270367 -1.908613 -0.906594
       Atomic Center   40 is at  -5.118809  1.843385  1.576649
       Atomic Center   41 is at  -5.559039  1.596595 -1.392206
       Atomic Center   42 is at  -4.410895  0.450872 -2.172106
       Atomic Center   43 is at  -3.798283  2.015656 -1.479811
       Atomic Center   44 is at  -5.352200 -1.170144  1.055628
   22758 points will be used for fitting atomic charges
 Fitting point charges to electrostatic potential
 Charges from ESP fit, RMS=   0.00258 RRMS=   0.19760:
 ESP charges:
               1
     1  O   -0.465291
     2  C    0.429775
     3  C    0.465983
     4  C   -0.337284
     5  C   -0.411418
     6  N   -0.121047
     7  C   -0.170867
     8  C    0.167053
     9  O   -0.396015
    10  C    0.180531
    11  C   -0.146490
    12  C   -0.056663
    13  C   -0.091671
    14  C   -0.125050
    15  C   -0.064897
    16  C   -0.156391
    17  C    0.113430
    18  S    0.667092
    19  N   -0.797236
    20  C   -0.283227
    21  N   -0.748986
    22  H    0.057881
    23  H    0.070044
    24  H    0.084625
    25  H    0.064460
    26  H    0.120848
    27  H    0.091413
    28  H    0.061060
    29  H    0.080076
    30  H    0.049391
    31  H    0.022969
    32  H   -0.008500
    33  H    0.056481
    34  H    0.081489
    35  H    0.026372
    36  H    0.080389
    37  H    0.142968
    38  H    0.106623
    39  H    0.130490
    40  H    0.354452
    41  H    0.149105
    42  H    0.116187
    43  H    0.092500
    44  H    0.317345
 Sum of ESP charges =   0.00000
 ESP charges with hydrogens summed into heavy atoms:
               1
     1  O   -0.465291
     2  C    0.429775
     3  C    0.465983
     4  C   -0.124734
     5  C   -0.134696
     6  N   -0.121047
     7  C   -0.029731
     8  C    0.239414
     9  O   -0.396015
    10  C    0.228513
    11  C   -0.038630
    12  C   -0.056663
    13  C   -0.011282
    14  C    0.017917
    15  C    0.041726
    16  C   -0.025901
    17  C    0.113430
    18  S    0.667092
    19  N   -0.442784
    20  C    0.074565
    21  N   -0.431641
 Charge=   0.00000 Dipole=     1.1551     1.2091     0.3354 Tot=     1.7055
 -----------------------------------------------------------------

              Electrostatic Properties (Atomic Units)

 -----------------------------------------------------------------
    Center     Electric         -------- Electric Field --------
               Potential          X             Y             Z
 -----------------------------------------------------------------
    1 Atom    -22.355679
    2 Atom    -14.672935
    3 Atom    -14.703626
    4 Atom    -14.773578
    5 Atom    -14.756954
    6 Atom    -18.365297
    7 Atom    -14.730754
    8 Atom    -14.711968
    9 Atom    -22.336554
   10 Atom    -14.713194
   11 Atom    -14.732020
   12 Atom    -14.735802
   13 Atom    -14.745899
   14 Atom    -14.743845
   15 Atom    -14.745442
   16 Atom    -14.741979
   17 Atom    -14.723607
   18 Atom    -59.071467
   19 Atom    -18.422435
   20 Atom    -14.732982
   21 Atom    -18.423549
   22 Atom     -1.113178
   23 Atom     -1.117506
   24 Atom     -1.116856
   25 Atom     -1.102899
   26 Atom     -1.100345
   27 Atom     -1.100286
   28 Atom     -1.099389
   29 Atom     -1.113565
   30 Atom     -1.106390
   31 Atom     -1.112649
   32 Atom     -1.113639
   33 Atom     -1.107265
   34 Atom     -1.114536
   35 Atom     -1.098779
   36 Atom     -1.091923
   37 Atom     -1.090296
   38 Atom     -1.092944
   39 Atom     -1.084673
   40 Atom     -1.046184
   41 Atom     -1.072138
   42 Atom     -1.074292
   43 Atom     -1.075187
   44 Atom     -1.049696
 -----------------------------------------------------------------
 Unable to Open any file for archive entry.
 1\1\GINC-NOTCH311\SP\RPBE1PBE\def2TZVP\C15H23N3O2S1\U1414944\10-Feb-20
 25\0\\#N Guess=Read Geom=Check Integral(Ultrafine) Density Pop=(ChelpG
 ,ReadRadii) NMR pbe1pbe EmpiricalDispersion=GD3BJ def2TZVP\\SDI0001_1\
 \0,1\O,0,-1.4265895751,-2.8511146564,0.7588143786\C,0,-1.3345106871,-1
 .8059345522,0.1538572101\C,0,-2.5780812631,-1.2377957307,-0.5710846563
 \C,0,-3.7920124344,-2.0902825018,-0.1918116449\C,0,-2.3002764988,-1.39
 96081281,-2.0733671372\N,0,-2.7321027894,0.176178094,-0.2185599849\C,0
 ,-3.7317422939,0.9274031494,-0.9510095765\C,0,-3.5951954939,2.40551775
 79,-0.6263495168\O,0,-3.6977471513,2.6475461655,0.7495485066\C,0,-2.72
 71507877,1.9286168936,1.4614380292\C,0,-2.8451954727,0.4375097641,1.20
 40590707\C,0,0.0108105866,-1.1377203055,0.0504437276\C,0,0.2324080829,
 0.1361613391,-0.4944941912\C,0,1.5180763042,0.6673253446,-0.5526495042
 \C,0,1.1027199206,-1.8743321671,0.5338559194\C,0,2.3898438964,-1.35620
 22188,0.4741640445\C,0,2.581007737,-0.0845071174,-0.0617936887\S,0,4.2
 74221043,0.5322116022,-0.1080160952\N,0,4.15652293,1.6417241434,-1.182
 2484306\C,0,4.4481027911,1.1649714637,1.5661297401\N,0,5.3375366238,-0
 .5971751966,-0.0896556956\H,0,-4.6938506843,-1.7016886867,-0.687107678
 3\H,0,-3.958215254,-2.098884616,0.8937122995\H,0,-3.647308946,-3.13315
 75922,-0.5016556376\H,0,-1.5222815214,-0.7082912538,-2.4246879487\H,0,
 -3.21440185,-1.2309339228,-2.6608500778\H,0,-1.9679950562,-2.427002428
 9,-2.2819026931\H,0,-3.5907579596,0.7916779619,-2.0329097017\H,0,-4.76
 67345493,0.604519457,-0.7041430652\H,0,-4.3946735426,2.9794298446,-1.1
 177662006\H,0,-2.6199548436,2.7719089224,-1.0096162665\H,0,-1.70959833
 51,2.2682346118,1.1778794954\H,0,-2.8784532669,2.1469217538,2.52868849
 66\H,0,-3.8119917344,0.0820217463,1.6202220653\H,0,-2.0421356238,-0.08
 64970657,1.7472228568\H,0,-0.6240982359,0.7132673329,-0.8421026491\H,0
 ,1.719985633,1.6483631597,-0.9854281312\H,0,0.9106473474,-2.8654917549
 ,0.9487114473\H,0,3.2578090179,-1.9254205665,0.8184889655\H,0,5.088443
 5329,2.0389760349,-1.3246537391\H,0,5.4664941061,1.5716703859,1.626195
 5488\H,0,4.3235591518,0.3491329158,2.2882093291\H,0,3.6964084289,1.951
 6218786,1.7035508953\H,0,5.3685202645,-1.0011842594,-1.0309337817\\Ver
 sion=ES64L-G16RevC.01\State=1-A\HF=-1297.4331443\RMSD=3.299e-09\Dipole
 =-0.4612866,0.4686856,-0.0964202\Quadrupole=-1.8860695,-3.6744128,5.56
 04822,4.3998016,8.2314192,3.4659366\PG=C01 [X(C15H23N3O2S1)]\\@
 The archive entry for this job was punched.


 THE UNDERLYING PHYSICAL LAWS NECESSARY FOR THE 
 MATHEMATICAL THEORY OF A LARGE PART OF PHYSICS AND THE
 WHOLE OF CHEMISTRY ARE THUS COMPLETELY KNOWN, AND THE
 DIFFICULTY IS ONLY THAT THE EXACT APPLICATION OF THESE
 LAWS LEADS TO EQUATIONS MUCH TOO COMPLICATED 
 TO BE SOLUBLE.

                                        -- P. A. M. DIRAC, 1929
 Job cpu time:       0 days  2 hours 32 minutes 41.4 seconds.
 Elapsed time:       0 days  0 hours 10 minutes 25.2 seconds.
 File lengths (MBytes):  RWF=    373 Int=      0 D2E=      0 Chk=     58 Scr=      2
 Normal termination of Gaussian 16 at Mon Feb 10 20:42:00 2025.
