 Entering Gaussian System, Link 0=g16
 Input=SDI0001_2.com
 Output=SDI0001_2.log
 Initial command:
 /uufs/chpc.utah.edu/sys/installdir/gaussian16/C01/AVX/g16/l1.exe "/scratch/general/vast/u1414944/3119847-notchpeak.peaks/Gau-1185505.inp" -scrdir="/scratch/general/vast/u1414944/3119847-notchpeak.peaks/"
 Entering Link 1 = /uufs/chpc.utah.edu/sys/installdir/gaussian16/C01/AVX/g16/l1.exe PID=   1185506.
  
 Copyright (c) 1988-2019, Gaussian, Inc.  All Rights Reserved.
  
 This is part of the Gaussian(R) 16 program.  It is based on
 the Gaussian(R) 09 system (copyright 2009, Gaussian, Inc.),
 the Gaussian(R) 03 system (copyright 2003, Gaussian, Inc.),
 the Gaussian(R) 98 system (copyright 1998, Gaussian, Inc.),
 the Gaussian(R) 94 system (copyright 1995, Gaussian, Inc.),
 the Gaussian 92(TM) system (copyright 1992, Gaussian, Inc.),
 the Gaussian 90(TM) system (copyright 1990, Gaussian, Inc.),
 the Gaussian 88(TM) system (copyright 1988, Gaussian, Inc.),
 the Gaussian 86(TM) system (copyright 1986, Carnegie Mellon
 University), and the Gaussian 82(TM) system (copyright 1983,
 Carnegie Mellon University). Gaussian is a federally registered
 trademark of Gaussian, Inc.
  
 This software contains proprietary and confidential information,
 including trade secrets, belonging to Gaussian, Inc.
  
 This software is provided under written license and may be
 used, copied, transmitted, or stored only in accord with that
 written license.
  
 The following legend is applicable only to US Government
 contracts under FAR:
  
                    RESTRICTED RIGHTS LEGEND
  
 Use, reproduction and disclosure by the US Government is
 subject to restrictions as set forth in subparagraphs (a)
 and (c) of the Commercial Computer Software - Restricted
 Rights clause in FAR 52.227-19.
  
 Gaussian, Inc.
 340 Quinnipiac St., Bldg. 40, Wallingford CT 06492
  
  
 ---------------------------------------------------------------
 Warning -- This program may not be used in any manner that
 competes with the business of Gaussian, Inc. or will provide
 assistance to any competitor of Gaussian, Inc.  The licensee
 of this program is prohibited from giving any competitor of
 Gaussian, Inc. access to this program.  By using this program,
 the user acknowledges that Gaussian, Inc. is engaged in the
 business of creating and licensing software in the field of
 computational chemistry and represents and warrants to the
 licensee that it is not a competitor of Gaussian, Inc. and that
 it will not use this program in any manner prohibited above.
 ---------------------------------------------------------------
  

 Cite this work as:
 Gaussian 16, Revision C.01,
 M. J. Frisch, G. W. Trucks, H. B. Schlegel, G. E. Scuseria, 
 M. A. Robb, J. R. Cheeseman, G. Scalmani, V. Barone, 
 G. A. Petersson, H. Nakatsuji, X. Li, M. Caricato, A. V. Marenich, 
 J. Bloino, B. G. Janesko, R. Gomperts, B. Mennucci, H. P. Hratchian, 
 J. V. Ortiz, A. F. Izmaylov, J. L. Sonnenberg, D. Williams-Young, 
 F. Ding, F. Lipparini, F. Egidi, J. Goings, B. Peng, A. Petrone, 
 T. Henderson, D. Ranasinghe, V. G. Zakrzewski, J. Gao, N. Rega, 
 G. Zheng, W. Liang, M. Hada, M. Ehara, K. Toyota, R. Fukuda, 
 J. Hasegawa, M. Ishida, T. Nakajima, Y. Honda, O. Kitao, H. Nakai, 
 T. Vreven, K. Throssell, J. A. Montgomery, Jr., J. E. Peralta, 
 F. Ogliaro, M. J. Bearpark, J. J. Heyd, E. N. Brothers, K. N. Kudin, 
 V. N. Staroverov, T. A. Keith, R. Kobayashi, J. Normand, 
 K. Raghavachari, A. P. Rendell, J. C. Burant, S. S. Iyengar, 
 J. Tomasi, M. Cossi, J. M. Millam, M. Klene, C. Adamo, R. Cammi, 
 J. W. Ochterski, R. L. Martin, K. Morokuma, O. Farkas, 
 J. B. Foresman, and D. J. Fox, Gaussian, Inc., Wallingford CT, 2019.
 
 ******************************************
 Gaussian 16:  ES64L-G16RevC.01  3-Jul-2019
                10-Feb-2025 
 ******************************************
 %NProcShared=16
 Will use up to   16 processors via shared memory.
 %Mem=40GB
 %chk=SDI0001_2.chk
 ----------------------------------------------------------------------
 #N OPT FREQ=NORAMAN Integral(Ultrafine) pbe1pbe EmpiricalDispersion=GD
 3BJ def2SVP
 ----------------------------------------------------------------------
 1/18=20,19=15,26=4,38=1/1,3;
 2/9=110,12=2,17=6,18=5,40=1/2;
 3/5=43,7=101,11=2,25=1,30=1,71=1,74=-13,75=-5,124=41/1,2,3;
 4//1;
 5/5=2,38=5/2;
 6/7=2,8=2,9=2,10=2,28=1/1;
 7//1,2,3,16;
 1/18=20,19=15,26=4/3(2);
 2/9=110/2;
 99//99;
 2/9=110/2;
 3/5=43,7=101,11=2,25=1,30=1,71=1,74=-13,75=-5,124=41/1,2,3;
 4/5=5,16=3,69=1/1;
 5/5=2,38=5/2;
 7//1,2,3,16;
 1/18=20,19=15,26=4/3(-5);
 2/9=110/2;
 6/7=2,8=2,9=2,10=2,19=2,28=1/1;
 99/9=1/99;
 ---------
 SDI0001_2
 ---------
 Symbolic Z-matrix:
 Charge =  0 Multiplicity = 1
 O                    -1.50621  -2.44009  -1.57385 
 C                    -1.35551  -1.63443  -0.68324 
 C                    -2.50888  -1.3017    0.28352 
 C                    -2.04003  -1.76393   1.67398 
 C                    -3.74012  -2.12443  -0.12691 
 N                    -2.73035   0.14531   0.26508 
 C                    -2.98918   0.69407  -1.05696 
 C                    -2.87718   2.2181   -0.97999 
 O                    -3.79156   2.75162  -0.05139 
 C                    -3.59029   2.18792   1.22215 
 C                    -3.72458   0.6627    1.18928 
 C                    -0.02036  -1.01988  -0.44415 
 C                     1.0779   -1.67813  -1.00521 
 C                     2.35571  -1.18506  -0.8312 
 C                     0.18442   0.15692   0.27646 
 C                     1.4643    0.65386   0.44403 
 C                     2.53724  -0.02628  -0.09843 
 S                     4.21929   0.60542   0.11631 
 N                     3.96748   2.04625   0.59012 
 C                     4.76808  -0.52243   1.4493 
 N                     5.17825   0.20398  -1.01493 
 H                    -2.88573  -1.86385   2.34984 
 H                    -1.32419  -1.06517   2.09642 
 H                    -1.56358  -2.73858   1.58868 
 H                    -4.57567  -1.91276   0.5354 
 H                    -3.50577  -3.18357  -0.06819 
 H                    -4.02648  -1.90245  -1.15143 
 H                    -2.25153   0.30951  -1.76362 
 H                    -3.99796   0.43649  -1.41882 
 H                    -3.11933   2.67057  -1.94282 
 H                    -1.8499    2.49363  -0.6962 
 H                    -2.58901   2.45487   1.59466 
 H                    -4.34732   2.62715   1.87411 
 H                    -4.75205   0.4095    0.88018 
 H                    -3.54354   0.26876   2.18862 
 H                     0.90314  -2.5785   -1.57532 
 H                     3.21655  -1.6722   -1.26456 
 H                    -0.66513   0.68572   0.67752 
 H                     1.65857   1.56942   0.97936 
 H                     4.77055   2.64871   0.51885 
 H                     4.75553  -1.52791   1.05029 
 H                     4.09078  -0.41695   2.28838 
 H                     5.77731  -0.24521   1.7291 
 H                     5.18954   0.84239  -1.79345 
 

 GradGradGradGradGradGradGradGradGradGradGradGradGradGradGradGradGradGrad
 Berny optimization.
 Initialization pass.
                           ----------------------------
                           !    Initial Parameters    !
                           ! (Angstroms and Degrees)  !
 --------------------------                            --------------------------
 ! Name  Definition              Value          Derivative Info.                !
 --------------------------------------------------------------------------------
 ! R1    R(1,2)                  1.2104         estimate D2E/DX2                !
 ! R2    R(2,3)                  1.5413         estimate D2E/DX2                !
 ! R3    R(2,12)                 1.4891         estimate D2E/DX2                !
 ! R4    R(3,4)                  1.5385         estimate D2E/DX2                !
 ! R5    R(3,5)                  1.5366         estimate D2E/DX2                !
 ! R6    R(3,6)                  1.464          estimate D2E/DX2                !
 ! R7    R(4,22)                 1.0872         estimate D2E/DX2                !
 ! R8    R(4,23)                 1.0859         estimate D2E/DX2                !
 ! R9    R(4,24)                 1.0882         estimate D2E/DX2                !
 ! R10   R(5,25)                 1.087          estimate D2E/DX2                !
 ! R11   R(5,26)                 1.0863         estimate D2E/DX2                !
 ! R12   R(5,27)                 1.0867         estimate D2E/DX2                !
 ! R13   R(6,7)                  1.4546         estimate D2E/DX2                !
 ! R14   R(6,11)                 1.4527         estimate D2E/DX2                !
 ! R15   R(7,8)                  1.5301         estimate D2E/DX2                !
 ! R16   R(7,28)                 1.0915         estimate D2E/DX2                !
 ! R17   R(7,29)                 1.1022         estimate D2E/DX2                !
 ! R18   R(8,9)                  1.4082         estimate D2E/DX2                !
 ! R19   R(8,30)                 1.0911         estimate D2E/DX2                !
 ! R20   R(8,31)                 1.1008         estimate D2E/DX2                !
 ! R21   R(9,10)                 1.4072         estimate D2E/DX2                !
 ! R22   R(10,11)                1.5315         estimate D2E/DX2                !
 ! R23   R(10,32)                1.1012         estimate D2E/DX2                !
 ! R24   R(10,33)                1.0914         estimate D2E/DX2                !
 ! R25   R(11,34)                1.1024         estimate D2E/DX2                !
 ! R26   R(11,35)                1.0893         estimate D2E/DX2                !
 ! R27   R(12,13)                1.3979         estimate D2E/DX2                !
 ! R28   R(12,15)                1.395          estimate D2E/DX2                !
 ! R29   R(13,14)                1.3807         estimate D2E/DX2                !
 ! R30   R(13,36)                1.0799         estimate D2E/DX2                !
 ! R31   R(14,17)                1.383          estimate D2E/DX2                !
 ! R32   R(14,37)                1.0799         estimate D2E/DX2                !
 ! R33   R(15,16)                1.3831         estimate D2E/DX2                !
 ! R34   R(15,38)                1.0781         estimate D2E/DX2                !
 ! R35   R(16,17)                1.3813         estimate D2E/DX2                !
 ! R36   R(16,39)                1.0782         estimate D2E/DX2                !
 ! R37   R(17,18)                1.8095         estimate D2E/DX2                !
 ! R38   R(18,19)                1.5375         estimate D2E/DX2                !
 ! R39   R(18,20)                1.8303         estimate D2E/DX2                !
 ! R40   R(18,21)                1.5364         estimate D2E/DX2                !
 ! R41   R(19,40)                1.0065         estimate D2E/DX2                !
 ! R42   R(20,41)                1.0818         estimate D2E/DX2                !
 ! R43   R(20,42)                1.0835         estimate D2E/DX2                !
 ! R44   R(20,43)                1.0834         estimate D2E/DX2                !
 ! R45   R(21,44)                1.0069         estimate D2E/DX2                !
 ! A1    A(1,2,3)              120.8009         estimate D2E/DX2                !
 ! A2    A(1,2,12)             120.2966         estimate D2E/DX2                !
 ! A3    A(3,2,12)             118.7603         estimate D2E/DX2                !
 ! A4    A(2,3,4)              105.9018         estimate D2E/DX2                !
 ! A5    A(2,3,5)              108.45           estimate D2E/DX2                !
 ! A6    A(2,3,6)              108.583          estimate D2E/DX2                !
 ! A7    A(4,3,5)              108.9486         estimate D2E/DX2                !
 ! A8    A(4,3,6)              110.7598         estimate D2E/DX2                !
 ! A9    A(5,3,6)              113.8674         estimate D2E/DX2                !
 ! A10   A(3,4,22)             110.6352         estimate D2E/DX2                !
 ! A11   A(3,4,23)             111.0491         estimate D2E/DX2                !
 ! A12   A(3,4,24)             109.3709         estimate D2E/DX2                !
 ! A13   A(22,4,23)            109.2747         estimate D2E/DX2                !
 ! A14   A(22,4,24)            107.877          estimate D2E/DX2                !
 ! A15   A(23,4,24)            108.5541         estimate D2E/DX2                !
 ! A16   A(3,5,25)             110.4201         estimate D2E/DX2                !
 ! A17   A(3,5,26)             109.5551         estimate D2E/DX2                !
 ! A18   A(3,5,27)             110.7069         estimate D2E/DX2                !
 ! A19   A(25,5,26)            108.828          estimate D2E/DX2                !
 ! A20   A(25,5,27)            109.3965         estimate D2E/DX2                !
 ! A21   A(26,5,27)            107.8757         estimate D2E/DX2                !
 ! A22   A(3,6,7)              114.2831         estimate D2E/DX2                !
 ! A23   A(3,6,11)             116.5871         estimate D2E/DX2                !
 ! A24   A(7,6,11)             108.7878         estimate D2E/DX2                !
 ! A25   A(6,7,8)              108.4828         estimate D2E/DX2                !
 ! A26   A(6,7,28)             109.5877         estimate D2E/DX2                !
 ! A27   A(6,7,29)             111.9045         estimate D2E/DX2                !
 ! A28   A(8,7,28)             109.5138         estimate D2E/DX2                !
 ! A29   A(8,7,29)             108.437          estimate D2E/DX2                !
 ! A30   A(28,7,29)            108.8826         estimate D2E/DX2                !
 ! A31   A(7,8,9)              111.2853         estimate D2E/DX2                !
 ! A32   A(7,8,30)             110.6363         estimate D2E/DX2                !
 ! A33   A(7,8,31)             109.3041         estimate D2E/DX2                !
 ! A34   A(9,8,30)             106.3018         estimate D2E/DX2                !
 ! A35   A(9,8,31)             109.9456         estimate D2E/DX2                !
 ! A36   A(30,8,31)            109.3186         estimate D2E/DX2                !
 ! A37   A(8,9,10)             110.6191         estimate D2E/DX2                !
 ! A38   A(9,10,11)            111.5295         estimate D2E/DX2                !
 ! A39   A(9,10,32)            109.8229         estimate D2E/DX2                !
 ! A40   A(9,10,33)            106.273          estimate D2E/DX2                !
 ! A41   A(11,10,32)           109.1732         estimate D2E/DX2                !
 ! A42   A(11,10,33)           110.659          estimate D2E/DX2                !
 ! A43   A(32,10,33)           109.3342         estimate D2E/DX2                !
 ! A44   A(6,11,10)            107.9596         estimate D2E/DX2                !
 ! A45   A(6,11,34)            112.1908         estimate D2E/DX2                !
 ! A46   A(6,11,35)            109.9434         estimate D2E/DX2                !
 ! A47   A(10,11,34)           108.4505         estimate D2E/DX2                !
 ! A48   A(10,11,35)           109.0197         estimate D2E/DX2                !
 ! A49   A(34,11,35)           109.2112         estimate D2E/DX2                !
 ! A50   A(2,12,13)            116.4638         estimate D2E/DX2                !
 ! A51   A(2,12,15)            124.2422         estimate D2E/DX2                !
 ! A52   A(13,12,15)           119.2884         estimate D2E/DX2                !
 ! A53   A(12,13,14)           120.5549         estimate D2E/DX2                !
 ! A54   A(12,13,36)           118.5108         estimate D2E/DX2                !
 ! A55   A(14,13,36)           120.9343         estimate D2E/DX2                !
 ! A56   A(13,14,17)           119.1754         estimate D2E/DX2                !
 ! A57   A(13,14,37)           121.7423         estimate D2E/DX2                !
 ! A58   A(17,14,37)           119.076          estimate D2E/DX2                !
 ! A59   A(12,15,16)           120.0989         estimate D2E/DX2                !
 ! A60   A(12,15,38)           119.3586         estimate D2E/DX2                !
 ! A61   A(16,15,38)           120.5236         estimate D2E/DX2                !
 ! A62   A(15,16,17)           119.622          estimate D2E/DX2                !
 ! A63   A(15,16,39)           122.1374         estimate D2E/DX2                !
 ! A64   A(17,16,39)           118.237          estimate D2E/DX2                !
 ! A65   A(14,17,16)           121.2434         estimate D2E/DX2                !
 ! A66   A(14,17,18)           118.5145         estimate D2E/DX2                !
 ! A67   A(16,17,18)           120.2341         estimate D2E/DX2                !
 ! A68   A(17,18,19)           102.209          estimate D2E/DX2                !
 ! A69   A(17,18,20)            98.6282         estimate D2E/DX2                !
 ! A70   A(17,18,21)           113.6783         estimate D2E/DX2                !
 ! A71   A(19,18,20)           113.7113         estimate D2E/DX2                !
 ! A72   A(19,18,21)           125.0291         estimate D2E/DX2                !
 ! A73   A(20,18,21)           100.841          estimate D2E/DX2                !
 ! A74   A(18,19,40)           114.1081         estimate D2E/DX2                !
 ! A75   A(18,20,41)           107.4949         estimate D2E/DX2                !
 ! A76   A(18,20,42)           108.457          estimate D2E/DX2                !
 ! A77   A(18,20,43)           108.0427         estimate D2E/DX2                !
 ! A78   A(41,20,42)           111.6456         estimate D2E/DX2                !
 ! A79   A(41,20,43)           110.1139         estimate D2E/DX2                !
 ! A80   A(42,20,43)           110.942          estimate D2E/DX2                !
 ! A81   A(18,21,44)           114.2448         estimate D2E/DX2                !
 ! D1    D(1,2,3,4)            116.0434         estimate D2E/DX2                !
 ! D2    D(1,2,3,5)             -0.7633         estimate D2E/DX2                !
 ! D3    D(1,2,3,6)           -124.9697         estimate D2E/DX2                !
 ! D4    D(12,2,3,4)           -59.635          estimate D2E/DX2                !
 ! D5    D(12,2,3,5)          -176.4417         estimate D2E/DX2                !
 ! D6    D(12,2,3,6)            59.3519         estimate D2E/DX2                !
 ! D7    D(1,2,12,13)          -17.8508         estimate D2E/DX2                !
 ! D8    D(1,2,12,15)          161.2832         estimate D2E/DX2                !
 ! D9    D(3,2,12,13)          157.85           estimate D2E/DX2                !
 ! D10   D(3,2,12,15)          -23.016          estimate D2E/DX2                !
 ! D11   D(2,3,4,22)          -161.9263         estimate D2E/DX2                !
 ! D12   D(2,3,4,23)            76.5487         estimate D2E/DX2                !
 ! D13   D(2,3,4,24)           -43.2343         estimate D2E/DX2                !
 ! D14   D(5,3,4,22)           -45.456          estimate D2E/DX2                !
 ! D15   D(5,3,4,23)          -166.9811         estimate D2E/DX2                !
 ! D16   D(5,3,4,24)            73.236          estimate D2E/DX2                !
 ! D17   D(6,3,4,22)            80.5344         estimate D2E/DX2                !
 ! D18   D(6,3,4,23)           -40.9907         estimate D2E/DX2                !
 ! D19   D(6,3,4,24)          -160.7736         estimate D2E/DX2                !
 ! D20   D(2,3,5,25)          -179.9296         estimate D2E/DX2                !
 ! D21   D(2,3,5,26)            60.2233         estimate D2E/DX2                !
 ! D22   D(2,3,5,27)           -58.6259         estimate D2E/DX2                !
 ! D23   D(4,3,5,25)            65.2405         estimate D2E/DX2                !
 ! D24   D(4,3,5,26)           -54.6065         estimate D2E/DX2                !
 ! D25   D(4,3,5,27)          -173.4557         estimate D2E/DX2                !
 ! D26   D(6,3,5,25)           -58.9337         estimate D2E/DX2                !
 ! D27   D(6,3,5,26)          -178.7807         estimate D2E/DX2                !
 ! D28   D(6,3,5,27)            62.3701         estimate D2E/DX2                !
 ! D29   D(2,3,6,7)             55.7285         estimate D2E/DX2                !
 ! D30   D(2,3,6,11)          -175.8894         estimate D2E/DX2                !
 ! D31   D(4,3,6,7)            171.6139         estimate D2E/DX2                !
 ! D32   D(4,3,6,11)           -60.0039         estimate D2E/DX2                !
 ! D33   D(5,3,6,7)            -65.1932         estimate D2E/DX2                !
 ! D34   D(5,3,6,11)            63.189          estimate D2E/DX2                !
 ! D35   D(3,6,7,8)           -167.0223         estimate D2E/DX2                !
 ! D36   D(3,6,7,28)           -47.4988         estimate D2E/DX2                !
 ! D37   D(3,6,7,29)            73.3863         estimate D2E/DX2                !
 ! D38   D(11,6,7,8)            60.7473         estimate D2E/DX2                !
 ! D39   D(11,6,7,28)         -179.7293         estimate D2E/DX2                !
 ! D40   D(11,6,7,29)          -58.8442         estimate D2E/DX2                !
 ! D41   D(3,6,11,10)          168.2432         estimate D2E/DX2                !
 ! D42   D(3,6,11,34)          -72.3157         estimate D2E/DX2                !
 ! D43   D(3,6,11,35)           49.4235         estimate D2E/DX2                !
 ! D44   D(7,6,11,10)          -60.7601         estimate D2E/DX2                !
 ! D45   D(7,6,11,34)           58.6811         estimate D2E/DX2                !
 ! D46   D(7,6,11,35)         -179.5798         estimate D2E/DX2                !
 ! D47   D(6,7,8,9)            -58.9403         estimate D2E/DX2                !
 ! D48   D(6,7,8,30)          -176.8849         estimate D2E/DX2                !
 ! D49   D(6,7,8,31)            62.6858         estimate D2E/DX2                !
 ! D50   D(28,7,8,9)          -178.51           estimate D2E/DX2                !
 ! D51   D(28,7,8,30)           63.5453         estimate D2E/DX2                !
 ! D52   D(28,7,8,31)          -56.8839         estimate D2E/DX2                !
 ! D53   D(29,7,8,9)            62.7998         estimate D2E/DX2                !
 ! D54   D(29,7,8,30)          -55.1449         estimate D2E/DX2                !
 ! D55   D(29,7,8,31)         -175.5741         estimate D2E/DX2                !
 ! D56   D(7,8,9,10)            57.3234         estimate D2E/DX2                !
 ! D57   D(30,8,9,10)          177.8551         estimate D2E/DX2                !
 ! D58   D(31,8,9,10)          -63.9285         estimate D2E/DX2                !
 ! D59   D(8,9,10,11)          -57.8139         estimate D2E/DX2                !
 ! D60   D(8,9,10,32)           63.3511         estimate D2E/DX2                !
 ! D61   D(8,9,10,33)         -178.4948         estimate D2E/DX2                !
 ! D62   D(9,10,11,6)           59.5572         estimate D2E/DX2                !
 ! D63   D(9,10,11,34)         -62.2253         estimate D2E/DX2                !
 ! D64   D(9,10,11,35)         178.9637         estimate D2E/DX2                !
 ! D65   D(32,10,11,6)         -61.9853         estimate D2E/DX2                !
 ! D66   D(32,10,11,34)        176.2321         estimate D2E/DX2                !
 ! D67   D(32,10,11,35)         57.4212         estimate D2E/DX2                !
 ! D68   D(33,10,11,6)         177.6358         estimate D2E/DX2                !
 ! D69   D(33,10,11,34)         55.8532         estimate D2E/DX2                !
 ! D70   D(33,10,11,35)        -62.9577         estimate D2E/DX2                !
 ! D71   D(2,12,13,14)        -179.7149         estimate D2E/DX2                !
 ! D72   D(2,12,13,36)           0.2494         estimate D2E/DX2                !
 ! D73   D(15,12,13,14)          1.1059         estimate D2E/DX2                !
 ! D74   D(15,12,13,36)       -178.9298         estimate D2E/DX2                !
 ! D75   D(2,12,15,16)        -179.8631         estimate D2E/DX2                !
 ! D76   D(2,12,15,38)          -1.4351         estimate D2E/DX2                !
 ! D77   D(13,12,15,16)         -0.7521         estimate D2E/DX2                !
 ! D78   D(13,12,15,38)        177.6759         estimate D2E/DX2                !
 ! D79   D(12,13,14,17)         -0.2749         estimate D2E/DX2                !
 ! D80   D(12,13,14,37)       -179.3509         estimate D2E/DX2                !
 ! D81   D(36,13,14,17)        179.7616         estimate D2E/DX2                !
 ! D82   D(36,13,14,37)          0.6857         estimate D2E/DX2                !
 ! D83   D(13,14,17,16)         -0.9313         estimate D2E/DX2                !
 ! D84   D(13,14,17,18)       -179.9092         estimate D2E/DX2                !
 ! D85   D(37,14,17,16)        178.1695         estimate D2E/DX2                !
 ! D86   D(37,14,17,18)         -0.8083         estimate D2E/DX2                !
 ! D87   D(12,15,16,17)         -0.422          estimate D2E/DX2                !
 ! D88   D(12,15,16,39)        178.8752         estimate D2E/DX2                !
 ! D89   D(38,15,16,17)       -178.8315         estimate D2E/DX2                !
 ! D90   D(38,15,16,39)          0.4657         estimate D2E/DX2                !
 ! D91   D(15,16,17,14)          1.2827         estimate D2E/DX2                !
 ! D92   D(15,16,17,18)       -179.7569         estimate D2E/DX2                !
 ! D93   D(39,16,17,14)       -178.0419         estimate D2E/DX2                !
 ! D94   D(39,16,17,18)          0.9185         estimate D2E/DX2                !
 ! D95   D(14,17,18,19)        164.1154         estimate D2E/DX2                !
 ! D96   D(14,17,18,20)        -79.2067         estimate D2E/DX2                !
 ! D97   D(14,17,18,21)         26.7116         estimate D2E/DX2                !
 ! D98   D(16,17,18,19)        -14.8731         estimate D2E/DX2                !
 ! D99   D(16,17,18,20)        101.8048         estimate D2E/DX2                !
 ! D100  D(16,17,18,21)       -152.2769         estimate D2E/DX2                !
 ! D101  D(17,18,19,40)       -163.6099         estimate D2E/DX2                !
 ! D102  D(20,18,19,40)         91.1611         estimate D2E/DX2                !
 ! D103  D(21,18,19,40)        -32.8072         estimate D2E/DX2                !
 ! D104  D(17,18,20,41)         63.2716         estimate D2E/DX2                !
 ! D105  D(17,18,20,42)        -57.5875         estimate D2E/DX2                !
 ! D106  D(17,18,20,43)       -177.9197         estimate D2E/DX2                !
 ! D107  D(19,18,20,41)        170.7451         estimate D2E/DX2                !
 ! D108  D(19,18,20,42)         49.886          estimate D2E/DX2                !
 ! D109  D(19,18,20,43)        -70.4462         estimate D2E/DX2                !
 ! D110  D(21,18,20,41)        -53.0007         estimate D2E/DX2                !
 ! D111  D(21,18,20,42)       -173.8597         estimate D2E/DX2                !
 ! D112  D(21,18,20,43)         65.8081         estimate D2E/DX2                !
 ! D113  D(17,18,21,44)         88.2907         estimate D2E/DX2                !
 ! D114  D(19,18,21,44)        -37.8227         estimate D2E/DX2                !
 ! D115  D(20,18,21,44)       -167.1865         estimate D2E/DX2                !
 --------------------------------------------------------------------------------
 Trust Radius=3.00D-01 FncErr=1.00D-07 GrdErr=1.00D-06 EigMax=2.50D+02 EigMin=1.00D-04
 Number of steps in this run=    251 maximum allowed number of steps=    264.
 GradGradGradGradGradGradGradGradGradGradGradGradGradGradGradGradGradGrad

                          Input orientation:                          
 ---------------------------------------------------------------------
 Center     Atomic      Atomic             Coordinates (Angstroms)
 Number     Number       Type             X           Y           Z
 ---------------------------------------------------------------------
      1          8           0       -1.506205   -2.440090   -1.573853
      2          6           0       -1.355507   -1.634426   -0.683238
      3          6           0       -2.508879   -1.301699    0.283517
      4          6           0       -2.040034   -1.763925    1.673977
      5          6           0       -3.740120   -2.124425   -0.126910
      6          7           0       -2.730349    0.145309    0.265080
      7          6           0       -2.989176    0.694069   -1.056962
      8          6           0       -2.877184    2.218099   -0.979993
      9          8           0       -3.791564    2.751618   -0.051388
     10          6           0       -3.590288    2.187923    1.222147
     11          6           0       -3.724584    0.662705    1.189275
     12          6           0       -0.020361   -1.019881   -0.444150
     13          6           0        1.077898   -1.678130   -1.005209
     14          6           0        2.355714   -1.185060   -0.831204
     15          6           0        0.184422    0.156917    0.276461
     16          6           0        1.464296    0.653856    0.444026
     17          6           0        2.537240   -0.026278   -0.098434
     18         16           0        4.219290    0.605418    0.116310
     19          7           0        3.967485    2.046250    0.590121
     20          6           0        4.768076   -0.522426    1.449304
     21          7           0        5.178254    0.203977   -1.014929
     22          1           0       -2.885728   -1.863853    2.349838
     23          1           0       -1.324189   -1.065167    2.096417
     24          1           0       -1.563584   -2.738577    1.588684
     25          1           0       -4.575666   -1.912761    0.535401
     26          1           0       -3.505773   -3.183567   -0.068191
     27          1           0       -4.026480   -1.902453   -1.151425
     28          1           0       -2.251533    0.309506   -1.763624
     29          1           0       -3.997962    0.436494   -1.418819
     30          1           0       -3.119332    2.670570   -1.942824
     31          1           0       -1.849898    2.493626   -0.696203
     32          1           0       -2.589012    2.454867    1.594665
     33          1           0       -4.347325    2.627149    1.874114
     34          1           0       -4.752053    0.409502    0.880177
     35          1           0       -3.543544    0.268763    2.188619
     36          1           0        0.903140   -2.578500   -1.575318
     37          1           0        3.216551   -1.672205   -1.264564
     38          1           0       -0.665126    0.685720    0.677516
     39          1           0        1.658569    1.569416    0.979360
     40          1           0        4.770553    2.648712    0.518852
     41          1           0        4.755531   -1.527913    1.050288
     42          1           0        4.090778   -0.416953    2.288378
     43          1           0        5.777309   -0.245205    1.729102
     44          1           0        5.189538    0.842389   -1.793449
 ---------------------------------------------------------------------
                    Distance matrix (angstroms):
                    1          2          3          4          5
     1  O    0.000000
     2  C    1.210372   0.000000
     3  C    2.398148   1.541295   0.000000
     4  C    3.360145   2.458009   1.538456   0.000000
     5  C    2.680236   2.497194   1.536647   2.502688   0.000000
     6  N    3.400661   2.440688   1.463975   2.471174   2.514953
     7  C    3.505615   2.868873   2.451665   3.794817   3.061507
     8  C    4.891930   4.152772   3.757803   4.858075   4.508872
     9  O    5.873210   5.056777   4.264601   5.141485   4.876899
    10  C    5.794784   4.820279   3.771993   4.269021   4.520924
    11  C    4.709928   3.794159   2.481374   2.993523   3.082317
    12  C    2.345412   1.489109   2.607996   3.019792   3.893234
    13  C    2.753458   2.455002   3.829815   4.111800   4.917712
    14  C    4.128081   3.741255   4.992041   5.092506   6.207869
    15  C    3.609201   2.549768   3.062920   3.254364   4.557330
    16  C    4.740065   3.802400   4.431261   4.431565   5.927120
    17  C    4.934856   4.252248   5.218803   5.206947   6.618782
    18  S    6.701722   6.060903   6.995235   6.871627   8.418041
    19  N    7.400765   6.595686   7.296990   7.196003   8.792943
    20  C    7.223816   6.578947   7.410829   6.924027   8.800014
    21  N    7.210096   6.795570   7.940090   7.950253   9.259990
    22  H    4.198867   3.404961   2.174330   1.087185   2.632899
    23  H    3.923573   2.837520   2.178541   1.085888   3.449918
    24  H    3.177110   2.534576   2.159088   1.088221   2.838618
    25  H    3.761465   3.454269   2.169897   2.783512   1.087011
    26  H    2.611139   2.720617   2.158453   2.683080   1.086346
    27  H    2.611376   2.724910   2.173265   3.456596   1.086695
    28  H    2.855137   2.397701   2.617823   4.020069   3.289187
    29  H    3.808887   3.436911   2.852478   4.270915   2.879900
    30  H    5.371887   4.819817   4.594363   5.823305   5.164776
    31  H    5.022943   4.157573   3.974746   4.876541   5.022294
    32  H    5.930648   4.840733   3.979613   4.255100   5.025812
    33  H    6.755542   5.801038   4.620143   4.964391   5.191363
    34  H    4.967692   4.261271   2.883755   3.564962   2.908439
    35  H    5.064073   4.081323   2.676994   2.580159   3.335815
    36  H    2.413318   2.605489   4.089910   4.459117   4.885073
    37  H    4.794761   4.609022   5.942590   6.022883   7.063571
    38  H    3.942939   2.776933   2.739434   2.980616   4.242595
    39  H    5.710590   4.702499   5.108339   5.027258   6.634316
    40  H    8.347037   7.570926   8.285606   8.196937   9.779132
    41  H    6.850367   6.353050   7.308267   6.828205   8.597541
    42  H    7.094796   6.322560   6.953971   6.307034   8.370904
    43  H    8.293167   7.656787   8.477429   7.963692   9.877130
    44  H    7.460287   7.085535   8.256908   8.431051   9.556053
                    6          7          8          9         10
     6  N    0.000000
     7  C    1.454621   0.000000
     8  C    2.422442   1.530076   0.000000
     9  O    2.831814   2.426625   1.408205   0.000000
    10  C    2.414072   2.790568   2.314919   1.407180   0.000000
    11  C    1.452700   2.363766   2.800547   2.430492   1.531473
    12  C    3.033927   3.482388   4.351216   5.347938   5.080446
    13  C    4.409230   4.708619   5.551928   6.651624   6.457511
    14  C    5.370267   5.670092   6.243945   7.341293   7.137801
    15  C    2.914816   3.484002   3.898792   4.759036   4.389503
    16  C    4.229147   4.699786   4.829403   5.680678   5.339255
    17  C    5.282904   5.654993   5.927087   6.911778   6.647798
    18  S    6.966443   7.303863   7.359522   8.295064   8.044669
    19  N    6.969950   7.275741   7.024549   7.817411   7.585476
    20  C    7.620671   8.242341   8.477143   9.286489   8.789757
    21  N    8.011733   8.182228   8.303492   9.374248   9.264333
    22  H    2.899498   4.261449   5.267844   5.281003   4.264385
    23  H    2.606978   3.976291   4.759825   5.026813   4.059821
    24  H    3.380839   4.562326   5.735180   6.147843   5.339690
    25  H    2.777395   3.442112   4.716489   4.766085   4.272962
    26  H    3.434205   4.034922   5.514028   5.942085   5.524945
    27  H    2.807093   2.797651   4.281263   4.788072   4.749240
    28  H    2.090901   1.091502   2.155978   3.356688   3.773002
    29  H    2.127709   1.102241   2.150076   2.696714   3.195059
    30  H    3.376846   2.169850   1.091059   2.008979   3.236014
    31  H    2.685862   2.160210   1.100803   2.062138   2.608156
    32  H    2.668676   3.208062   2.601532   2.060020   1.101173
    33  H    3.370924   3.764647   3.236443   2.007964   1.091368
    34  H    2.129654   2.634619   3.200998   2.697380   2.151610
    35  H    2.092016   3.319940   3.779425   3.353164   2.149286
    36  H    4.899842   5.111607   6.136174   7.264487   7.122886
    37  H    6.403810   6.644802   7.235264   8.375899   8.210808
    38  H    2.174234   2.899946   3.160494   3.817571   3.333138
    39  H    4.669141   5.149211   4.983263   5.671331   5.290747
    40  H    7.911698   8.155809   7.805117   8.581703   8.403012
    41  H    7.710683   8.328156   8.741452   9.621897   9.137268
    42  H    7.137062   7.908945   8.135001   8.811678   8.180526
    43  H    8.641534   9.246385   9.397197  10.184028   9.691697
    44  H    8.212678   8.213147   8.223521   9.345595   9.380279
                   11         12         13         14         15
    11  C    0.000000
    12  C    4.384113   0.000000
    13  C    5.775734   1.397945   0.000000
    14  C    6.668328   2.413054   1.380656   0.000000
    15  C    4.045909   1.395017   2.410057   2.782505   0.000000
    16  C    5.242132   2.407168   2.772678   2.408828   1.383150
    17  C    6.429878   2.765518   2.383387   1.382996   2.389531
    18  S    8.016213   4.574971   4.042369   2.752546   4.062877
    19  N    7.838438   5.135542   4.976525   3.880636   4.240227
    20  C    8.578894   5.173176   4.580142   3.385157   4.779848
    21  N    9.183108   5.371146   4.511689   3.151175   5.158319
    22  H    2.904148   4.090108   5.196264   6.168671   4.219979
    23  H    3.093597   2.855959   3.970621   4.703938   2.661134
    24  H    4.049465   3.076990   3.851007   4.861088   3.627856
    25  H    2.790146   4.744213   5.864411   7.102196   5.197024
    26  H    4.052518   4.119584   4.914710   6.239651   4.989504
    27  H    3.485692   4.162711   5.111397   6.430366   4.900159
    28  H    3.318771   2.913145   3.951076   4.932531   3.181055
    29  H    2.632121   4.346529   5.514260   6.583610   4.521556
    30  H    3.769337   5.046690   6.116131   6.788057   4.707278
    31  H    3.228274   3.969317   5.105980   5.589109   3.247267
    32  H    2.160026   4.777930   6.106328   6.601835   3.835384
    33  H    2.171601   6.115374   7.500598   8.172051   5.402894
    34  H    1.102427   5.117215   6.473115   7.482767   4.979664
    35  H    1.089336   4.583110   5.945474   6.784850   4.191251
    36  H    6.290010   2.135811   1.079922   2.146009   3.380555
    37  H    7.723502   3.402382   2.154330   1.079884   3.861897
    38  H    3.102050   2.140779   3.384891   3.860250   1.078058
    39  H    5.463015   3.398477   3.849967   3.369168   2.159243
    40  H    8.749918   6.110549   5.888976   4.727781   5.224979
    41  H    8.759593   5.029969   4.215758   3.068661   4.932798
    42  H    7.965775   4.973097   4.638505   3.651332   4.431338
    43  H    9.560423   6.239881   5.622650   4.375592   5.792431
    44  H    9.401623   5.694884   4.886709   3.614834   5.459450
                   16         17         18         19         20
    16  C    0.000000
    17  C    1.381324   0.000000
    18  S    2.774841   1.809544   0.000000
    19  N    2.868111   2.610571   1.537498   0.000000
    20  C    3.648176   2.760124   1.830321   2.824401   0.000000
    21  N    4.015523   2.804984   1.536381   2.726925   2.601606
    22  H    5.375284   6.227303   7.846479   8.084061   7.822474
    23  H    3.668935   4.561502   6.118974   6.320732   6.150529
    24  H    4.689019   5.198047   6.840455   7.381356   6.709744
    25  H    6.563308   7.386068   9.157954   9.416060   9.490720
    26  H    6.299980   6.818166   8.606221   9.145159   8.822756
    27  H    6.263290   6.907333   8.711447   9.084532   9.274291
    28  H    4.335860   5.081137   6.744870   6.872596   7.764659
    29  H    5.775265   6.683295   8.361123   8.371111   9.273029
    30  H    5.547417   6.532348   7.896851   7.551726   9.160402
    31  H    3.958379   5.094529   6.407851   5.974674   7.582701
    32  H    4.582239   5.941475   7.208257   6.645579   7.938019
    33  H    6.301902   7.637333   8.975754   8.433394   9.653539
    34  H    6.236419   7.367589   9.005935   8.876565   9.582549
    35  H    5.316988   6.503353   8.041729   7.882272   8.381861
    36  H    3.852372   3.371247   4.898550   5.955473   5.321044
    37  H    3.376423   2.128473   2.846026   4.222637   3.330810
    38  H    2.142421   3.371081   4.917207   4.829054   5.619160
    39  H    1.078228   2.116587   2.869048   2.389554   3.776993
    40  H    3.862175   3.538970   2.154294   1.006459   3.304825
    41  H    3.994984   2.914668   2.389764   3.688823   1.081839
    42  H    3.383294   2.874540   2.404088   2.994436   1.083467
    43  H    4.589315   3.726374   2.398350   3.134247   1.083370
    44  H    4.349629   3.265325   2.155160   2.936683   3.543416
                   21         22         23         24         25
    21  N    0.000000
    22  H    8.979164   0.000000
    23  H    7.319355   1.772153   0.000000
    24  H    7.803191   1.758568   1.765050   0.000000
    25  H   10.100646   2.480013   3.705036   3.296061   0.000000
    26  H    9.369316   2.823643   3.732620   2.591399   1.767467
    27  H    9.443665   3.682614   4.307192   3.777984   1.774005
    28  H    7.468160   4.695345   4.201144   4.582800   3.952921
    29  H    9.188042   4.553179   4.664862   5.005232   3.109939
    30  H    8.706032   6.248401   5.787378   6.644605   5.410124
    31  H    7.398581   5.416543   4.554131   5.716523   5.325684
    32  H    8.497465   4.394277   3.773881   5.293714   4.913758
    33  H   10.244754   4.746754   4.777234   6.051586   4.738679
    34  H   10.111610   3.288041   3.924811   4.536377   2.354334
    35  H    9.291753   2.237580   2.591025   3.650241   2.925312
    36  H    5.131550   5.502099   4.553330   4.015129   5.908948
    37  H    2.725922   7.094958   5.681814   5.668144   8.001024
    38  H    6.102584   3.772010   2.348032   3.655581   4.697300
    39  H    4.269636   5.858002   4.133484   5.414088   7.154603
    40  H    2.914693   9.073831   7.309412   8.383837  10.399958
    41  H    2.728234   7.758255   6.186397   6.456530   9.353312
    42  H    3.532704   7.125232   5.457005   6.152342   8.967587
    43  H    2.844352   8.834792   7.158109   7.754052  10.554134
    44  H    1.006871   9.471035   7.822945   8.358636  10.410265
                   26         27         28         29         30
    26  H    0.000000
    27  H    1.756641   0.000000
    28  H    4.080340   2.901377   0.000000
    29  H    3.895034   2.354355   1.784665   0.000000
    30  H    6.159100   4.728823   2.521866   2.457167   0.000000
    31  H    5.947003   4.926484   2.463956   3.060742   1.787969
    32  H    5.949578   5.347295   3.999321   3.891022   3.583517
    33  H    6.184268   5.456566   4.795513   3.970445   4.009846
    34  H    3.919536   3.162119   3.640369   2.419662   3.968317
    35  H    4.124705   4.012892   4.158266   3.639813   4.797651
    36  H    4.698516   4.993785   4.281122   5.756343   6.623299
    37  H    6.993222   7.247573   5.837481   7.517952   7.711235
    38  H    4.857647   4.619780   2.935539   3.945190   4.102309
    39  H    7.096382   6.993848   4.939659   6.247489   5.707893
    40  H   10.141877  10.044438   7.745404   9.248531   8.265024
    41  H    8.499489   9.061542   7.771304   9.304785   9.412728
    42  H    8.421113   8.940293   7.561176   8.938646   8.911877
    43  H    9.901506  10.351724   8.773206  10.292232  10.056590
    44  H    9.736183   9.637497   7.460188   9.204089   8.508930
                   31         32         33         34         35
    31  H    0.000000
    32  H    2.407461   0.000000
    33  H    3.586293   1.788697   0.000000
    34  H    3.905259   3.061496   2.463670   0.000000
    35  H    4.017543   2.458244   2.511366   1.786706   0.000000
    36  H    5.837682   6.897732   8.158722   6.851191   6.484376
    37  H    6.583775   7.675446   9.249214   8.510703   7.835223
    38  H    2.561116   2.769906   4.331233   4.101261   3.277587
    39  H    3.996376   4.382302   6.163615   6.515467   5.496908
    40  H    6.732815   7.440306   9.218075   9.789007   8.807752
    41  H    7.928096   8.372646  10.040180   9.704466   8.567292
    42  H    7.257468   7.303984   8.979964   8.992314   7.665705
    43  H    8.459172   8.792257  10.525191  10.583798   9.346316
    44  H    7.313290   8.636275  10.372471  10.303927   9.615230
                   36         37         38         39         40
    36  H    0.000000
    37  H    2.503959   0.000000
    38  H    4.264957   4.939524   0.000000
    39  H    4.929732   4.239175   2.504314   0.000000
    40  H    6.831265   4.926035   5.781446   3.325867   0.000000
    41  H    4.778960   2.783490   5.867082   4.380599   4.210327
    42  H    5.455407   3.868245   5.140952   3.402180   3.604389
    43  H    6.334112   4.189969   6.593741   4.562782   3.294392
    44  H    5.488467   3.239688   6.356674   4.548052   2.963965
                   41         42         43         44
    41  H    0.000000
    42  H    1.791366   0.000000
    43  H    1.774868   1.785125   0.000000
    44  H    3.727403   4.410728   3.733189   0.000000
 Stoichiometry    C15H23N3O2S
 Framework group  C1[X(C15H23N3O2S)]
 Deg. of freedom   126
 Full point group                 C1      NOp   1
 Largest Abelian subgroup         C1      NOp   1
 Largest concise Abelian subgroup C1      NOp   1
                         Standard orientation:                         
 ---------------------------------------------------------------------
 Center     Atomic      Atomic             Coordinates (Angstroms)
 Number     Number       Type             X           Y           Z
 ---------------------------------------------------------------------
      1          8           0       -1.461621   -2.674024   -1.157136
      2          6           0       -1.312833   -1.725322   -0.420368
      3          6           0       -2.469987   -1.225987    0.466903
      4          6           0       -2.009625   -1.438898    1.919344
      5          6           0       -3.701770   -2.105035    0.199938
      6          7           0       -2.686736    0.195979    0.194408
      7          6           0       -2.937151    0.505582   -1.204649
      8          6           0       -2.820678    2.019316   -1.394845
      9          8           0       -3.738010    2.709130   -0.578940
     10          6           0       -3.544948    2.376467    0.774654
     11          6           0       -3.683951    0.869327    1.008351
     12          6           0        0.023050   -1.081455   -0.285108
     13          6           0        1.122009   -1.830192   -0.716306
     14          6           0        2.400503   -1.317182   -0.624192
     15          6           0        0.227963    0.202794    0.219657
     16          6           0        1.508559    0.718481    0.304765
     17          6           0        2.582041   -0.048492   -0.104432
     18         16           0        4.264999    0.607217    0.005772
     19          7           0        4.015418    2.109286    0.218842
     20          6           0        4.803461   -0.271280    1.518510
     21          7           0        5.228356    0.011894   -1.032496
     22          1           0       -2.859026   -1.417132    2.597590
     23          1           0       -1.293686   -0.678637    2.216980
     24          1           0       -1.535869   -2.414518    2.008488
     25          1           0       -4.539958   -1.778877    0.810393
     26          1           0       -3.471107   -3.138099    0.444316
     27          1           0       -3.982259   -2.065067   -0.849173
     28          1           0       -2.197193    0.001654   -1.829067
     29          1           0       -3.944920    0.190962   -1.521427
     30          1           0       -3.056529    2.296919   -2.423300
     31          1           0       -1.793958    2.337913   -1.157967
     32          1           0       -2.544712    2.702194    1.100248
     33          1           0       -4.303850    2.924690    1.335552
     34          1           0       -4.710655    0.568284    0.742649
     35          1           0       -3.509203    0.655878    2.062180
     36          1           0        0.947247   -2.816015   -1.121081
     37          1           0        3.261949   -1.874576   -0.960901
     38          1           0       -0.621898    0.795527    0.517335
     39          1           0        1.703061    1.713132    0.672752
     40          1           0        4.820756    2.688168    0.047715
     41          1           0        4.789712   -1.331034    1.301470
     42          1           0        4.122290   -0.019110    2.322448
     43          1           0        5.812154    0.048327    1.751061
     44          1           0        5.245599    0.504238   -1.910613
 ---------------------------------------------------------------------
 Rotational constants (GHZ):           0.5177283           0.1495137           0.1309550
 Standard basis: def2SVP (5D, 7F)
 There are   434 symmetry adapted cartesian basis functions of A   symmetry.
 There are   413 symmetry adapted basis functions of A   symmetry.
   413 basis functions,   698 primitive gaussians,   434 cartesian basis functions
    83 alpha electrons       83 beta electrons
       nuclear repulsion energy      1928.3033495541 Hartrees.
 NAtoms=   44 NActive=   44 NUniq=   44 SFac= 1.00D+00 NAtFMM=   60 NAOKFM=F Big=F
 Integral buffers will be    131072 words long.
 Raffenetti 2 integral format.
 Two-electron integral symmetry is turned on.
 Nuclear repulsion after empirical dispersion term =     1928.2494704525 Hartrees.
 One-electron integrals computed using PRISM.
   1 Symmetry operations used in ECPInt.
 ECPInt:  NShTT=   19503 NPrTT=   70103 LenC2=   17296 LenP2D=   43780.
 LDataN:  DoStor=T MaxTD1= 4 Len=   56
 NBasis=   413 RedAO= T EigKep=  2.38D-04  NBF=   413
 NBsUse=   413 1.00D-06 EigRej= -1.00D+00 NBFU=   413
 ExpMin= 1.22D-01 ExpMax= 9.18D+03 ExpMxC= 1.38D+03 IAcc=3 IRadAn=         5 AccDes= 0.00D+00
 Harris functional with IExCor= 1009 and IRadAn=       5 diagonalized for initial guess.
 HarFok:  IExCor= 1009 AccDes= 0.00D+00 IRadAn=         5 IDoV= 1 UseB2=F ITyADJ=14
 ICtDFT=  3500011 ScaDFX=  1.000000  1.000000  1.000000  1.000000
 FoFCou: FMM=F IPFlag=           0 FMFlag=      100000 FMFlg1=           0
         NFxFlg=           0 DoJE=T BraDBF=F KetDBF=T FulRan=T
         wScrn=  0.000000 ICntrl=       500 IOpCl=  0 I1Cent=   200000004 NGrid=           0
         NMat0=    1 NMatS0=      1 NMatT0=    0 NMatD0=    1 NMtDS0=    0 NMtDT0=    0
 Petite list used in FoFCou.
 Requested convergence on RMS density matrix=1.00D-08 within 128 cycles.
 Requested convergence on MAX density matrix=1.00D-06.
 Requested convergence on             energy=1.00D-06.
 No special actions if energy rises.
 Integral accuracy reduced to 1.0D-05 until final iterations.
 Initial convergence to 1.0D-05 achieved.  Increase integral accuracy.
 SCF Done:  E(RPBE1PBE) =  -1296.27817975     A.U. after   14 cycles
            NFock= 14  Conv=0.99D-08     -V/T= 2.0072

 **********************************************************************

            Population analysis using the SCF Density.

 **********************************************************************

 Orbital symmetries:
       Occupied  (A) (A) (A) (A) (A) (A) (A) (A) (A) (A) (A) (A)
                 (A) (A) (A) (A) (A) (A) (A) (A) (A) (A) (A) (A)
                 (A) (A) (A) (A) (A) (A) (A) (A) (A) (A) (A) (A)
                 (A) (A) (A) (A) (A) (A) (A) (A) (A) (A) (A) (A)
                 (A) (A) (A) (A) (A) (A) (A) (A) (A) (A) (A) (A)
                 (A) (A) (A) (A) (A) (A) (A) (A) (A) (A) (A) (A)
                 (A) (A) (A) (A) (A) (A) (A) (A) (A) (A) (A)
       Virtual   (A) (A) (A) (A) (A) (A) (A) (A) (A) (A) (A) (A)
                 (A) (A) (A) (A) (A) (A) (A) (A) (A) (A) (A) (A)
                 (A) (A) (A) (A) (A) (A) (A) (A) (A) (A) (A) (A)
                 (A) (A) (A) (A) (A) (A) (A) (A) (A) (A) (A) (A)
                 (A) (A) (A) (A) (A) (A) (A) (A) (A) (A) (A) (A)
                 (A) (A) (A) (A) (A) (A) (A) (A) (A) (A) (A) (A)
                 (A) (A) (A) (A) (A) (A) (A) (A) (A) (A) (A) (A)
                 (A) (A) (A) (A) (A) (A) (A) (A) (A) (A) (A) (A)
                 (A) (A) (A) (A) (A) (A) (A) (A) (A) (A) (A) (A)
                 (A) (A) (A) (A) (A) (A) (A) (A) (A) (A) (A) (A)
                 (A) (A) (A) (A) (A) (A) (A) (A) (A) (A) (A) (A)
                 (A) (A) (A) (A) (A) (A) (A) (A) (A) (A) (A) (A)
                 (A) (A) (A) (A) (A) (A) (A) (A) (A) (A) (A) (A)
                 (A) (A) (A) (A) (A) (A) (A) (A) (A) (A) (A) (A)
                 (A) (A) (A) (A) (A) (A) (A) (A) (A) (A) (A) (A)
                 (A) (A) (A) (A) (A) (A) (A) (A) (A) (A) (A) (A)
                 (A) (A) (A) (A) (A) (A) (A) (A) (A) (A) (A) (A)
                 (A) (A) (A) (A) (A) (A) (A) (A) (A) (A) (A) (A)
                 (A) (A) (A) (A) (A) (A) (A) (A) (A) (A) (A) (A)
                 (A) (A) (A) (A) (A) (A) (A) (A) (A) (A) (A) (A)
                 (A) (A) (A) (A) (A) (A) (A) (A) (A) (A) (A) (A)
                 (A) (A) (A) (A) (A) (A) (A) (A) (A) (A) (A) (A)
                 (A) (A) (A) (A) (A) (A) (A) (A) (A) (A) (A) (A)
                 (A) (A) (A) (A) (A) (A) (A) (A) (A) (A) (A) (A)
                 (A) (A) (A) (A) (A) (A) (A) (A) (A) (A) (A) (A)
                 (A) (A) (A) (A) (A) (A) (A) (A) (A) (A) (A) (A)
                 (A) (A) (A) (A) (A) (A) (A) (A) (A) (A) (A) (A)
                 (A) (A) (A) (A) (A) (A)
 The electronic state is 1-A.
 Alpha  occ. eigenvalues --  -89.18460 -19.21444 -19.21098 -14.40011 -14.34663
 Alpha  occ. eigenvalues --  -14.34615 -10.32766 -10.28463 -10.28071 -10.27881
 Alpha  occ. eigenvalues --  -10.26885 -10.26449 -10.26238 -10.25865 -10.25718
 Alpha  occ. eigenvalues --  -10.25584 -10.25332 -10.25044 -10.24897 -10.23832
 Alpha  occ. eigenvalues --  -10.22296  -8.15876  -6.10009  -6.09909  -6.09884
 Alpha  occ. eigenvalues --   -1.07467  -1.06717  -1.00715  -0.96444  -0.89995
 Alpha  occ. eigenvalues --   -0.85478  -0.82455  -0.80084  -0.79530  -0.78221
 Alpha  occ. eigenvalues --   -0.76366  -0.71499  -0.70872  -0.69153  -0.67436
 Alpha  occ. eigenvalues --   -0.64764  -0.63539  -0.61125  -0.58643  -0.57174
 Alpha  occ. eigenvalues --   -0.55439  -0.54260  -0.51417  -0.50372  -0.49695
 Alpha  occ. eigenvalues --   -0.49189  -0.48861  -0.47769  -0.47413  -0.47297
 Alpha  occ. eigenvalues --   -0.46477  -0.46102  -0.45834  -0.44885  -0.44606
 Alpha  occ. eigenvalues --   -0.44027  -0.43281  -0.41799  -0.41023  -0.40376
 Alpha  occ. eigenvalues --   -0.40088  -0.39326  -0.39040  -0.38631  -0.37418
 Alpha  occ. eigenvalues --   -0.37131  -0.36909  -0.35898  -0.34875  -0.32447
 Alpha  occ. eigenvalues --   -0.29070  -0.28690  -0.28056  -0.27091  -0.26955
 Alpha  occ. eigenvalues --   -0.25871  -0.24451  -0.23455
 Alpha virt. eigenvalues --   -0.06934  -0.01922   0.01564   0.05935   0.06685
 Alpha virt. eigenvalues --    0.07467   0.08037   0.08383   0.09251   0.09580
 Alpha virt. eigenvalues --    0.09911   0.10609   0.10649   0.11279   0.11693
 Alpha virt. eigenvalues --    0.12101   0.13037   0.13467   0.13688   0.14138
 Alpha virt. eigenvalues --    0.14567   0.14696   0.15122   0.15803   0.16364
 Alpha virt. eigenvalues --    0.16839   0.17092   0.18039   0.18090   0.18923
 Alpha virt. eigenvalues --    0.19746   0.20112   0.20642   0.21039   0.23164
 Alpha virt. eigenvalues --    0.23647   0.24647   0.25851   0.26376   0.27049
 Alpha virt. eigenvalues --    0.27826   0.28667   0.29786   0.31024   0.32297
 Alpha virt. eigenvalues --    0.33261   0.35362   0.36848   0.38393   0.41507
 Alpha virt. eigenvalues --    0.41569   0.41861   0.42130   0.43290   0.44122
 Alpha virt. eigenvalues --    0.45606   0.46482   0.47392   0.47781   0.48105
 Alpha virt. eigenvalues --    0.48483   0.49247   0.50098   0.50873   0.51069
 Alpha virt. eigenvalues --    0.52343   0.53200   0.54322   0.54841   0.55702
 Alpha virt. eigenvalues --    0.57214   0.57547   0.58361   0.59554   0.60013
 Alpha virt. eigenvalues --    0.60867   0.61760   0.62138   0.63343   0.63983
 Alpha virt. eigenvalues --    0.64711   0.64898   0.65266   0.65588   0.66089
 Alpha virt. eigenvalues --    0.66147   0.66835   0.66998   0.67370   0.67458
 Alpha virt. eigenvalues --    0.67866   0.68331   0.68719   0.68968   0.69040
 Alpha virt. eigenvalues --    0.69362   0.69846   0.70090   0.70517   0.70675
 Alpha virt. eigenvalues --    0.71312   0.71727   0.72079   0.72488   0.73085
 Alpha virt. eigenvalues --    0.73952   0.74456   0.74795   0.75552   0.75732
 Alpha virt. eigenvalues --    0.76616   0.77154   0.79327   0.79527   0.79971
 Alpha virt. eigenvalues --    0.82047   0.82194   0.82525   0.83147   0.84455
 Alpha virt. eigenvalues --    0.86314   0.86838   0.88313   0.88772   0.89520
 Alpha virt. eigenvalues --    0.90803   0.92164   0.92719   0.94661   0.95934
 Alpha virt. eigenvalues --    0.96787   0.97483   0.98970   1.00434   1.04477
 Alpha virt. eigenvalues --    1.05471   1.06230   1.07000   1.08858   1.10381
 Alpha virt. eigenvalues --    1.11890   1.13012   1.14930   1.15239   1.16445
 Alpha virt. eigenvalues --    1.17307   1.18612   1.21184   1.21358   1.21668
 Alpha virt. eigenvalues --    1.22189   1.23127   1.24283   1.24708   1.25290
 Alpha virt. eigenvalues --    1.27027   1.28402   1.29451   1.30354   1.30781
 Alpha virt. eigenvalues --    1.33497   1.33684   1.35527   1.36754   1.36823
 Alpha virt. eigenvalues --    1.38703   1.39044   1.43077   1.44313   1.44914
 Alpha virt. eigenvalues --    1.47205   1.47482   1.49324   1.50595   1.51279
 Alpha virt. eigenvalues --    1.52116   1.53923   1.54825   1.55540   1.56828
 Alpha virt. eigenvalues --    1.57436   1.58159   1.59515   1.63030   1.64892
 Alpha virt. eigenvalues --    1.66411   1.68356   1.69834   1.71213   1.71541
 Alpha virt. eigenvalues --    1.72598   1.73545   1.73837   1.74799   1.75186
 Alpha virt. eigenvalues --    1.76588   1.76792   1.76990   1.77845   1.78223
 Alpha virt. eigenvalues --    1.78356   1.78912   1.79112   1.79985   1.81048
 Alpha virt. eigenvalues --    1.81440   1.82905   1.83741   1.84254   1.84511
 Alpha virt. eigenvalues --    1.84594   1.86104   1.86776   1.88339   1.88788
 Alpha virt. eigenvalues --    1.89733   1.90968   1.91484   1.92912   1.93391
 Alpha virt. eigenvalues --    1.93738   1.94019   1.94203   1.96108   1.97102
 Alpha virt. eigenvalues --    1.97150   1.97375   1.97938   1.99227   2.01480
 Alpha virt. eigenvalues --    2.01683   2.02570   2.03259   2.05127   2.06410
 Alpha virt. eigenvalues --    2.06726   2.10709   2.10797   2.12145   2.13246
 Alpha virt. eigenvalues --    2.14628   2.15357   2.16109   2.16837   2.18349
 Alpha virt. eigenvalues --    2.18788   2.20029   2.21553   2.22312   2.22992
 Alpha virt. eigenvalues --    2.24914   2.26160   2.27926   2.30324   2.31738
 Alpha virt. eigenvalues --    2.32610   2.33352   2.34155   2.34883   2.36733
 Alpha virt. eigenvalues --    2.37564   2.37952   2.38664   2.40921   2.43578
 Alpha virt. eigenvalues --    2.44491   2.45107   2.46228   2.46747   2.47962
 Alpha virt. eigenvalues --    2.50017   2.51976   2.53219   2.54582   2.55270
 Alpha virt. eigenvalues --    2.56862   2.57451   2.57649   2.58312   2.59480
 Alpha virt. eigenvalues --    2.60583   2.61174   2.65717   2.65882   2.67646
 Alpha virt. eigenvalues --    2.69029   2.70232   2.72608   2.74061   2.74585
 Alpha virt. eigenvalues --    2.75573   2.75982   2.77541   2.77875   2.81180
 Alpha virt. eigenvalues --    2.84399   2.84708   2.87291   2.87781   2.89532
 Alpha virt. eigenvalues --    2.89975   2.91042   2.91741   2.92677   2.94797
 Alpha virt. eigenvalues --    2.95129   2.95365   2.96629   2.98493   2.99242
 Alpha virt. eigenvalues --    3.00063   3.00277   3.01165   3.06002   3.06314
 Alpha virt. eigenvalues --    3.11288   3.13162   3.15340   3.17302   3.19995
 Alpha virt. eigenvalues --    3.23201   3.25240   3.26015   3.28151   3.32407
 Alpha virt. eigenvalues --    3.33756   3.41392   3.55253   3.64274   3.66774
          Condensed to atoms (all electrons):
               1          2          3          4          5          6
     1  O    7.633559   0.765799  -0.136166   0.000261   0.022568   0.001313
     2  C    0.765799   5.142771   0.053987  -0.040234  -0.063876  -0.018674
     3  C   -0.136166   0.053987   5.838521   0.378252   0.342558   0.187895
     4  C    0.000261  -0.040234   0.378252   4.594420  -0.074867  -0.056458
     5  C    0.022568  -0.063876   0.342558  -0.074867   4.576874  -0.048436
     6  N    0.001313  -0.018674   0.187895  -0.056458  -0.048436   7.001918
     7  C   -0.000822  -0.006508  -0.066485   0.010696  -0.010966   0.304851
     8  C    0.000042   0.000029   0.009414  -0.000359  -0.000276  -0.051323
     9  O   -0.000000   0.000066  -0.000602   0.000033  -0.000114  -0.006325
    10  C    0.000001  -0.000172   0.008910  -0.000162  -0.000436  -0.055389
    11  C   -0.000163   0.008324  -0.046540  -0.008135  -0.012572   0.311800
    12  C   -0.132321   0.177295  -0.173663   0.002499   0.018362  -0.008506
    13  C    0.014426  -0.081039   0.021140  -0.002342  -0.000567  -0.000169
    14  C    0.001481   0.017751  -0.000241  -0.000038  -0.000002  -0.000012
    15  C    0.000794  -0.072029  -0.011167  -0.005756   0.000080  -0.032675
    16  C   -0.000075   0.011379  -0.002303  -0.000611   0.000046   0.002356
    17  C   -0.000032  -0.000369  -0.000178   0.000000   0.000001  -0.000039
    18  S    0.000000   0.000020  -0.000001   0.000000   0.000000   0.000000
    19  N   -0.000000  -0.000000  -0.000000  -0.000000   0.000000   0.000000
    20  C   -0.000000  -0.000001  -0.000000   0.000000   0.000000  -0.000000
    21  N   -0.000000   0.000000   0.000000  -0.000000  -0.000000  -0.000000
    22  H   -0.000175   0.005692  -0.010304   0.386560  -0.009494  -0.005226
    23  H   -0.000068  -0.017606   0.000736   0.380035   0.008169  -0.003772
    24  H    0.001055   0.000819  -0.032067   0.391473   0.000531   0.007082
    25  H    0.000916   0.010470  -0.022116  -0.007312   0.389651  -0.005534
    26  H    0.004255  -0.006221  -0.012203  -0.002359   0.382986   0.006392
    27  H    0.005875  -0.012671  -0.001839   0.007637   0.384764  -0.006212
    28  H    0.000599   0.025305  -0.014941   0.001285  -0.004343  -0.028663
    29  H   -0.000153  -0.005312  -0.005639  -0.000520   0.008771  -0.037994
    30  H    0.000000   0.000089  -0.000410   0.000013   0.000032   0.005864
    31  H   -0.000004  -0.000747  -0.000298  -0.000026  -0.000014  -0.008163
    32  H    0.000000  -0.000068  -0.000745  -0.000233   0.000028  -0.005119
    33  H   -0.000000   0.000013  -0.000389   0.000003   0.000033   0.005951
    34  H    0.000006  -0.000208  -0.011941  -0.002431   0.010178  -0.036588
    35  H   -0.000002   0.000760  -0.010610   0.013518  -0.004376  -0.026484
    36  H    0.018603  -0.019967   0.003235  -0.000267  -0.000118  -0.000040
    37  H   -0.000012  -0.000303   0.000008  -0.000001  -0.000000  -0.000000
    38  H   -0.000031  -0.031403   0.002630  -0.007864   0.001548   0.047967
    39  H    0.000001  -0.000210   0.000069  -0.000010  -0.000001  -0.000015
    40  H    0.000000   0.000000  -0.000000   0.000000   0.000000   0.000000
    41  H    0.000000  -0.000000   0.000000  -0.000000  -0.000000  -0.000000
    42  H   -0.000000  -0.000001   0.000000  -0.000000  -0.000000   0.000000
    43  H    0.000000   0.000000   0.000000   0.000000  -0.000000   0.000000
    44  H    0.000000  -0.000000  -0.000000   0.000000  -0.000000   0.000000
               7          8          9         10         11         12
     1  O   -0.000822   0.000042  -0.000000   0.000001  -0.000163  -0.132321
     2  C   -0.006508   0.000029   0.000066  -0.000172   0.008324   0.177295
     3  C   -0.066485   0.009414  -0.000602   0.008910  -0.046540  -0.173663
     4  C    0.010696  -0.000359   0.000033  -0.000162  -0.008135   0.002499
     5  C   -0.010966  -0.000276  -0.000114  -0.000436  -0.012572   0.018362
     6  N    0.304851  -0.051323  -0.006325  -0.055389   0.311800  -0.008506
     7  C    4.773843   0.405037  -0.053992  -0.021802  -0.033313   0.000524
     8  C    0.405037   4.442244   0.320396  -0.042564  -0.025014   0.000654
     9  O   -0.053992   0.320396   7.995217   0.325609  -0.057146  -0.000009
    10  C   -0.021802  -0.042564   0.325609   4.448966   0.409603   0.000019
    11  C   -0.033313  -0.025014  -0.057146   0.409603   4.735616  -0.000446
    12  C    0.000524   0.000654  -0.000009   0.000019  -0.000446   5.787774
    13  C   -0.000334  -0.000013  -0.000000  -0.000001   0.000044   0.215058
    14  C    0.000006   0.000001   0.000000   0.000000  -0.000000   0.113790
    15  C    0.004011  -0.001858   0.000095   0.000217   0.000685   0.252405
    16  C   -0.000351  -0.000269  -0.000000  -0.000034  -0.000108   0.108919
    17  C   -0.000004  -0.000001   0.000000   0.000000  -0.000001  -0.210028
    18  S    0.000000   0.000000  -0.000000  -0.000000  -0.000000   0.000313
    19  N   -0.000000   0.000000   0.000000  -0.000000   0.000000  -0.000047
    20  C   -0.000000   0.000000   0.000000  -0.000000  -0.000000  -0.000137
    21  N    0.000000   0.000000  -0.000000  -0.000000   0.000000  -0.000037
    22  H   -0.000298  -0.000000  -0.000002  -0.000042   0.000666  -0.000503
    23  H   -0.000178  -0.000024  -0.000002  -0.000427  -0.000666   0.010213
    24  H   -0.000284   0.000015   0.000000   0.000002   0.000220  -0.000966
    25  H   -0.001036   0.000001   0.000003  -0.000001   0.003427  -0.000494
    26  H    0.000303   0.000002  -0.000000   0.000008   0.000316   0.000819
    27  H    0.004155   0.000063   0.000002   0.000023  -0.001162   0.001251
    28  H    0.372891  -0.006340   0.003841   0.000601   0.007415  -0.005102
    29  H    0.343370  -0.017644   0.001825  -0.004394  -0.006589   0.000117
    30  H   -0.019017   0.378446  -0.025085   0.006875   0.000074  -0.000040
    31  H   -0.035627   0.376888  -0.035097   0.003152  -0.008215   0.000384
    32  H   -0.009378   0.004119  -0.036180   0.373745  -0.036652  -0.000031
    33  H   -0.000035   0.007051  -0.025587   0.377984  -0.020914  -0.000003
    34  H   -0.008335  -0.003801   0.002123  -0.022038   0.344914  -0.000038
    35  H    0.008053   0.000713   0.004086  -0.003701   0.365454   0.000047
    36  H   -0.000028  -0.000001   0.000000  -0.000000   0.000003  -0.079525
    37  H    0.000000   0.000000  -0.000000  -0.000000   0.000000   0.014442
    38  H   -0.006521  -0.002271  -0.000530  -0.001423  -0.004021  -0.059159
    39  H    0.000005   0.000015  -0.000001  -0.000000   0.000007   0.015575
    40  H   -0.000000  -0.000000  -0.000000   0.000000  -0.000000   0.000007
    41  H    0.000000  -0.000000   0.000000   0.000000   0.000000   0.000020
    42  H   -0.000000   0.000000  -0.000000  -0.000000   0.000000   0.000016
    43  H    0.000000  -0.000000  -0.000000   0.000000   0.000000   0.000003
    44  H   -0.000000   0.000000  -0.000000  -0.000000  -0.000000  -0.000001
              13         14         15         16         17         18
     1  O    0.014426   0.001481   0.000794  -0.000075  -0.000032   0.000000
     2  C   -0.081039   0.017751  -0.072029   0.011379  -0.000369   0.000020
     3  C    0.021140  -0.000241  -0.011167  -0.002303  -0.000178  -0.000001
     4  C   -0.002342  -0.000038  -0.005756  -0.000611   0.000000   0.000000
     5  C   -0.000567  -0.000002   0.000080   0.000046   0.000001   0.000000
     6  N   -0.000169  -0.000012  -0.032675   0.002356  -0.000039   0.000000
     7  C   -0.000334   0.000006   0.004011  -0.000351  -0.000004   0.000000
     8  C   -0.000013   0.000001  -0.001858  -0.000269  -0.000001   0.000000
     9  O   -0.000000   0.000000   0.000095  -0.000000   0.000000  -0.000000
    10  C   -0.000001   0.000000   0.000217  -0.000034   0.000000  -0.000000
    11  C    0.000044  -0.000000   0.000685  -0.000108  -0.000001  -0.000000
    12  C    0.215058   0.113790   0.252405   0.108919  -0.210028   0.000313
    13  C    5.144937   0.224210   0.046103  -0.136376   0.118254   0.000725
    14  C    0.224210   5.215751  -0.149504   0.066498   0.163550  -0.058213
    15  C    0.046103  -0.149504   5.254661   0.190943   0.121226   0.003758
    16  C   -0.136376   0.066498   0.190943   5.148471   0.217188  -0.032115
    17  C    0.118254   0.163550   0.121226   0.217188   5.958378   0.118463
    18  S    0.000725  -0.058213   0.003758  -0.032115   0.118463  14.617845
    19  N   -0.000034   0.006809   0.001995  -0.001128  -0.103469   0.378616
    20  C   -0.000710  -0.002833  -0.000258  -0.006143  -0.118547   0.286154
    21  N    0.001472   0.007857   0.000030   0.003402  -0.065641   0.350049
    22  H    0.000088   0.000001   0.000243  -0.000013  -0.000001  -0.000000
    23  H   -0.000120  -0.000004  -0.000757   0.000250  -0.000143   0.000000
    24  H   -0.000514   0.000006  -0.000226   0.000098   0.000004  -0.000000
    25  H    0.000003  -0.000000   0.000000   0.000000  -0.000000  -0.000000
    26  H    0.000021   0.000000  -0.000021  -0.000001   0.000000  -0.000000
    27  H   -0.000020  -0.000001  -0.000063  -0.000000   0.000000  -0.000000
    28  H    0.000164  -0.000020   0.001955  -0.000416   0.000049  -0.000000
    29  H    0.000009  -0.000001  -0.000408   0.000028  -0.000001   0.000000
    30  H   -0.000002   0.000000  -0.000010   0.000015  -0.000000   0.000000
    31  H    0.000038  -0.000013  -0.000735   0.000491  -0.000007  -0.000000
    32  H    0.000001  -0.000000  -0.001862   0.000120  -0.000001   0.000000
    33  H    0.000000   0.000000  -0.000015   0.000001  -0.000000   0.000000
    34  H   -0.000001  -0.000000  -0.000231   0.000010  -0.000000   0.000000
    35  H    0.000003   0.000000   0.000213  -0.000043   0.000001  -0.000000
    36  H    0.468274  -0.073862   0.013657  -0.002150   0.016624  -0.000139
    37  H   -0.051949   0.446538  -0.001881   0.012040  -0.082897  -0.007608
    38  H    0.014939  -0.002743   0.430901  -0.063626   0.016723  -0.000095
    39  H   -0.002071   0.013690  -0.065747   0.453365  -0.068426  -0.012814
    40  H   -0.000009  -0.000312  -0.000055  -0.000352   0.011604  -0.018810
    41  H    0.000271   0.003646  -0.000024   0.000261   0.001062  -0.005605
    42  H    0.000025  -0.001436   0.000205   0.002339   0.005862  -0.015242
    43  H   -0.000001   0.000060   0.000001   0.000011   0.007491  -0.007486
    44  H   -0.000118  -0.000943  -0.000031  -0.000040  -0.002225  -0.011965
              19         20         21         22         23         24
     1  O   -0.000000  -0.000000  -0.000000  -0.000175  -0.000068   0.001055
     2  C   -0.000000  -0.000001   0.000000   0.005692  -0.017606   0.000819
     3  C   -0.000000  -0.000000   0.000000  -0.010304   0.000736  -0.032067
     4  C   -0.000000   0.000000  -0.000000   0.386560   0.380035   0.391473
     5  C    0.000000   0.000000  -0.000000  -0.009494   0.008169   0.000531
     6  N    0.000000  -0.000000  -0.000000  -0.005226  -0.003772   0.007082
     7  C   -0.000000  -0.000000   0.000000  -0.000298  -0.000178  -0.000284
     8  C    0.000000   0.000000   0.000000  -0.000000  -0.000024   0.000015
     9  O    0.000000   0.000000  -0.000000  -0.000002  -0.000002   0.000000
    10  C   -0.000000  -0.000000  -0.000000  -0.000042  -0.000427   0.000002
    11  C    0.000000  -0.000000   0.000000   0.000666  -0.000666   0.000220
    12  C   -0.000047  -0.000137  -0.000037  -0.000503   0.010213  -0.000966
    13  C   -0.000034  -0.000710   0.001472   0.000088  -0.000120  -0.000514
    14  C    0.006809  -0.002833   0.007857   0.000001  -0.000004   0.000006
    15  C    0.001995  -0.000258   0.000030   0.000243  -0.000757  -0.000226
    16  C   -0.001128  -0.006143   0.003402  -0.000013   0.000250   0.000098
    17  C   -0.103469  -0.118547  -0.065641  -0.000001  -0.000143   0.000004
    18  S    0.378616   0.286154   0.350049  -0.000000   0.000000  -0.000000
    19  N    6.865061  -0.048380  -0.040225  -0.000000  -0.000000   0.000000
    20  C   -0.048380   4.951606  -0.097955   0.000000  -0.000000   0.000000
    21  N   -0.040225  -0.097955   6.909395  -0.000000   0.000000   0.000000
    22  H   -0.000000   0.000000  -0.000000   0.618113  -0.021711  -0.017348
    23  H   -0.000000  -0.000000   0.000000  -0.021711   0.612818  -0.017288
    24  H    0.000000   0.000000   0.000000  -0.017348  -0.017288   0.614034
    25  H    0.000000  -0.000000  -0.000000   0.004512   0.000055  -0.000562
    26  H    0.000000  -0.000000   0.000000  -0.001206   0.000075   0.003175
    27  H   -0.000000   0.000000  -0.000000   0.000210  -0.000487  -0.000142
    28  H    0.000000   0.000000  -0.000000  -0.000018  -0.000019  -0.000068
    29  H   -0.000000  -0.000000  -0.000000  -0.000016   0.000033   0.000046
    30  H    0.000000  -0.000000  -0.000000  -0.000000   0.000002  -0.000000
    31  H   -0.000000   0.000000  -0.000000   0.000001  -0.000010   0.000001
    32  H    0.000000   0.000000   0.000000   0.000035   0.000140  -0.000003
    33  H    0.000000  -0.000000  -0.000000   0.000007   0.000015   0.000001
    34  H   -0.000000  -0.000000  -0.000000  -0.000112   0.000334   0.000075
    35  H    0.000000   0.000000   0.000000   0.001907   0.000601  -0.000485
    36  H    0.000001   0.000018  -0.000008   0.000010  -0.000001  -0.000102
    37  H    0.000671  -0.000238   0.021530   0.000000   0.000000  -0.000001
    38  H   -0.000058   0.000009   0.000000  -0.000013   0.004411   0.000327
    39  H    0.032495   0.000893   0.000376   0.000000   0.000071  -0.000001
    40  H    0.334715  -0.004988  -0.000470   0.000000   0.000000  -0.000000
    41  H    0.003429   0.355127   0.003765   0.000000   0.000000   0.000000
    42  H    0.003869   0.362392   0.006078   0.000000   0.000003  -0.000000
    43  H    0.000599   0.363322   0.007371  -0.000000  -0.000000   0.000000
    44  H   -0.001173   0.009195   0.326757   0.000000  -0.000000  -0.000000
              25         26         27         28         29         30
     1  O    0.000916   0.004255   0.005875   0.000599  -0.000153   0.000000
     2  C    0.010470  -0.006221  -0.012671   0.025305  -0.005312   0.000089
     3  C   -0.022116  -0.012203  -0.001839  -0.014941  -0.005639  -0.000410
     4  C   -0.007312  -0.002359   0.007637   0.001285  -0.000520   0.000013
     5  C    0.389651   0.382986   0.384764  -0.004343   0.008771   0.000032
     6  N   -0.005534   0.006392  -0.006212  -0.028663  -0.037994   0.005864
     7  C   -0.001036   0.000303   0.004155   0.372891   0.343370  -0.019017
     8  C    0.000001   0.000002   0.000063  -0.006340  -0.017644   0.378446
     9  O    0.000003  -0.000000   0.000002   0.003841   0.001825  -0.025085
    10  C   -0.000001   0.000008   0.000023   0.000601  -0.004394   0.006875
    11  C    0.003427   0.000316  -0.001162   0.007415  -0.006589   0.000074
    12  C   -0.000494   0.000819   0.001251  -0.005102   0.000117  -0.000040
    13  C    0.000003   0.000021  -0.000020   0.000164   0.000009  -0.000002
    14  C   -0.000000   0.000000  -0.000001  -0.000020  -0.000001   0.000000
    15  C    0.000000  -0.000021  -0.000063   0.001955  -0.000408  -0.000010
    16  C    0.000000  -0.000001  -0.000000  -0.000416   0.000028   0.000015
    17  C   -0.000000   0.000000   0.000000   0.000049  -0.000001  -0.000000
    18  S   -0.000000  -0.000000  -0.000000  -0.000000   0.000000   0.000000
    19  N    0.000000   0.000000  -0.000000   0.000000  -0.000000   0.000000
    20  C   -0.000000  -0.000000   0.000000   0.000000  -0.000000  -0.000000
    21  N   -0.000000   0.000000  -0.000000  -0.000000  -0.000000  -0.000000
    22  H    0.004512  -0.001206   0.000210  -0.000018  -0.000016  -0.000000
    23  H    0.000055   0.000075  -0.000487  -0.000019   0.000033   0.000002
    24  H   -0.000562   0.003175  -0.000142  -0.000068   0.000046  -0.000000
    25  H    0.640278  -0.021739  -0.023392   0.000040  -0.000153   0.000003
    26  H   -0.021739   0.624803  -0.016970  -0.000001  -0.000611  -0.000002
    27  H   -0.023392  -0.016970   0.612916   0.001084   0.001223   0.000023
    28  H    0.000040  -0.000001   0.001084   0.616618  -0.027878  -0.002476
    29  H   -0.000153  -0.000611   0.001223  -0.027878   0.697813  -0.005973
    30  H    0.000003  -0.000002   0.000023  -0.002476  -0.005973   0.652447
    31  H   -0.000006   0.000001  -0.000020  -0.002531   0.009475  -0.030297
    32  H   -0.000022  -0.000001  -0.000006   0.000248   0.001098  -0.000141
    33  H    0.000023  -0.000002  -0.000001   0.000028   0.000234  -0.000310
    34  H    0.000759  -0.000625  -0.000124  -0.000287   0.018405   0.000207
    35  H    0.000687  -0.000004   0.000060  -0.000221  -0.000197   0.000028
    36  H   -0.000001  -0.000010  -0.000008   0.000068   0.000002  -0.000000
    37  H    0.000000  -0.000000  -0.000000  -0.000000  -0.000000  -0.000000
    38  H   -0.000028  -0.000076  -0.000010  -0.001550   0.001496   0.000070
    39  H   -0.000000  -0.000000  -0.000000  -0.000001   0.000000  -0.000001
    40  H   -0.000000  -0.000000  -0.000000  -0.000000   0.000000   0.000000
    41  H    0.000000  -0.000000  -0.000000  -0.000000   0.000000   0.000000
    42  H   -0.000000  -0.000000  -0.000000  -0.000000   0.000000  -0.000000
    43  H    0.000000   0.000000  -0.000000  -0.000000   0.000000   0.000000
    44  H   -0.000000  -0.000000   0.000000   0.000000  -0.000000  -0.000000
              31         32         33         34         35         36
     1  O   -0.000004   0.000000  -0.000000   0.000006  -0.000002   0.018603
     2  C   -0.000747  -0.000068   0.000013  -0.000208   0.000760  -0.019967
     3  C   -0.000298  -0.000745  -0.000389  -0.011941  -0.010610   0.003235
     4  C   -0.000026  -0.000233   0.000003  -0.002431   0.013518  -0.000267
     5  C   -0.000014   0.000028   0.000033   0.010178  -0.004376  -0.000118
     6  N   -0.008163  -0.005119   0.005951  -0.036588  -0.026484  -0.000040
     7  C   -0.035627  -0.009378  -0.000035  -0.008335   0.008053  -0.000028
     8  C    0.376888   0.004119   0.007051  -0.003801   0.000713  -0.000001
     9  O   -0.035097  -0.036180  -0.025587   0.002123   0.004086   0.000000
    10  C    0.003152   0.373745   0.377984  -0.022038  -0.003701  -0.000000
    11  C   -0.008215  -0.036652  -0.020914   0.344914   0.365454   0.000003
    12  C    0.000384  -0.000031  -0.000003  -0.000038   0.000047  -0.079525
    13  C    0.000038   0.000001   0.000000  -0.000001   0.000003   0.468274
    14  C   -0.000013  -0.000000   0.000000  -0.000000   0.000000  -0.073862
    15  C   -0.000735  -0.001862  -0.000015  -0.000231   0.000213   0.013657
    16  C    0.000491   0.000120   0.000001   0.000010  -0.000043  -0.002150
    17  C   -0.000007  -0.000001  -0.000000  -0.000000   0.000001   0.016624
    18  S   -0.000000   0.000000   0.000000   0.000000  -0.000000  -0.000139
    19  N   -0.000000   0.000000   0.000000  -0.000000   0.000000   0.000001
    20  C    0.000000   0.000000  -0.000000  -0.000000   0.000000   0.000018
    21  N   -0.000000   0.000000  -0.000000  -0.000000   0.000000  -0.000008
    22  H    0.000001   0.000035   0.000007  -0.000112   0.001907   0.000010
    23  H   -0.000010   0.000140   0.000015   0.000334   0.000601  -0.000001
    24  H    0.000001  -0.000003   0.000001   0.000075  -0.000485  -0.000102
    25  H   -0.000006  -0.000022   0.000023   0.000759   0.000687  -0.000001
    26  H    0.000001  -0.000001  -0.000002  -0.000625  -0.000004  -0.000010
    27  H   -0.000020  -0.000006  -0.000001  -0.000124   0.000060  -0.000008
    28  H   -0.002531   0.000248   0.000028  -0.000287  -0.000221   0.000068
    29  H    0.009475   0.001098   0.000234   0.018405  -0.000197   0.000002
    30  H   -0.030297  -0.000141  -0.000310   0.000207   0.000028  -0.000000
    31  H    0.692749   0.011473  -0.000181   0.000898   0.000276   0.000001
    32  H    0.011473   0.699737  -0.030020   0.010285  -0.003242   0.000000
[...]
    30  H   -0.035114   0.000135  -0.000141   0.000441   0.000041  -0.000001
    31  H    0.618949   0.012026   0.000168   0.001289   0.000617   0.000008
    32  H    0.012026   0.638806  -0.036949   0.011849   0.000619   0.000000
    33  H    0.000168  -0.036949   0.588912  -0.003407  -0.002002   0.000000
    34  H    0.001289   0.011849  -0.003407   0.649029  -0.034888   0.000001
    35  H    0.000617   0.000619  -0.002002  -0.034888   0.587614   0.000001
    36  H    0.000008   0.000000   0.000000   0.000001   0.000001   0.502552
    37  H    0.000000  -0.000000  -0.000000   0.000000  -0.000000  -0.006624
    38  H    0.003595   0.006452   0.000201   0.002033  -0.001005   0.000017
    39  H    0.000119   0.000049  -0.000000  -0.000001   0.000006   0.000045
    40  H   -0.000000   0.000000  -0.000000   0.000000  -0.000000  -0.000000
    41  H   -0.000000   0.000000  -0.000000  -0.000000  -0.000000   0.000010
    42  H   -0.000000   0.000000   0.000000   0.000000  -0.000000  -0.000003
    43  H   -0.000000  -0.000000   0.000000   0.000000  -0.000000  -0.000001
    44  H    0.000000   0.000000   0.000000   0.000000   0.000000   0.000013
              37         38         39         40         41         42
     1  O   -0.000116   0.000015   0.000007   0.000000   0.000000   0.000000
     2  C   -0.000300  -0.032444   0.000192   0.000000   0.000022  -0.000008
     3  C   -0.000010   0.013984   0.000126  -0.000000   0.000000   0.000001
     4  C   -0.000003  -0.011327   0.000001   0.000000   0.000000  -0.000000
     5  C    0.000000   0.000828  -0.000004  -0.000000   0.000000   0.000000
     6  N    0.000000   0.064996  -0.000204   0.000000  -0.000000  -0.000000
     7  C    0.000000  -0.015785   0.000023  -0.000000  -0.000000  -0.000000
     8  C   -0.000000   0.001333  -0.000019   0.000000   0.000000   0.000000
     9  O    0.000000  -0.000311  -0.000002  -0.000000  -0.000000  -0.000000
    10  C   -0.000000   0.000234   0.000020  -0.000000  -0.000000   0.000000
    11  C   -0.000000  -0.006896   0.000001  -0.000000  -0.000000  -0.000000
    12  C    0.012894  -0.062642   0.013503  -0.000032  -0.000125  -0.000040
    13  C   -0.064699   0.009313  -0.002699   0.000095   0.000588  -0.000147
    14  C    0.458138  -0.000435   0.009590  -0.001050  -0.010321   0.004708
    15  C   -0.001545   0.397377  -0.069239  -0.000021   0.000060   0.000048
    16  C    0.003719  -0.034269   0.444684  -0.003550   0.001239  -0.007445
    17  C   -0.072715   0.010984  -0.053271   0.018914   0.012533   0.007262
    18  S   -0.001643  -0.000559  -0.001328  -0.019075  -0.012521  -0.022616
    19  N    0.002180  -0.000271   0.025274   0.311356   0.004908   0.003182
    20  C   -0.002681  -0.000042   0.001815  -0.009972   0.359818   0.376515
    21  N    0.021250  -0.000003   0.000921  -0.000900   0.002411   0.005507
    22  H   -0.000000   0.000286   0.000000   0.000000   0.000000   0.000000
    23  H    0.000000   0.001383   0.000048  -0.000000  -0.000000   0.000002
    24  H    0.000000   0.000481  -0.000002  -0.000000  -0.000000  -0.000000
    25  H    0.000000   0.000067  -0.000000  -0.000000   0.000000  -0.000000
    26  H    0.000000  -0.000157   0.000000  -0.000000  -0.000000  -0.000000
    27  H   -0.000000  -0.000001  -0.000000   0.000000  -0.000000   0.000000
    28  H   -0.000003  -0.001007   0.000023   0.000000   0.000000   0.000000
    29  H    0.000000   0.002013  -0.000001   0.000000  -0.000000   0.000000
    30  H    0.000000   0.000350  -0.000003   0.000000   0.000000  -0.000000
    31  H    0.000000   0.003595   0.000119  -0.000000  -0.000000  -0.000000
    32  H   -0.000000   0.006452   0.000049   0.000000   0.000000   0.000000
    33  H   -0.000000   0.000201  -0.000000  -0.000000  -0.000000   0.000000
    34  H    0.000000   0.002033  -0.000001   0.000000  -0.000000   0.000000
    35  H   -0.000000  -0.001005   0.000006  -0.000000  -0.000000  -0.000000
    36  H   -0.006624   0.000017   0.000045  -0.000000   0.000010  -0.000003
    37  H    0.495590   0.000108  -0.000287  -0.000076  -0.000679   0.000350
    38  H    0.000108   0.513740  -0.007387   0.000002   0.000006   0.000003
    39  H   -0.000287  -0.007387   0.485835  -0.001494  -0.000182   0.000259
    40  H   -0.000076   0.000002  -0.001494   0.488667   0.000205   0.000087
    41  H   -0.000679   0.000006  -0.000182   0.000205   0.514872  -0.017140
    42  H    0.000350   0.000003   0.000259   0.000087  -0.017140   0.511699
    43  H   -0.000097  -0.000001  -0.000097   0.002077  -0.010556  -0.014316
    44  H   -0.003003  -0.000001   0.000030  -0.000337  -0.000816  -0.000597
              43         44
     1  O    0.000000   0.000000
     2  C   -0.000000  -0.000000
     3  C   -0.000000  -0.000000
     4  C    0.000000  -0.000000
     5  C   -0.000000  -0.000000
     6  N    0.000000   0.000000
     7  C    0.000000   0.000000
     8  C   -0.000000  -0.000000
     9  O    0.000000  -0.000000
    10  C    0.000000  -0.000000
    11  C   -0.000000   0.000000
    12  C   -0.000022  -0.000036
    13  C    0.000052  -0.000148
    14  C   -0.000204  -0.005477
    15  C    0.000066  -0.000006
    16  C   -0.000708   0.002601
    17  C    0.007904   0.000823
    18  S   -0.014096  -0.024530
    19  N    0.000866  -0.002386
    20  C    0.372415   0.013543
    21  N    0.005146   0.312261
    22  H   -0.000000  -0.000000
    23  H    0.000000  -0.000000
    24  H    0.000000  -0.000000
    25  H   -0.000000  -0.000000
    26  H    0.000000  -0.000000
    27  H   -0.000000   0.000000
    28  H   -0.000000   0.000000
    29  H    0.000000  -0.000000
    30  H   -0.000000  -0.000000
    31  H   -0.000000   0.000000
    32  H   -0.000000   0.000000
    33  H    0.000000   0.000000
    34  H    0.000000   0.000000
    35  H   -0.000000   0.000000
    36  H   -0.000001   0.000013
    37  H   -0.000097  -0.003003
    38  H   -0.000001  -0.000001
    39  H   -0.000097   0.000030
    40  H    0.002077  -0.000337
    41  H   -0.010556  -0.000816
    42  H   -0.014316  -0.000597
    43  H    0.500407  -0.000651
    44  H   -0.000651   0.490843
 Mulliken charges:
               1
     1  O   -0.291412
     2  C    0.114592
     3  C    0.253321
     4  C   -0.441775
     5  C   -0.401379
     6  N   -0.193748
     7  C   -0.144941
     8  C   -0.078540
     9  O   -0.269871
    10  C   -0.054723
    11  C   -0.151398
    12  C    0.084605
    13  C   -0.195203
    14  C   -0.176489
    15  C   -0.114462
    16  C   -0.248165
    17  C    0.139411
    18  S    0.458607
    19  N   -0.553287
    20  C   -0.344455
    21  N   -0.558905
    22  H    0.141438
    23  H    0.145638
    24  H    0.146060
    25  H    0.130766
    26  H    0.137391
    27  H    0.139396
    28  H    0.130042
    29  H    0.090239
    30  H    0.116514
    31  H    0.093739
    32  H    0.081444
    33  H    0.117644
    34  H    0.082810
    35  H    0.113587
    36  H    0.149727
    37  H    0.160250
    38  H    0.144741
    39  H    0.153648
    40  H    0.215102
    41  H    0.155667
    42  H    0.152689
    43  H    0.151816
    44  H    0.217872
 Sum of Mulliken charges =  -0.00000
 Mulliken charges with hydrogens summed into heavy atoms:
               1
     1  O   -0.291412
     2  C    0.114592
     3  C    0.253321
     4  C   -0.008639
     5  C    0.006173
     6  N   -0.193748
     7  C    0.075341
     8  C    0.131713
     9  O   -0.269871
    10  C    0.144364
    11  C    0.044998
    12  C    0.084605
    13  C   -0.045476
    14  C   -0.016240
    15  C    0.030279
    16  C   -0.094518
    17  C    0.139411
    18  S    0.458607
    19  N   -0.338185
    20  C    0.115718
    21  N   -0.341033
 Electronic spatial extent (au):  <R**2>=           8478.0376
 Charge=              0.0000 electrons
 Dipole moment (field-independent basis, Debye):
    X=             -0.7085    Y=             -0.2862    Z=              3.0455  Tot=              3.1399
 Quadrupole moment (field-independent basis, Debye-Ang):
   XX=           -136.2768   YY=           -145.3634   ZZ=           -128.3603
   XY=              0.4943   XZ=              1.8097   YZ=             -2.6350
 Traceless Quadrupole moment (field-independent basis, Debye-Ang):
   XX=              0.3900   YY=             -8.6966   ZZ=              8.3065
   XY=              0.4943   XZ=              1.8097   YZ=             -2.6350
 Octapole moment (field-independent basis, Debye-Ang**2):
  XXX=            -25.4195  YYY=              2.2244  ZZZ=            -11.0665  XYY=             26.3119
  XXY=             -0.2947  XXZ=             72.4054  XZZ=             -0.4208  YZZ=             11.8395
  YYZ=             16.1628  XYZ=             -8.6732
 Hexadecapole moment (field-independent basis, Debye-Ang**3):
 XXXX=          -8635.5770 YYYY=          -2150.6359 ZZZZ=           -831.6212 XXXY=            238.2936
 XXXZ=            240.4421 YYYX=              2.4359 YYYZ=             -4.5774 ZZZX=             -0.0607
 ZZZY=            -17.5059 XXYY=          -1790.6486 XXZZ=          -1451.5633 YYZZ=           -481.0970
 XXYZ=              5.7750 YYXZ=            -63.6328 ZZXY=            -16.9628
 N-N= 1.921068360263D+03 E-N=-6.882430465760D+03  KE= 1.292092708418D+03
 Breneman (CHELPG) radii used.
 Read replacement radii for each type of atom:
 Atom Element Radius
    1     8    1.70
    2     6    1.50
    3     6    1.50
    4     6    1.50
    5     6    1.50
    6     7    1.70
    7     6    1.50
    8     6    1.50
    9     8    1.70
   10     6    1.50
   11     6    1.50
   12     6    1.50
   13     6    1.50
   14     6    1.50
   15     6    1.50
   16     6    1.50
   17     6    1.50
   18    16    2.00
   19     7    1.70
   20     6    1.50
   21     7    1.70
   22     1    1.45
   23     1    1.45
   24     1    1.45
   25     1    1.45
   26     1    1.45
   27     1    1.45
   28     1    1.45
   29     1    1.45
   30     1    1.45
   31     1    1.45
   32     1    1.45
   33     1    1.45
   34     1    1.45
   35     1    1.45
   36     1    1.45
   37     1    1.45
   38     1    1.45
   39     1    1.45
   40     1    1.45
   41     1    1.45
   42     1    1.45
   43     1    1.45
   44     1    1.45
 Generate Potential Derived Charges using the Breneman model, NDens= 1.
 Grid spacing= 0.300 Box extension= 2.800
 NStep X,Y,Z=   56     40     37   Total possible points=       82880
 Number of Points to Fit=   22782

 **********************************************************************

            Electrostatic Properties Using The SCF Density.

 **********************************************************************

       Atomic Center    1 is at  -1.414647 -2.758320 -0.998301
       Atomic Center    2 is at  -1.318802 -1.749570 -0.334917
       Atomic Center    3 is at  -2.557607 -1.227099  0.431559
       Atomic Center    4 is at  -2.272465 -1.486781  1.918773
       Atomic Center    5 is at  -3.774916 -2.051747  0.004247
       Atomic Center    6 is at  -2.711049  0.206962  0.173198
       Atomic Center    7 is at  -2.823892  0.561677 -1.229415
       Atomic Center    8 is at  -2.708105  2.066679 -1.388056
       Atomic Center    9 is at  -3.680804  2.735124 -0.630539
       Atomic Center   10 is at  -3.576687  2.404103  0.726152
       Atomic Center   11 is at  -3.711374  0.907644  0.953342
       Atomic Center   12 is at   0.026407 -1.085575 -0.204858
       Atomic Center   13 is at   1.109773 -1.773426 -0.772062
       Atomic Center   14 is at   2.395583 -1.253555 -0.701081
       Atomic Center   15 is at   0.253620  0.146640  0.426802
       Atomic Center   16 is at   1.539246  0.675306  0.505191
       Atomic Center   17 is at   2.596528 -0.037339 -0.051877
       Atomic Center   18 is at   4.287678  0.584355  0.004241
       Atomic Center   19 is at   4.042226  2.086490  0.290814
       Atomic Center   20 is at   4.932943 -0.323168  1.416132
       Atomic Center   21 is at   5.186742  0.016062 -1.124994
       Atomic Center   22 is at  -3.182759 -1.353248  2.521043
       Atomic Center   23 is at  -1.490512 -0.821377  2.309265
       Atomic Center   24 is at  -1.942887 -2.526630  2.058650
       Atomic Center   25 is at  -4.673035 -1.697187  0.530804
       Atomic Center   26 is at  -3.628861 -3.113245  0.241619
       Atomic Center   27 is at  -3.948639 -1.986538 -1.078198
       Atomic Center   28 is at  -2.019447  0.076443 -1.805467
       Atomic Center   29 is at  -3.789908  0.232483 -1.668323
       Atomic Center   30 is at  -2.859507  2.354376 -2.438610
       Atomic Center   31 is at  -1.691508  2.389215 -1.082788
       Atomic Center   32 is at  -2.601556  2.745793  1.131920
       Atomic Center   33 is at  -4.376517  2.943351  1.254949
       Atomic Center   34 is at  -4.746039  0.600707  0.685710
       Atomic Center   35 is at  -3.570420  0.701275  2.024094
       Atomic Center   36 is at   0.909720 -2.721921 -1.273805
       Atomic Center   37 is at   3.249877 -1.762452 -1.156217
       Atomic Center   38 is at  -0.599765  0.698808  0.819783
       Atomic Center   39 is at   1.740451  1.642447  0.968549
       Atomic Center   40 is at   4.951145  2.555876  0.298585
       Atomic Center   41 is at   4.892852 -1.400770  1.216955
       Atomic Center   42 is at   4.333035 -0.046040  2.291364
       Atomic Center   43 is at   5.975735  0.002755  1.527856
       Atomic Center   44 is at   4.942356  0.512439 -1.987594
   22782 points will be used for fitting atomic charges
 Fitting point charges to electrostatic potential
 Charges from ESP fit, RMS=   0.00265 RRMS=   0.20167:
 ESP charges:
               1
     1  O   -0.460998
     2  C    0.438934
     3  C    0.381376
     4  C   -0.392916
     5  C   -0.318414
     6  N   -0.047684
     7  C   -0.136883
     8  C    0.159017
     9  O   -0.390375
    10  C    0.151690
    11  C   -0.159267
    12  C   -0.073892
    13  C   -0.042016
    14  C   -0.184994
    15  C   -0.058033
    16  C   -0.158028
    17  C    0.139655
    18  S    0.659438
    19  N   -0.793903
    20  C   -0.267320
    21  N   -0.749557
    22  H    0.124036
    23  H    0.050114
    24  H    0.091620
    25  H    0.054714
    26  H    0.085200
    27  H    0.066728
    28  H    0.028245
    29  H    0.074060
    30  H    0.058494
    31  H    0.001245
    32  H    0.022151
    33  H    0.052845
    34  H    0.072693
    35  H    0.054273
    36  H    0.100601
    37  H    0.138337
    38  H    0.064279
    39  H    0.150325
    40  H    0.353499
    41  H    0.110341
    42  H    0.085218
    43  H    0.146413
    44  H    0.318741
 Sum of ESP charges =  -0.00000
 ESP charges with hydrogens summed into heavy atoms:
               1
     1  O   -0.460998
     2  C    0.438934
     3  C    0.381376
     4  C   -0.127146
     5  C   -0.111773
     6  N   -0.047684
     7  C   -0.034579
     8  C    0.218756
     9  O   -0.390375
    10  C    0.226686
    11  C   -0.032301
    12  C   -0.073892
    13  C    0.058585
    14  C   -0.046657
    15  C    0.006246
    16  C   -0.007703
    17  C    0.139655
    18  S    0.659438
    19  N   -0.440404
    20  C    0.074653
    21  N   -0.430816
 Charge=  -0.00000 Dipole=    -0.7139    -0.2558     3.0311 Tot=     3.1245
 -----------------------------------------------------------------

              Electrostatic Properties (Atomic Units)

 -----------------------------------------------------------------
    Center     Electric         -------- Electric Field --------
               Potential          X             Y             Z
 -----------------------------------------------------------------
    1 Atom    -22.355794
    2 Atom    -14.672941
    3 Atom    -14.703646
    4 Atom    -14.756298
    5 Atom    -14.773682
    6 Atom    -18.365883
    7 Atom    -14.733168
    8 Atom    -14.715047
    9 Atom    -22.337925
   10 Atom    -14.712878
   11 Atom    -14.731297
   12 Atom    -14.735803
   13 Atom    -14.745487
   14 Atom    -14.741951
   15 Atom    -14.745922
   16 Atom    -14.743895
   17 Atom    -14.723565
   18 Atom    -59.071409
   19 Atom    -18.422368
   20 Atom    -14.732897
   21 Atom    -18.423496
   22 Atom     -1.099740
   23 Atom     -1.102107
   24 Atom     -1.099608
   25 Atom     -1.113298
   26 Atom     -1.116971
   27 Atom     -1.117598
   28 Atom     -1.099981
   29 Atom     -1.115614
   30 Atom     -1.109133
   31 Atom     -1.115644
   32 Atom     -1.113599
   33 Atom     -1.107269
   34 Atom     -1.114140
   35 Atom     -1.099813
   36 Atom     -1.092977
   37 Atom     -1.084649
   38 Atom     -1.091954
   39 Atom     -1.090353
   40 Atom     -1.046119
   41 Atom     -1.074189
   42 Atom     -1.075105
   43 Atom     -1.072045
   44 Atom     -1.049657
 -----------------------------------------------------------------
 Unable to Open any file for archive entry.
 1\1\GINC-NOTCH326\SP\RPBE1PBE\def2TZVP\C15H23N3O2S1\U1414944\10-Feb-20
 25\0\\#N Guess=Read Geom=Check Integral(Ultrafine) Density Pop=(ChelpG
 ,ReadRadii) NMR pbe1pbe EmpiricalDispersion=GD3BJ def2TZVP\\SDI0001_2\
 \0,1\O,0,-1.4265302265,-2.6151644501,-1.3384638179\C,0,-1.3348287101,-
 1.7130329642,-0.5356001529\C,0,-2.5690853767,-1.3285127833,0.315195450
 5\C,0,-2.2577802484,-1.7985666349,1.7444200791\C,0,-3.7810178601,-2.10
 12266835,-0.2126430368\N,0,-2.7465898478,0.12525789,0.2719671131\C,0,-
 2.8856865559,0.6796982518,-1.0618716728\C,0,-2.7935035033,2.1933773432
 ,-0.9995481989\O,0,-3.763901256,2.7278853106,-0.1396511968\C,0,-3.6345
 593976,2.2034652006,1.1523546036\C,0,-3.7447180127,0.6878920648,1.1593
 312591\C,0,0.0027249086,-1.0536201887,-0.3269940441\C,0,1.0869270925,-
 1.6334081789,-1.0029316179\C,0,2.3662258121,-1.1088532683,-0.873128411
 5\C,0,0.2221413521,0.0763040401,0.4755651507\C,0,1.5012443664,0.608470
 8861,0.6139873964\C,0,2.5598706953,0.0022539601,-0.0552231659\S,0,4.24
 27646661,0.6362396155,0.0695628065\N,0,3.9805830091,2.0760485053,0.576
 5062548\C,0,4.9220868562,-0.45774118,1.3246051503\N,0,5.1324927082,0.2
 540414219,-1.1423582283\H,0,-3.1606172108,-1.7693878916,2.3715001546\H
 ,0,-1.4794296203,-1.1849924793,2.218122773\H,0,-1.9115214722,-2.842232
 0848,1.7259930084\H,0,-4.6759414374,-1.8421484759,0.371808577\H,0,-3.6
 164586839,-3.1835454217,-0.135436859\H,0,-3.972049178,-1.8810052917,-1
 .2714766984\H,0,-2.0833305689,0.2971095427,-1.7132324004\H,0,-3.853526
 1678,0.4027852358,-1.5317674078\H,0,-2.964865275,2.6293482001,-1.99449
 5616\H,0,-1.7770289399,2.4840939649,-0.6634681647\H,0,-2.6582862503,2.
 4977381115,1.5911868274\H,0,-4.4337790509,2.6464734476,1.7648370844\H,
 0,-4.7789050363,0.4068009585,0.8629982565\H,0,-3.5846403024,0.32923489
 41,2.1863201196\H,0,0.8926451538,-2.501298215,-1.635729146\H,0,3.22058
 86476,-1.531751198,-1.4090069957\H,0,-0.6328643921,0.551118465,0.95629
 98713\H,0,1.6958338556,1.5004430459,1.2115381988\H,0,4.8828221409,2.55
 38436766,0.6412641511\H,0,4.8941404577,-1.4950586145,0.9700692838\H,0,
 4.331691292,-0.3215013033,2.2387135265\H,0,5.961765845,-0.1349063,1.46
 94088349\H,0,4.8680844454,0.8673871462,-1.9195897737\\Version=ES64L-G1
 6RevC.01\State=1-A\HF=-1297.4331088\RMSD=3.299e-09\Dipole=-0.2589263,-
 0.2913508,1.1722263\Quadrupole=0.3213266,-5.6198406,5.298514,0.2141544
 ,1.5094144,-3.6869119\PG=C01 [X(C15H23N3O2S1)]\\@
 The archive entry for this job was punched.


 OLD HORSE! OLD HORSE! WHAT BROUGHT YOU HERE?
 FROM SACARAP' TO PORTLAND PIER
 I'VE CARTED STONE THIS MANY A YEAR;
 TILL, KILLED BY BLOWS AND SORE ABUSE,
 THEY SALTED ME DOWN FOR SAILORS' USE.
 THE SAILORS THEY DO ME DESPISE;
 THEY TURN ME OVER AND DAMN MY EYES;
 CUT OFF MY MEAT, AND SCRAPE MY BONES,
 AND PITCH ME OVER TO DAVY JONES.

    SAILORS' COMPLAINT ABOUT THE BEEF
    SERVED ON SHIPBOARD, CIRCA 1835.
 Job cpu time:       0 days  2 hours 18 minutes 14.4 seconds.
 Elapsed time:       0 days  0 hours  9 minutes 24.9 seconds.
 File lengths (MBytes):  RWF=    373 Int=      0 D2E=      0 Chk=     58 Scr=      2
 Normal termination of Gaussian 16 at Mon Feb 10 20:37:25 2025.
