 Entering Gaussian System, Link 0=g16
 Input=SDI0432_3.com
 Output=SDI0432_3.log
 Initial command:
 /uufs/chpc.utah.edu/sys/installdir/gaussian16/C01/AVX/g16/l1.exe "/scratch/general/vast/u1414944/3119888-notchpeak.peaks/Gau-662036.inp" -scrdir="/scratch/general/vast/u1414944/3119888-notchpeak.peaks/"
 Entering Link 1 = /uufs/chpc.utah.edu/sys/installdir/gaussian16/C01/AVX/g16/l1.exe PID=    662037.
  
 Copyright (c) 1988-2019, Gaussian, Inc.  All Rights Reserved.
  
 This is part of the Gaussian(R) 16 program.  It is based on
 the Gaussian(R) 09 system (copyright 2009, Gaussian, Inc.),
 the Gaussian(R) 03 system (copyright 2003, Gaussian, Inc.),
 the Gaussian(R) 98 system (copyright 1998, Gaussian, Inc.),
 the Gaussian(R) 94 system (copyright 1995, Gaussian, Inc.),
 the Gaussian 92(TM) system (copyright 1992, Gaussian, Inc.),
 the Gaussian 90(TM) system (copyright 1990, Gaussian, Inc.),
 the Gaussian 88(TM) system (copyright 1988, Gaussian, Inc.),
 the Gaussian 86(TM) system (copyright 1986, Carnegie Mellon
 University), and the Gaussian 82(TM) system (copyright 1983,
 Carnegie Mellon University). Gaussian is a federally registered
 trademark of Gaussian, Inc.
  
 This software contains proprietary and confidential information,
 including trade secrets, belonging to Gaussian, Inc.
  
 This software is provided under written license and may be
 used, copied, transmitted, or stored only in accord with that
 written license.
  
 The following legend is applicable only to US Government
 contracts under FAR:
  
                    RESTRICTED RIGHTS LEGEND
  
 Use, reproduction and disclosure by the US Government is
 subject to restrictions as set forth in subparagraphs (a)
 and (c) of the Commercial Computer Software - Restricted
 Rights clause in FAR 52.227-19.
  
 Gaussian, Inc.
 340 Quinnipiac St., Bldg. 40, Wallingford CT 06492
  
  
 ---------------------------------------------------------------
 Warning -- This program may not be used in any manner that
 competes with the business of Gaussian, Inc. or will provide
 assistance to any competitor of Gaussian, Inc.  The licensee
 of this program is prohibited from giving any competitor of
 Gaussian, Inc. access to this program.  By using this program,
 the user acknowledges that Gaussian, Inc. is engaged in the
 business of creating and licensing software in the field of
 computational chemistry and represents and warrants to the
 licensee that it is not a competitor of Gaussian, Inc. and that
 it will not use this program in any manner prohibited above.
 ---------------------------------------------------------------
  

 Cite this work as:
 Gaussian 16, Revision C.01,
 M. J. Frisch, G. W. Trucks, H. B. Schlegel, G. E. Scuseria, 
 M. A. Robb, J. R. Cheeseman, G. Scalmani, V. Barone, 
 G. A. Petersson, H. Nakatsuji, X. Li, M. Caricato, A. V. Marenich, 
 J. Bloino, B. G. Janesko, R. Gomperts, B. Mennucci, H. P. Hratchian, 
 J. V. Ortiz, A. F. Izmaylov, J. L. Sonnenberg, D. Williams-Young, 
 F. Ding, F. Lipparini, F. Egidi, J. Goings, B. Peng, A. Petrone, 
 T. Henderson, D. Ranasinghe, V. G. Zakrzewski, J. Gao, N. Rega, 
 G. Zheng, W. Liang, M. Hada, M. Ehara, K. Toyota, R. Fukuda, 
 J. Hasegawa, M. Ishida, T. Nakajima, Y. Honda, O. Kitao, H. Nakai, 
 T. Vreven, K. Throssell, J. A. Montgomery, Jr., J. E. Peralta, 
 F. Ogliaro, M. J. Bearpark, J. J. Heyd, E. N. Brothers, K. N. Kudin, 
 V. N. Staroverov, T. A. Keith, R. Kobayashi, J. Normand, 
 K. Raghavachari, A. P. Rendell, J. C. Burant, S. S. Iyengar, 
 J. Tomasi, M. Cossi, J. M. Millam, M. Klene, C. Adamo, R. Cammi, 
 J. W. Ochterski, R. L. Martin, K. Morokuma, O. Farkas, 
 J. B. Foresman, and D. J. Fox, Gaussian, Inc., Wallingford CT, 2019.
 
 ******************************************
 Gaussian 16:  ES64L-G16RevC.01  3-Jul-2019
                10-Feb-2025 
 ******************************************
 %NProcShared=16
 Will use up to   16 processors via shared memory.
 %Mem=40GB
 %chk=SDI0432_3.chk
 ----------------------------------------------------------------------
 #N OPT FREQ=NORAMAN Integral(Ultrafine) pbe1pbe EmpiricalDispersion=GD
 3BJ def2SVP
 ----------------------------------------------------------------------
 1/18=20,19=15,26=4,38=1/1,3;
 2/9=110,12=2,17=6,18=5,40=1/2;
 3/5=43,7=101,11=2,25=1,30=1,71=1,74=-13,75=-5,124=41/1,2,3;
 4//1;
 5/5=2,38=5/2;
 6/7=2,8=2,9=2,10=2,28=1/1;
 7//1,2,3,16;
 1/18=20,19=15,26=4/3(2);
 2/9=110/2;
 99//99;
 2/9=110/2;
 3/5=43,7=101,11=2,25=1,30=1,71=1,74=-13,75=-5,124=41/1,2,3;
 4/5=5,16=3,69=1/1;
 5/5=2,38=5/2;
 7//1,2,3,16;
 1/18=20,19=15,26=4/3(-5);
 2/9=110/2;
 6/7=2,8=2,9=2,10=2,19=2,28=1/1;
 99/9=1/99;
 ---------
 SDI0432_3
 ---------
 Symbolic Z-matrix:
 Charge =  0 Multiplicity = 1
 N                    -1.74234  -1.86539   1.2616 
 S                    -1.44711  -0.84369   0.14806 
 C                     0.29827  -0.39535   0.03999 
 C                     0.87192  -0.07006  -1.17303 
 C                     2.21407   0.26386  -1.21918 
 C                     2.98595   0.27077  -0.06259 
 C                     4.44313   0.61441  -0.11382 
 C                     2.38935  -0.07325   1.14724 
 C                     1.04925  -0.40798   1.20105 
 C                    -2.13646   0.67402   0.93752 
 C                    -1.75768   1.94854   0.20951 
 C                    -2.43756   2.04741  -1.15119 
 N                    -1.81718  -1.06611  -1.33148 
 H                    -1.64124  -2.82529   0.97222 
 H                     0.25657  -0.09208  -2.05748 
 H                     2.66856   0.52239  -2.16469 
 H                     5.03956  -0.29825  -0.10819 
 H                     4.73158   1.20597   0.75242 
 H                     4.6815    1.16957  -1.01744 
 H                     2.98255  -0.07965   2.05033 
 H                     0.57481  -0.69198   2.12851 
 H                    -3.21382   0.52553   0.96696 
 H                    -1.7456    0.63686   1.95027 
 H                    -0.67283   1.97736   0.08014 
 H                    -2.03962   2.80693   0.82648 
 H                    -2.10501   2.93811  -1.67882 
 H                    -2.19805   1.17173  -1.74871 
 H                    -3.51788   2.1009   -1.03302 
 H                    -2.68834  -1.55576  -1.4588 
 

 GradGradGradGradGradGradGradGradGradGradGradGradGradGradGradGradGradGrad
 Berny optimization.
 Initialization pass.
                           ----------------------------
                           !    Initial Parameters    !
                           ! (Angstroms and Degrees)  !
 --------------------------                            --------------------------
 ! Name  Definition              Value          Derivative Info.                !
 --------------------------------------------------------------------------------
 ! R1    R(1,2)                  1.5398         estimate D2E/DX2                !
 ! R2    R(1,14)                 1.0077         estimate D2E/DX2                !
 ! R3    R(2,3)                  1.8053         estimate D2E/DX2                !
 ! R4    R(2,10)                 1.8444         estimate D2E/DX2                !
 ! R5    R(2,13)                 1.5413         estimate D2E/DX2                !
 ! R6    R(3,4)                  1.3807         estimate D2E/DX2                !
 ! R7    R(3,9)                  1.3828         estimate D2E/DX2                !
 ! R8    R(4,5)                  1.3838         estimate D2E/DX2                !
 ! R9    R(4,15)                 1.0777         estimate D2E/DX2                !
 ! R10   R(5,6)                  1.3905         estimate D2E/DX2                !
 ! R11   R(5,16)                 1.0805         estimate D2E/DX2                !
 ! R12   R(6,7)                  1.498          estimate D2E/DX2                !
 ! R13   R(6,8)                  1.3921         estimate D2E/DX2                !
 ! R14   R(7,17)                 1.0903         estimate D2E/DX2                !
 ! R15   R(7,18)                 1.0879         estimate D2E/DX2                !
 ! R16   R(7,19)                 1.087          estimate D2E/DX2                !
 ! R17   R(8,9)                  1.3823         estimate D2E/DX2                !
 ! R18   R(8,20)                 1.0805         estimate D2E/DX2                !
 ! R19   R(9,21)                 1.0798         estimate D2E/DX2                !
 ! R20   R(10,11)                1.5159         estimate D2E/DX2                !
 ! R21   R(10,22)                1.0879         estimate D2E/DX2                !
 ! R22   R(10,23)                1.0862         estimate D2E/DX2                !
 ! R23   R(11,12)                1.5243         estimate D2E/DX2                !
 ! R24   R(11,24)                1.0929         estimate D2E/DX2                !
 ! R25   R(11,25)                1.0941         estimate D2E/DX2                !
 ! R26   R(12,26)                1.0874         estimate D2E/DX2                !
 ! R27   R(12,27)                1.0868         estimate D2E/DX2                !
 ! R28   R(12,28)                1.0881         estimate D2E/DX2                !
 ! R29   R(13,29)                1.0074         estimate D2E/DX2                !
 ! A1    A(2,1,14)             113.9019         estimate D2E/DX2                !
 ! A2    A(1,2,3)              113.1689         estimate D2E/DX2                !
 ! A3    A(1,2,10)              99.4856         estimate D2E/DX2                !
 ! A4    A(1,2,13)             123.5331         estimate D2E/DX2                !
 ! A5    A(3,2,10)             100.5219         estimate D2E/DX2                !
 ! A6    A(3,2,13)             102.1526         estimate D2E/DX2                !
 ! A7    A(10,2,13)            116.0975         estimate D2E/DX2                !
 ! A8    A(2,3,4)              120.8505         estimate D2E/DX2                !
 ! A9    A(2,3,9)              118.1987         estimate D2E/DX2                !
 ! A10   A(4,3,9)              120.9425         estimate D2E/DX2                !
 ! A11   A(3,4,5)              119.2823         estimate D2E/DX2                !
 ! A12   A(3,4,15)             118.6187         estimate D2E/DX2                !
 ! A13   A(5,4,15)             122.0975         estimate D2E/DX2                !
 ! A14   A(4,5,6)              120.7869         estimate D2E/DX2                !
 ! A15   A(4,5,16)             119.6629         estimate D2E/DX2                !
 ! A16   A(6,5,16)             119.5502         estimate D2E/DX2                !
 ! A17   A(5,6,7)              120.8413         estimate D2E/DX2                !
 ! A18   A(5,6,8)              118.9293         estimate D2E/DX2                !
 ! A19   A(7,6,8)              120.2176         estimate D2E/DX2                !
 ! A20   A(6,7,17)             109.8722         estimate D2E/DX2                !
 ! A21   A(6,7,18)             110.8192         estimate D2E/DX2                !
 ! A22   A(6,7,19)             111.0327         estimate D2E/DX2                !
 ! A23   A(17,7,18)            107.8197         estimate D2E/DX2                !
 ! A24   A(17,7,19)            108.1712         estimate D2E/DX2                !
 ! A25   A(18,7,19)            109.0303         estimate D2E/DX2                !
 ! A26   A(6,8,9)              120.6066         estimate D2E/DX2                !
 ! A27   A(6,8,20)             119.5076         estimate D2E/DX2                !
 ! A28   A(9,8,20)             119.8856         estimate D2E/DX2                !
 ! A29   A(3,9,8)              119.4458         estimate D2E/DX2                !
 ! A30   A(3,9,21)             119.0103         estimate D2E/DX2                !
 ! A31   A(8,9,21)             121.5395         estimate D2E/DX2                !
 ! A32   A(2,10,11)            113.1347         estimate D2E/DX2                !
 ! A33   A(2,10,22)            105.6278         estimate D2E/DX2                !
 ! A34   A(2,10,23)            103.677          estimate D2E/DX2                !
 ! A35   A(11,10,22)           112.0361         estimate D2E/DX2                !
 ! A36   A(11,10,23)           112.7449         estimate D2E/DX2                !
 ! A37   A(22,10,23)           109.0535         estimate D2E/DX2                !
 ! A38   A(10,11,12)           111.8263         estimate D2E/DX2                !
 ! A39   A(10,11,24)           109.09           estimate D2E/DX2                !
 ! A40   A(10,11,25)           108.9323         estimate D2E/DX2                !
 ! A41   A(12,11,24)           109.5944         estimate D2E/DX2                !
 ! A42   A(12,11,25)           109.7283         estimate D2E/DX2                !
 ! A43   A(24,11,25)           107.5692         estimate D2E/DX2                !
 ! A44   A(11,12,26)           110.4803         estimate D2E/DX2                !
 ! A45   A(11,12,27)           109.8902         estimate D2E/DX2                !
 ! A46   A(11,12,28)           110.4314         estimate D2E/DX2                !
 ! A47   A(26,12,27)           109.0154         estimate D2E/DX2                !
 ! A48   A(26,12,28)           108.4259         estimate D2E/DX2                !
 ! A49   A(27,12,28)           108.5496         estimate D2E/DX2                !
 ! A50   A(2,13,29)            113.5218         estimate D2E/DX2                !
 ! D1    D(14,1,2,3)           -87.4753         estimate D2E/DX2                !
 ! D2    D(14,1,2,10)          166.6884         estimate D2E/DX2                !
 ! D3    D(14,1,2,13)           36.4643         estimate D2E/DX2                !
 ! D4    D(1,2,3,4)            148.0325         estimate D2E/DX2                !
 ! D5    D(1,2,3,9)            -30.9264         estimate D2E/DX2                !
 ! D6    D(10,2,3,4)          -106.79           estimate D2E/DX2                !
 ! D7    D(10,2,3,9)            74.2511         estimate D2E/DX2                !
 ! D8    D(13,2,3,4)            13.0564         estimate D2E/DX2                !
 ! D9    D(13,2,3,9)          -165.9026         estimate D2E/DX2                !
 ! D10   D(1,2,10,11)          168.3574         estimate D2E/DX2                !
 ! D11   D(1,2,10,22)          -68.7425         estimate D2E/DX2                !
 ! D12   D(1,2,10,23)           45.8995         estimate D2E/DX2                !
 ! D13   D(3,2,10,11)           52.4605         estimate D2E/DX2                !
 ! D14   D(3,2,10,22)          175.3606         estimate D2E/DX2                !
 ! D15   D(3,2,10,23)          -69.9974         estimate D2E/DX2                !
 ! D16   D(13,2,10,11)         -56.7722         estimate D2E/DX2                !
 ! D17   D(13,2,10,22)          66.128          estimate D2E/DX2                !
 ! D18   D(13,2,10,23)        -179.2301         estimate D2E/DX2                !
 ! D19   D(1,2,13,29)           36.1225         estimate D2E/DX2                !
 ! D20   D(3,2,13,29)          164.8436         estimate D2E/DX2                !
 ! D21   D(10,2,13,29)         -86.8869         estimate D2E/DX2                !
 ! D22   D(2,3,4,5)           -179.7604         estimate D2E/DX2                !
 ! D23   D(2,3,4,15)            -0.1955         estimate D2E/DX2                !
 ! D24   D(9,3,4,5)             -0.8301         estimate D2E/DX2                !
 ! D25   D(9,3,4,15)           178.7348         estimate D2E/DX2                !
 ! D26   D(2,3,9,8)            179.7927         estimate D2E/DX2                !
 ! D27   D(2,3,9,21)             0.5392         estimate D2E/DX2                !
 ! D28   D(4,3,9,8)              0.8348         estimate D2E/DX2                !
 ! D29   D(4,3,9,21)          -178.4187         estimate D2E/DX2                !
 ! D30   D(3,4,5,6)              0.19           estimate D2E/DX2                !
 ! D31   D(3,4,5,16)          -179.8129         estimate D2E/DX2                !
 ! D32   D(15,4,5,6)          -179.3591         estimate D2E/DX2                !
 ! D33   D(15,4,5,16)            0.6379         estimate D2E/DX2                !
 ! D34   D(4,5,6,7)            179.1838         estimate D2E/DX2                !
 ! D35   D(4,5,6,8)              0.4284         estimate D2E/DX2                !
 ! D36   D(16,5,6,7)            -0.8132         estimate D2E/DX2                !
 ! D37   D(16,5,6,8)          -179.5686         estimate D2E/DX2                !
 ! D38   D(5,6,7,17)           -99.2315         estimate D2E/DX2                !
 ! D39   D(5,6,7,18)           141.7187         estimate D2E/DX2                !
 ! D40   D(5,6,7,19)            20.3892         estimate D2E/DX2                !
 ! D41   D(8,6,7,17)            79.5079         estimate D2E/DX2                !
 ! D42   D(8,6,7,18)           -39.5419         estimate D2E/DX2                !
 ! D43   D(8,6,7,19)          -160.8713         estimate D2E/DX2                !
 ! D44   D(5,6,8,9)             -0.4243         estimate D2E/DX2                !
 ! D45   D(5,6,8,20)           179.4504         estimate D2E/DX2                !
 ! D46   D(7,6,8,9)           -179.1877         estimate D2E/DX2                !
 ! D47   D(7,6,8,20)             0.687          estimate D2E/DX2                !
 ! D48   D(6,8,9,3)             -0.1973         estimate D2E/DX2                !
 ! D49   D(6,8,9,21)           179.0367         estimate D2E/DX2                !
 ! D50   D(20,8,9,3)           179.9285         estimate D2E/DX2                !
 ! D51   D(20,8,9,21)           -0.8375         estimate D2E/DX2                !
 ! D52   D(2,10,11,12)          68.8445         estimate D2E/DX2                !
 ! D53   D(2,10,11,24)         -52.5474         estimate D2E/DX2                !
 ! D54   D(2,10,11,25)        -169.7025         estimate D2E/DX2                !
 ! D55   D(22,10,11,12)        -50.4281         estimate D2E/DX2                !
 ! D56   D(22,10,11,24)       -171.82           estimate D2E/DX2                !
 ! D57   D(22,10,11,25)         71.0249         estimate D2E/DX2                !
 ! D58   D(23,10,11,12)       -173.9024         estimate D2E/DX2                !
 ! D59   D(23,10,11,24)         64.7058         estimate D2E/DX2                !
 ! D60   D(23,10,11,25)        -52.4494         estimate D2E/DX2                !
 ! D61   D(10,11,12,26)       -176.5941         estimate D2E/DX2                !
 ! D62   D(10,11,12,27)        -56.2627         estimate D2E/DX2                !
 ! D63   D(10,11,12,28)         63.4595         estimate D2E/DX2                !
 ! D64   D(24,11,12,26)        -55.4941         estimate D2E/DX2                !
 ! D65   D(24,11,12,27)         64.8372         estimate D2E/DX2                !
 ! D66   D(24,11,12,28)       -175.4405         estimate D2E/DX2                !
 ! D67   D(25,11,12,26)         62.4136         estimate D2E/DX2                !
 ! D68   D(25,11,12,27)       -177.2551         estimate D2E/DX2                !
 ! D69   D(25,11,12,28)        -57.5328         estimate D2E/DX2                !
 --------------------------------------------------------------------------------
 Trust Radius=3.00D-01 FncErr=1.00D-07 GrdErr=1.00D-06 EigMax=2.50D+02 EigMin=1.00D-04
 Number of steps in this run=    158 maximum allowed number of steps=    174.
 GradGradGradGradGradGradGradGradGradGradGradGradGradGradGradGradGradGrad

                          Input orientation:                          
 ---------------------------------------------------------------------
 Center     Atomic      Atomic             Coordinates (Angstroms)
 Number     Number       Type             X           Y           Z
 ---------------------------------------------------------------------
      1          7           0       -1.742338   -1.865391    1.261596
      2         16           0       -1.447113   -0.843689    0.148061
      3          6           0        0.298266   -0.395351    0.039993
      4          6           0        0.871920   -0.070059   -1.173033
      5          6           0        2.214069    0.263861   -1.219178
      6          6           0        2.985953    0.270767   -0.062591
      7          6           0        4.443133    0.614411   -0.113822
      8          6           0        2.389346   -0.073254    1.147242
      9          6           0        1.049248   -0.407977    1.201050
     10          6           0       -2.136459    0.674018    0.937523
     11          6           0       -1.757677    1.948535    0.209511
     12          6           0       -2.437559    2.047406   -1.151191
     13          7           0       -1.817182   -1.066115   -1.331483
     14          1           0       -1.641241   -2.825293    0.972224
     15          1           0        0.256566   -0.092077   -2.057482
     16          1           0        2.668562    0.522394   -2.164689
     17          1           0        5.039564   -0.298252   -0.108193
     18          1           0        4.731582    1.205969    0.752419
     19          1           0        4.681501    1.169573   -1.017445
     20          1           0        2.982550   -0.079649    2.050326
     21          1           0        0.574811   -0.691981    2.128509
     22          1           0       -3.213823    0.525534    0.966958
     23          1           0       -1.745597    0.636865    1.950269
     24          1           0       -0.672831    1.977356    0.080144
     25          1           0       -2.039617    2.806932    0.826476
     26          1           0       -2.105011    2.938106   -1.678823
     27          1           0       -2.198051    1.171734   -1.748708
     28          1           0       -3.517881    2.100903   -1.033019
     29          1           0       -2.688341   -1.555759   -1.458802
 ---------------------------------------------------------------------
                    Distance matrix (angstroms):
                    1          2          3          4          5
     1  N    0.000000
     2  S    1.539803   0.000000
     3  C    2.795960   1.805279   0.000000
     4  C    3.998122   2.778797   1.380698   0.000000
     5  C    5.132359   4.062052   2.385450   1.383833   0.000000
     6  C    5.354753   4.575857   2.770903   2.412132   1.390520
     7  C    6.804502   6.073684   4.268864   3.787346   2.512653
     8  C    4.505069   4.038608   2.387962   2.772412   2.396729
     9  C    3.149710   2.744166   1.382818   2.404559   2.768696
    10  C    2.590165   1.844419   2.806598   3.749459   4.873056
    11  C    3.956406   2.810115   3.122409   3.591787   4.544672
    12  C    4.649178   3.320763   3.856257   3.928968   4.982298
    13  N    2.714499   1.541258   2.608829   2.872021   4.246461
    14  H    1.007656   2.154921   3.245822   4.302258   5.404492
    15  H    4.261049   2.886497   2.119697   1.077681   2.158996
    16  H    6.074289   4.914649   3.364696   2.135955   1.080460
    17  H    7.094113   6.514611   4.744607   4.307576   3.087667
    18  H    7.183602   6.537783   4.767186   4.498066   3.333562
    19  H    7.461283   6.555268   4.772831   4.009214   2.636140
    20  H    5.112292   4.881012   3.368454   3.852907   3.376125
    21  H    2.738175   2.834319   2.127525   3.372720   3.848091
    22  H    2.822872   2.380468   3.747274   4.650547   5.857446
    23  H    2.595296   2.351401   2.981946   4.135959   5.085615
    24  H    4.160093   2.926161   2.564056   2.854579   3.599791
    25  H    4.701947   3.760099   4.042137   4.555454   5.361507
    26  H    5.643685   4.251154   4.454436   4.262276   5.100716
    27  H    4.300434   2.867677   3.447725   3.361276   4.535574
    28  H    4.914194   3.788621   4.684615   4.899289   6.022012
    29  H    2.896785   2.151674   3.537337   3.868388   5.234697
                    6          7          8          9         10
     6  C    0.000000
     7  C    1.498028   0.000000
     8  C    1.392116   2.506233   0.000000
     9  C    2.410044   3.780558   1.382316   0.000000
    10  C    5.234687   6.663326   4.591874   3.374742   0.000000
    11  C    5.038945   6.350943   4.707947   3.796725   1.515873
    12  C    5.809990   7.104473   5.751435   4.870294   2.517852
    13  N    5.144652   6.595332   4.982442   3.881145   2.877219
    14  H    5.662805   7.073236   4.883645   3.624156   3.534350
    15  H    3.400118   4.669506   3.849592   3.368407   3.909415
    16  H    2.140764   2.713600   3.376632   3.849151   5.721445
    17  H    2.131474   1.090282   2.941156   4.201045   7.316703
    18  H    2.141509   1.087896   2.697844   4.045451   6.891096
    19  H    2.143474   1.086995   3.388873   4.539124   7.109996
    20  H    2.141780   2.701585   1.080506   2.136990   5.292503
    21  H    3.397265   4.658178   2.153659   1.079782   3.261194
    22  H    6.289841   7.733366   5.637956   4.370356   1.087946
    23  H    5.154921   6.523907   4.271637   3.076391   1.086189
    24  H    4.039743   5.297956   3.836747   3.148301   2.139157
    25  H    5.699029   6.907775   5.292833   4.474040   2.137997
    26  H    5.970328   7.122287   6.103620   5.425798   3.460108
    27  H    5.525272   6.862127   5.566034   4.662779   2.732646
    28  H    6.825759   8.150603   6.661519   5.669586   2.797742
    29  H    6.122354   7.574730   5.896795   4.728825   3.319466
                   11         12         13         14         15
    11  C    0.000000
    12  C    1.524312   0.000000
    13  N    3.386195   3.179840   0.000000
    14  H    4.835776   5.374589   2.903916   0.000000
    15  H    3.655206   3.557676   2.403384   4.500140   0.000000
    16  H    5.221330   5.424510   4.831096   6.294572   2.491343
    17  H    7.165994   7.905525   7.007212   7.224015   5.169072
    18  H    6.554130   7.465140   7.238184   7.544021   5.441161
    19  H    6.601152   7.174224   6.879666   7.739174   4.717361
    20  H    5.474658   6.644671   5.953752   5.484552   4.930033
    21  H    4.011904   5.228293   4.222931   3.286168   4.240717
    22  H    2.172330   2.721256   3.125185   3.701498   4.644597
    23  H    2.179648   3.476707   3.697994   3.599167   4.538952
    24  H    1.092911   2.152988   3.544706   4.979866   3.117015
    25  H    1.094066   2.155552   4.439229   5.648178   4.689768
    26  H    2.160023   1.087350   4.029550   6.360810   3.860367
    27  H    2.152202   1.086826   2.308052   4.867210   2.778076
    28  H    2.159958   1.088082   3.607140   5.640052   4.483875
    29  H    3.991176   3.624957   1.007412   2.935647   3.342643
                   16         17         18         19         20
    16  H    0.000000
    17  H    3.244116   0.000000
    18  H    3.637697   1.760167   0.000000
    19  H    2.405605   1.763366   1.770946   0.000000
    20  H    4.269355   2.989699   2.529128   3.722661   0.000000
    21  H    4.928493   5.009179   4.772272   5.497937   2.485612
    22  H    6.664058   8.363789   7.977372   8.166320   6.319412
    23  H    6.035792   7.151932   6.611548   7.099204   4.783177
    24  H    4.280315   6.151856   5.500425   5.525042   4.634080
    25  H    6.027697   7.786564   6.958282   7.159219   5.920500
    26  H    5.372032   7.999115   7.459908   7.044279   6.992615
    27  H    4.927332   7.565396   7.367266   6.918308   6.545016
    28  H    6.484169   8.935386   8.487775   8.252120   7.517807
    29  H    5.789076   7.945186   8.220212   7.869994   6.830218
                   21         22         23         24         25
    21  H    0.000000
    22  H    4.145514   0.000000
    23  H    2.679906   1.770587   0.000000
    24  H    3.588561   3.057918   2.538722   0.000000
    25  H    4.557731   2.569683   2.461412   1.764457   0.000000
    26  H    5.903791   3.748349   4.312215   2.463360   2.509583
    27  H    5.118106   2.970557   3.764735   2.513965   3.054595
    28  H    5.877549   2.564010   3.766219   3.057565   2.478198
    29  H    4.925756   3.239170   4.161505   4.348970   4.967536
                   26         27         28         29
    26  H    0.000000
    27  H    1.770200   0.000000
    28  H    1.764703   1.765649   0.000000
    29  H    4.536905   2.786333   3.773672   0.000000
 Stoichiometry    C10H16N2S
 Framework group  C1[X(C10H16N2S)]
 Deg. of freedom    81
 Full point group                 C1      NOp   1
 Largest Abelian subgroup         C1      NOp   1
 Largest concise Abelian subgroup C1      NOp   1
                         Standard orientation:                         
 ---------------------------------------------------------------------
 Center     Atomic      Atomic             Coordinates (Angstroms)
 Number     Number       Type             X           Y           Z
 ---------------------------------------------------------------------
      1          7           0        1.788017   -2.255934   -0.161356
      2         16           0        1.472959   -0.817902    0.290082
      3          6           0       -0.282336   -0.409154    0.185687
      4          6           0       -0.858300    0.472557    1.078535
      5          6           0       -2.207975    0.758879    0.971808
      6          6           0       -2.984987    0.167131   -0.017957
      7          6           0       -4.449873    0.462250   -0.123332
      8          6           0       -2.385606   -0.728708   -0.898979
      9          6           0       -1.037995   -1.019626   -0.798431
     10          6           0        2.121516    0.107312   -1.167737
     11          6           0        1.715025    1.567647   -1.175285
     12          6           0        2.398400    2.351911   -0.061079
     13          7           0        1.854989   -0.256934    1.673861
     14          1           0        1.711672   -2.940663    0.573958
     15          1           0       -0.238623    0.911091    1.843444
     16          1           0       -2.664387    1.450302    1.665360
     17          1           0       -5.023878   -0.339761    0.341440
     18          1           0       -4.756558    0.530762   -1.164854
     19          1           0       -4.697652    1.392714    0.381050
     20          1           0       -2.982529   -1.200753   -1.666018
     21          1           0       -0.560943   -1.723562   -1.463881
     22          1           0        3.202039   -0.015466   -1.135754
     23          1           0        1.727131   -0.442780   -2.017246
     24          1           0        0.630392    1.637361   -1.060541
     25          1           0        1.973163    2.002957   -2.145260
     26          1           0        2.046593    3.380704   -0.048971
     27          1           0        2.183016    1.892678    0.900121
     28          1           0        3.476554    2.358826   -0.207571
     29          1           0        2.738398   -0.599092    2.016490
 ---------------------------------------------------------------------
 Rotational constants (GHZ):           1.2128259           0.4598881           0.4141859
 Standard basis: def2SVP (5D, 7F)
 There are   279 symmetry adapted cartesian basis functions of A   symmetry.
 There are   266 symmetry adapted basis functions of A   symmetry.
   266 basis functions,   449 primitive gaussians,   279 cartesian basis functions
    53 alpha electrons       53 beta electrons
       nuclear repulsion energy       943.8505357396 Hartrees.
 NAtoms=   29 NActive=   29 NUniq=   29 SFac= 1.00D+00 NAtFMM=   60 NAOKFM=F Big=F
 Integral buffers will be    131072 words long.
 Raffenetti 2 integral format.
 Two-electron integral symmetry is turned on.
 Nuclear repulsion after empirical dispersion term =      943.8177889254 Hartrees.
 One-electron integrals computed using PRISM.
   1 Symmetry operations used in ECPInt.
 ECPInt:  NShTT=    8256 NPrTT=   29630 LenC2=    7916 LenP2D=   21152.
 LDataN:  DoStor=T MaxTD1= 4 Len=   56
 NBasis=   266 RedAO= T EigKep=  2.48D-04  NBF=   266
 NBsUse=   266 1.00D-06 EigRej= -1.00D+00 NBFU=   266
 ExpMin= 1.22D-01 ExpMax= 9.18D+03 ExpMxC= 1.38D+03 IAcc=3 IRadAn=         5 AccDes= 0.00D+00
 Harris functional with IExCor= 1009 and IRadAn=       5 diagonalized for initial guess.
 HarFok:  IExCor= 1009 AccDes= 0.00D+00 IRadAn=         5 IDoV= 1 UseB2=F ITyADJ=14
 ICtDFT=  3500011 ScaDFX=  1.000000  1.000000  1.000000  1.000000
 FoFCou: FMM=F IPFlag=           0 FMFlag=      100000 FMFlg1=           0
         NFxFlg=           0 DoJE=T BraDBF=F KetDBF=T FulRan=T
         wScrn=  0.000000 ICntrl=       500 IOpCl=  0 I1Cent=   200000004 NGrid=           0
         NMat0=    1 NMatS0=      1 NMatT0=    0 NMatD0=    1 NMtDS0=    0 NMtDT0=    0
 Petite list used in FoFCou.
 Requested convergence on RMS density matrix=1.00D-08 within 128 cycles.
 Requested convergence on MAX density matrix=1.00D-06.
 Requested convergence on             energy=1.00D-06.
 No special actions if energy rises.
 Integral accuracy reduced to 1.0D-05 until final iterations.
 Initial convergence to 1.0D-05 achieved.  Increase integral accuracy.
 SCF Done:  E(RPBE1PBE) =  -897.078334284     A.U. after   14 cycles
            NFock= 14  Conv=0.81D-08     -V/T= 2.0066

 **********************************************************************

            Population analysis using the SCF Density.

 **********************************************************************

 Orbital symmetries:
       Occupied  (A) (A) (A) (A) (A) (A) (A) (A) (A) (A) (A) (A)
                 (A) (A) (A) (A) (A) (A) (A) (A) (A) (A) (A) (A)
                 (A) (A) (A) (A) (A) (A) (A) (A) (A) (A) (A) (A)
                 (A) (A) (A) (A) (A) (A) (A) (A) (A) (A) (A) (A)
                 (A) (A) (A) (A) (A)
       Virtual   (A) (A) (A) (A) (A) (A) (A) (A) (A) (A) (A) (A)
                 (A) (A) (A) (A) (A) (A) (A) (A) (A) (A) (A) (A)
                 (A) (A) (A) (A) (A) (A) (A) (A) (A) (A) (A) (A)
                 (A) (A) (A) (A) (A) (A) (A) (A) (A) (A) (A) (A)
                 (A) (A) (A) (A) (A) (A) (A) (A) (A) (A) (A) (A)
                 (A) (A) (A) (A) (A) (A) (A) (A) (A) (A) (A) (A)
                 (A) (A) (A) (A) (A) (A) (A) (A) (A) (A) (A) (A)
                 (A) (A) (A) (A) (A) (A) (A) (A) (A) (A) (A) (A)
                 (A) (A) (A) (A) (A) (A) (A) (A) (A) (A) (A) (A)
                 (A) (A) (A) (A) (A) (A) (A) (A) (A) (A) (A) (A)
                 (A) (A) (A) (A) (A) (A) (A) (A) (A) (A) (A) (A)
                 (A) (A) (A) (A) (A) (A) (A) (A) (A) (A) (A) (A)
                 (A) (A) (A) (A) (A) (A) (A) (A) (A) (A) (A) (A)
                 (A) (A) (A) (A) (A) (A) (A) (A) (A) (A) (A) (A)
                 (A) (A) (A) (A) (A) (A) (A) (A) (A) (A) (A) (A)
                 (A) (A) (A) (A) (A) (A) (A) (A) (A) (A) (A) (A)
                 (A) (A) (A) (A) (A) (A) (A) (A) (A) (A) (A) (A)
                 (A) (A) (A) (A) (A) (A) (A) (A) (A)
 The electronic state is 1-A.
 Alpha  occ. eigenvalues --  -89.17423 -14.34176 -14.33644 -10.25730 -10.25518
 Alpha  occ. eigenvalues --  -10.25464 -10.24956 -10.24471 -10.24367 -10.24197
 Alpha  occ. eigenvalues --  -10.23788 -10.23568 -10.21034  -8.14867  -6.09000
 Alpha  occ. eigenvalues --   -6.08907  -6.08856  -0.99891  -0.89452  -0.84622
 Alpha  occ. eigenvalues --   -0.81813  -0.80627  -0.77558  -0.73122  -0.71046
 Alpha  occ. eigenvalues --   -0.64931  -0.63787  -0.61339  -0.58909  -0.53492
 Alpha  occ. eigenvalues --   -0.52377  -0.49592  -0.49077  -0.47571  -0.46904
 Alpha  occ. eigenvalues --   -0.44930  -0.44602  -0.44517  -0.42667  -0.41616
 Alpha  occ. eigenvalues --   -0.40825  -0.38545  -0.37845  -0.36891  -0.36395
 Alpha  occ. eigenvalues --   -0.36033  -0.35245  -0.33165  -0.27979  -0.27429
 Alpha  occ. eigenvalues --   -0.26200  -0.24982  -0.23226
 Alpha virt. eigenvalues --   -0.02482  -0.01378   0.06249   0.07433   0.08485
 Alpha virt. eigenvalues --    0.09299   0.09483   0.09887   0.10725   0.10788
 Alpha virt. eigenvalues --    0.11970   0.12703   0.13070   0.14477   0.14961
 Alpha virt. eigenvalues --    0.15352   0.15887   0.16592   0.17431   0.19081
 Alpha virt. eigenvalues --    0.20294   0.20678   0.22246   0.22354   0.23270
 Alpha virt. eigenvalues --    0.26588   0.30004   0.31143   0.31313   0.33250
 Alpha virt. eigenvalues --    0.36912   0.39055   0.40323   0.40775   0.42579
 Alpha virt. eigenvalues --    0.43552   0.44450   0.44857   0.45600   0.45950
 Alpha virt. eigenvalues --    0.47642   0.48872   0.49795   0.51749   0.52892
 Alpha virt. eigenvalues --    0.53709   0.55235   0.57392   0.58962   0.59709
 Alpha virt. eigenvalues --    0.60973   0.61743   0.63198   0.63968   0.64473
 Alpha virt. eigenvalues --    0.65310   0.66170   0.66444   0.66518   0.67236
 Alpha virt. eigenvalues --    0.68045   0.68585   0.69510   0.69601   0.70219
 Alpha virt. eigenvalues --    0.70568   0.70829   0.71514   0.72817   0.72875
 Alpha virt. eigenvalues --    0.74066   0.75033   0.75970   0.76241   0.77485
 Alpha virt. eigenvalues --    0.78353   0.79476   0.80306   0.82052   0.82717
 Alpha virt. eigenvalues --    0.83817   0.85677   0.86928   0.87100   0.88819
 Alpha virt. eigenvalues --    0.91904   0.93215   0.93823   0.96749   0.98103
 Alpha virt. eigenvalues --    1.02145   1.03234   1.04085   1.07386   1.09702
 Alpha virt. eigenvalues --    1.12871   1.13894   1.14620   1.17410   1.18187
 Alpha virt. eigenvalues --    1.20551   1.23125   1.24485   1.25981   1.26420
 Alpha virt. eigenvalues --    1.28654   1.29630   1.30169   1.31674   1.32568
 Alpha virt. eigenvalues --    1.36745   1.39825   1.44966   1.47380   1.48512
 Alpha virt. eigenvalues --    1.48706   1.52091   1.52718   1.54938   1.55676
 Alpha virt. eigenvalues --    1.57591   1.60723   1.63895   1.67724   1.69072
 Alpha virt. eigenvalues --    1.70659   1.72359   1.73756   1.74948   1.76676
 Alpha virt. eigenvalues --    1.76722   1.77921   1.78374   1.78664   1.79661
 Alpha virt. eigenvalues --    1.80633   1.81370   1.81618   1.83618   1.84668
 Alpha virt. eigenvalues --    1.85517   1.86088   1.87331   1.88767   1.90237
 Alpha virt. eigenvalues --    1.91402   1.93208   1.95753   1.98594   1.99111
 Alpha virt. eigenvalues --    2.00337   2.00835   2.04240   2.04966   2.06607
 Alpha virt. eigenvalues --    2.09263   2.10661   2.12201   2.14623   2.15350
 Alpha virt. eigenvalues --    2.17354   2.18602   2.21380   2.24355   2.24737
 Alpha virt. eigenvalues --    2.27579   2.29438   2.31666   2.32120   2.35550
 Alpha virt. eigenvalues --    2.36679   2.38110   2.39621   2.40370   2.43529
 Alpha virt. eigenvalues --    2.44635   2.46272   2.49737   2.50581   2.51878
 Alpha virt. eigenvalues --    2.56113   2.57988   2.59297   2.60436   2.61245
 Alpha virt. eigenvalues --    2.61867   2.62630   2.65219   2.66097   2.66774
 Alpha virt. eigenvalues --    2.67836   2.76490   2.77297   2.79009   2.85477
 Alpha virt. eigenvalues --    2.87066   2.88807   2.91440   2.91739   2.94165
 Alpha virt. eigenvalues --    2.94412   2.96411   2.97759   2.97829   3.01177
 Alpha virt. eigenvalues --    3.02474   3.09609   3.11028   3.16885   3.25654
 Alpha virt. eigenvalues --    3.29491   3.33105   3.62068
          Condensed to atoms (all electrons):
               1          2          3          4          5          6
     1  N    6.895633   0.357829  -0.063807   0.001828   0.000027  -0.000044
     2  S    0.357829  14.710910   0.100272  -0.032476   0.004675   0.000447
     3  C   -0.063807   0.100272   5.921500   0.260716   0.108802  -0.201390
     4  C    0.001828  -0.032476   0.260716   5.057894   0.245921   0.113205
     5  C    0.000027   0.004675   0.108802   0.245921   5.149128   0.259329
     6  C   -0.000044   0.000447  -0.201390   0.113205   0.259329   5.325961
     7  C    0.000000   0.000016   0.001090   0.009572  -0.076659   0.411392
     8  C    0.001380   0.001379   0.100419  -0.126510   0.060836   0.260092
     9  C    0.009274  -0.054907   0.196267   0.055638  -0.134537   0.110295
    10  C   -0.104257   0.259488  -0.120522  -0.003598  -0.000190  -0.000194
    11  C    0.008215  -0.065982   0.009608  -0.000147   0.000022   0.000135
    12  C   -0.000270  -0.000596  -0.001199   0.001095  -0.000203   0.000009
    13  N   -0.039410   0.374618  -0.101586  -0.000013   0.001785  -0.000055
    14  H    0.322573  -0.012157  -0.002645   0.000059  -0.000028  -0.000003
    15  H    0.000108  -0.013279  -0.057714   0.452126  -0.069626   0.014310
    16  H    0.000001  -0.000140   0.017581  -0.070432   0.457732  -0.077897
    17  H   -0.000000  -0.000000   0.000087  -0.000466  -0.001531  -0.015003
    18  H    0.000000  -0.000000   0.000056  -0.000552   0.006552  -0.019598
    19  H    0.000000  -0.000000   0.000017   0.000778  -0.010418  -0.018379
    20  H   -0.000007  -0.000183   0.017287  -0.001907   0.014955  -0.079514
    21  H    0.020617  -0.008357  -0.082515   0.013283  -0.002162   0.014734
    22  H    0.010654  -0.016882   0.008684  -0.000070  -0.000005   0.000003
    23  H    0.007396  -0.005631  -0.001068  -0.000009  -0.000035   0.000033
    24  H    0.000118  -0.012314   0.007985   0.000339  -0.000227  -0.000053
    25  H   -0.000240   0.005453  -0.001012  -0.000001   0.000014  -0.000008
    26  H    0.000008   0.000344  -0.000050   0.000158   0.000010   0.000001
    27  H    0.000408   0.005575  -0.005457   0.001473   0.000531  -0.000006
    28  H   -0.000004  -0.001757   0.000212  -0.000035  -0.000000  -0.000000
    29  H   -0.000536  -0.018093   0.012017  -0.000350  -0.000055   0.000008
               7          8          9         10         11         12
     1  N    0.000000   0.001380   0.009274  -0.104257   0.008215  -0.000270
     2  S    0.000016   0.001379  -0.054907   0.259488  -0.065982  -0.000596
     3  C    0.001090   0.100419   0.196267  -0.120522   0.009608  -0.001199
     4  C    0.009572  -0.126510   0.055638  -0.003598  -0.000147   0.001095
     5  C   -0.076659   0.060836  -0.134537  -0.000190   0.000022  -0.000203
     6  C    0.411392   0.260092   0.110295  -0.000194   0.000135   0.000009
     7  C    4.566027  -0.079144   0.009054  -0.000001  -0.000001  -0.000000
     8  C   -0.079144   5.090343   0.292565  -0.000305  -0.000230   0.000020
     9  C    0.009054   0.292565   5.109922  -0.005075  -0.000820   0.000226
    10  C   -0.000001  -0.000305  -0.005075   5.197678   0.292780  -0.073866
    11  C   -0.000001  -0.000230  -0.000820   0.292780   4.804456   0.411679
    12  C   -0.000000   0.000020   0.000226  -0.073866   0.411679   4.637953
    13  N    0.000000  -0.000021   0.006652  -0.047380  -0.001787  -0.015414
    14  H   -0.000000  -0.000097  -0.001216   0.010290  -0.000496   0.000005
    15  H   -0.000232  -0.002080   0.014266   0.001182  -0.000167  -0.000568
    16  H   -0.015907   0.015510  -0.002081   0.000015  -0.000022  -0.000000
    17  H    0.385938  -0.003830  -0.000130   0.000000   0.000000   0.000000
    18  H    0.389364  -0.007817   0.000616  -0.000000  -0.000000   0.000000
    19  H    0.390390   0.008517  -0.000553  -0.000000   0.000000  -0.000000
    20  H   -0.013346   0.459534  -0.070864   0.000031  -0.000007  -0.000000
    21  H   -0.000249  -0.052504   0.445358  -0.000970   0.000211   0.000002
    22  H    0.000000  -0.000005  -0.000063   0.351492  -0.015367  -0.003698
    23  H   -0.000000   0.000326   0.004755   0.346846  -0.018615   0.008707
    24  H   -0.000013   0.000359  -0.001079  -0.019815   0.384870  -0.027103
    25  H    0.000000  -0.000016   0.000057  -0.008580   0.366386  -0.020951
    26  H   -0.000000   0.000000  -0.000013   0.007510  -0.018963   0.378814
    27  H    0.000000  -0.000013  -0.000159  -0.007433  -0.028438   0.396836
    28  H   -0.000000  -0.000000  -0.000004  -0.002617  -0.032521   0.392362
    29  H   -0.000000  -0.000008  -0.000338  -0.005083   0.000074   0.000988
              13         14         15         16         17         18
     1  N   -0.039410   0.322573   0.000108   0.000001  -0.000000   0.000000
     2  S    0.374618  -0.012157  -0.013279  -0.000140  -0.000000  -0.000000
     3  C   -0.101586  -0.002645  -0.057714   0.017581   0.000087   0.000056
     4  C   -0.000013   0.000059   0.452126  -0.070432  -0.000466  -0.000552
     5  C    0.001785  -0.000028  -0.069626   0.457732  -0.001531   0.006552
     6  C   -0.000055  -0.000003   0.014310  -0.077897  -0.015003  -0.019598
     7  C    0.000000  -0.000000  -0.000232  -0.015907   0.385938   0.389364
     8  C   -0.000021  -0.000097  -0.002080   0.015510  -0.003830  -0.007817
     9  C    0.006652  -0.001216   0.014266  -0.002081  -0.000130   0.000616
    10  C   -0.047380   0.010290   0.001182   0.000015   0.000000  -0.000000
    11  C   -0.001787  -0.000496  -0.000167  -0.000022   0.000000  -0.000000
    12  C   -0.015414   0.000005  -0.000568  -0.000000   0.000000   0.000000
    13  N    6.847991  -0.000834   0.023808  -0.000013  -0.000000   0.000000
    14  H   -0.000834   0.566921   0.000032   0.000000   0.000000  -0.000000
    15  H    0.023808   0.000032   0.607972  -0.011234   0.000006   0.000008
    16  H   -0.000013   0.000000  -0.011234   0.675147   0.000624   0.000205
    17  H   -0.000000   0.000000   0.000006   0.000624   0.605107  -0.019007
    18  H    0.000000  -0.000000   0.000008   0.000205  -0.019007   0.618916
    19  H    0.000000   0.000000  -0.000006   0.006222  -0.018674  -0.022269
    20  H    0.000002   0.000003   0.000029  -0.000265   0.001256   0.004498
    21  H    0.000657  -0.000470  -0.000285   0.000036   0.000002   0.000001
    22  H    0.000158  -0.000757  -0.000059  -0.000000  -0.000000   0.000000
    23  H    0.003056  -0.000943  -0.000097   0.000000  -0.000000   0.000000
    24  H    0.000314   0.000001  -0.000107   0.000022   0.000001  -0.000002
    25  H   -0.000209   0.000016   0.000027   0.000001  -0.000000   0.000000
    26  H    0.000615  -0.000001   0.000053   0.000000   0.000000  -0.000000
    27  H    0.037320  -0.000012   0.002084  -0.000004  -0.000000  -0.000000
    28  H    0.000807  -0.000000  -0.000007   0.000000   0.000000  -0.000000
    29  H    0.329673   0.001476  -0.000926  -0.000002   0.000000  -0.000000
              19         20         21         22         23         24
     1  N    0.000000  -0.000007   0.020617   0.010654   0.007396   0.000118
     2  S   -0.000000  -0.000183  -0.008357  -0.016882  -0.005631  -0.012314
     3  C    0.000017   0.017287  -0.082515   0.008684  -0.001068   0.007985
     4  C    0.000778  -0.001907   0.013283  -0.000070  -0.000009   0.000339
     5  C   -0.010418   0.014955  -0.002162  -0.000005  -0.000035  -0.000227
     6  C   -0.018379  -0.079514   0.014734   0.000003   0.000033  -0.000053
     7  C    0.390390  -0.013346  -0.000249   0.000000  -0.000000  -0.000013
     8  C    0.008517   0.459534  -0.052504  -0.000005   0.000326   0.000359
     9  C   -0.000553  -0.070864   0.445358  -0.000063   0.004755  -0.001079
    10  C   -0.000000   0.000031  -0.000970   0.351492   0.346846  -0.019815
    11  C    0.000000  -0.000007   0.000211  -0.015367  -0.018615   0.384870
    12  C   -0.000000  -0.000000   0.000002  -0.003698   0.008707  -0.027103
    13  N    0.000000   0.000002   0.000657   0.000158   0.003056   0.000314
    14  H    0.000000   0.000003  -0.000470  -0.000757  -0.000943   0.000001
    15  H   -0.000006   0.000029  -0.000285  -0.000059  -0.000097  -0.000107
    16  H    0.006222  -0.000265   0.000036  -0.000000   0.000000   0.000022
    17  H   -0.018674   0.001256   0.000002  -0.000000  -0.000000   0.000001
    18  H   -0.022269   0.004498   0.000001   0.000000   0.000000  -0.000002
    19  H    0.622537   0.000109   0.000009  -0.000000  -0.000000  -0.000001
    20  H    0.000109   0.675608  -0.011786  -0.000001  -0.000013  -0.000001
    21  H    0.000009  -0.011786   0.636839  -0.000109   0.002327   0.000106
    22  H   -0.000000  -0.000001  -0.000109   0.592759  -0.008533   0.006761
    23  H   -0.000000  -0.000013   0.002327  -0.008533   0.597017  -0.004332
    24  H   -0.000001  -0.000001   0.000106   0.006761  -0.004332   0.625609
    25  H    0.000000   0.000000  -0.000012  -0.006859  -0.007480  -0.020895
    26  H    0.000000   0.000000   0.000000   0.000199  -0.000335  -0.006699
    27  H    0.000000   0.000000  -0.000040  -0.001880   0.000003  -0.006535
    28  H   -0.000000   0.000000  -0.000000   0.006178  -0.000040   0.008250
    29  H   -0.000000  -0.000000  -0.000043   0.001929  -0.000030  -0.000056
              25         26         27         28         29
     1  N   -0.000240   0.000008   0.000408  -0.000004  -0.000536
     2  S    0.005453   0.000344   0.005575  -0.001757  -0.018093
     3  C   -0.001012  -0.000050  -0.005457   0.000212   0.012017
     4  C   -0.000001   0.000158   0.001473  -0.000035  -0.000350
     5  C    0.000014   0.000010   0.000531  -0.000000  -0.000055
     6  C   -0.000008   0.000001  -0.000006  -0.000000   0.000008
     7  C    0.000000  -0.000000   0.000000  -0.000000  -0.000000
     8  C   -0.000016   0.000000  -0.000013  -0.000000  -0.000008
     9  C    0.000057  -0.000013  -0.000159  -0.000004  -0.000338
    10  C   -0.008580   0.007510  -0.007433  -0.002617  -0.005083
    11  C    0.366386  -0.018963  -0.028438  -0.032521   0.000074
    12  C   -0.020951   0.378814   0.396836   0.392362   0.000988
    13  N   -0.000209   0.000615   0.037320   0.000807   0.329673
    14  H    0.000016  -0.000001  -0.000012  -0.000000   0.001476
    15  H    0.000027   0.000053   0.002084  -0.000007  -0.000926
    16  H    0.000001   0.000000  -0.000004   0.000000  -0.000002
    17  H   -0.000000   0.000000  -0.000000   0.000000   0.000000
    18  H    0.000000  -0.000000  -0.000000  -0.000000  -0.000000
    19  H    0.000000   0.000000   0.000000  -0.000000  -0.000000
    20  H    0.000000   0.000000   0.000000   0.000000  -0.000000
    21  H   -0.000012   0.000000  -0.000040  -0.000000  -0.000043
    22  H   -0.006859   0.000199  -0.001880   0.006178   0.001929
    23  H   -0.007480  -0.000335   0.000003  -0.000040  -0.000030
    24  H   -0.020895  -0.006699  -0.006535   0.008250  -0.000056
    25  H    0.652768  -0.005933   0.007162  -0.009460  -0.000004
    26  H   -0.005933   0.646390  -0.014459  -0.023071  -0.000022
    27  H    0.007162  -0.014459   0.572631  -0.020433  -0.001061
    28  H   -0.009460  -0.023071  -0.020433   0.653092  -0.000096
    29  H   -0.000004  -0.000022  -0.001061  -0.000096   0.556987
 Mulliken charges:
               1
     1  N   -0.427497
     2  S    0.421747
     3  C   -0.123635
     4  C    0.022482
     5  C   -0.014641
     6  C   -0.097810
     7  C    0.022709
     8  C   -0.018698
     9  C    0.016891
    10  C   -0.067427
    11  C   -0.094873
    12  C   -0.084828
    13  N   -0.420735
    14  H    0.118285
    15  H    0.040377
    16  H    0.004901
    17  H    0.065620
    18  H    0.049028
    19  H    0.041722
    20  H    0.004580
    21  H    0.025319
    22  H    0.075471
    23  H    0.076695
    24  H    0.064496
    25  H    0.049774
    26  H    0.035443
    27  H    0.061905
    28  H    0.029146
    29  H    0.123553
 Sum of Mulliken charges =  -0.00000
 Mulliken charges with hydrogens summed into heavy atoms:
               1
     1  N   -0.309212
     2  S    0.421747
     3  C   -0.123635
     4  C    0.062859
     5  C   -0.009739
     6  C   -0.097810
     7  C    0.179079
     8  C   -0.014118
     9  C    0.042211
    10  C    0.084739
    11  C    0.019397
    12  C    0.041666
    13  N   -0.297183
 Electronic spatial extent (au):  <R**2>=           3003.7135
 Charge=              0.0000 electrons
 Dipole moment (field-independent basis, Debye):
    X=             -1.8507    Y=              1.1322    Z=             -0.8808  Tot=              2.3416
 Quadrupole moment (field-independent basis, Debye-Ang):
   XX=            -76.7237   YY=            -89.0032   ZZ=            -86.6121
   XY=              1.3105   XZ=              0.9462   YZ=             -2.1658
 Traceless Quadrupole moment (field-independent basis, Debye-Ang):
   XX=              7.3893   YY=             -4.8902   ZZ=             -2.4991
   XY=              1.3105   XZ=              0.9462   YZ=             -2.1658
 Octapole moment (field-independent basis, Debye-Ang**2):
  XXX=            -10.6581  YYY=             -2.4136  ZZZ=             -5.9824  XYY=             -5.9337
  XXY=              5.0859  XXZ=              4.2291  XZZ=              1.8428  YZZ=             -2.8190
  YYZ=             12.0078  XYZ=            -18.1698
 Hexadecapole moment (field-independent basis, Debye-Ang**3):
 XXXX=          -2532.6669 YYYY=           -837.8073 ZZZZ=           -512.9263 XXXY=             -9.5077
 XXXZ=             39.0708 YYYX=             -9.3166 YYYZ=            -32.9317 ZZZX=              7.9205
 ZZZY=              2.7365 XXYY=           -613.9385 XXZZ=           -509.9128 YYZZ=           -217.2289
 XXYZ=            -15.4471 YYXZ=             20.5429 ZZXY=             -9.6346
 N-N= 9.438177889254D+02 E-N=-3.989079985224D+03  KE= 8.912273354186D+02
   1 Symmetry operations used in ECPInt.
 ECPInt:  NShTT=    8256 NPrTT=   29630 LenC2=    7916 LenP2D=   21152.
 LDataN:  DoStor=T MaxTD1= 5 Len=  102
 Calling FoFJK, ICntrl=      2127 FMM=F ISym2X=0 I1Cent= 0 IOpClX= 0 NMat=1 NMatS=1 NMatT=0.
 ***** Axes restored to original set *****
 -------------------------------------------------------------------
 Center     Atomic                   Forces (Hartrees/Bohr)
 Number     Number              X              Y              Z
 -------------------------------------------------------------------
      1        7          -0.006612385    0.010710348    0.015074879
      2       16          -0.007445441   -0.005232446    0.006409639
      3        6          -0.009444133   -0.001067739   -0.003185131
      4        6           0.000836662    0.000245217   -0.002673704
      5        6          -0.001439988   -0.000606887    0.002074941
      6        6           0.009172618    0.002649848   -0.000196847
      7        6          -0.008498650   -0.002281164    0.000121618
      8        6          -0.002173389    0.000316065   -0.001853108
      9        6          -0.002240482   -0.000931539    0.002447741
     10        6           0.013260451    0.001158041   -0.008486600
     11        6          -0.008140156   -0.006988279   -0.008885233
     12        6           0.006958316    0.003565153    0.007874294
     13        7           0.015857673    0.005455690   -0.009013862
     14        1           0.006078821   -0.007872917   -0.008388003
     15        1          -0.005430474   -0.000411791   -0.008554195
     16        1           0.003714397    0.002267786   -0.008039107
     17        1           0.005877003   -0.005931955   -0.000059811
     18        1           0.003481757    0.004462547    0.005845155
     19        1           0.003118080    0.004171629   -0.006199292
     20        1           0.004624626   -0.000145790    0.007857629
     21        1          -0.003678573   -0.003244216    0.008839183
     22        1          -0.007883691   -0.005432071   -0.000042723
     23        1           0.001789808   -0.001131428    0.008590388
     24        1           0.006238899    0.002685701    0.001401822
     25        1           0.000261648    0.003337455    0.005016759
     26        1           0.001326210    0.007451963   -0.004895705
     27        1           0.000115593   -0.005320791   -0.005829004
     28        1          -0.009263699    0.000422663   -0.000169427
     29        1          -0.010461503   -0.002301094    0.004917706
 -------------------------------------------------------------------
 Cartesian Forces:  Max     0.015857673 RMS     0.005976777

 GradGradGradGradGradGradGradGradGradGradGradGradGradGradGradGradGradGrad
 Berny optimization.
 FormGI is forming the generalized inverse of G from B-inverse, IUseBI=4.
 Internal  Forces:  Max     0.014152897 RMS     0.004441249
 Search for a local minimum.
 Step number   1 out of a maximum of  158
 All quantities printed in internal units (Hartrees-Bohrs-Radians)
 Mixed Optimization -- RFO/linear search
 Second derivative matrix not updated -- first step.
 ITU=  0
     Eigenvalues ---    0.00230   0.00300   0.00444   0.00556   0.00792
     Eigenvalues ---    0.01510   0.01660   0.02218   0.02254   0.02264
     Eigenvalues ---    0.02294   0.02319   0.02320   0.02330   0.03396
     Eigenvalues ---    0.03415   0.03634   0.03751   0.04775   0.04974
     Eigenvalues ---    0.05683   0.05735   0.06622   0.07239   0.07428
     Eigenvalues ---    0.08235   0.08279   0.08413   0.09218   0.12112
     Eigenvalues ---    0.12153   0.15836   0.15999   0.16000   0.16000
     Eigenvalues ---    0.16000   0.16000   0.16000   0.16000   0.16000
     Eigenvalues ---    0.16000   0.16000   0.16000   0.16000   0.19310
     Eigenvalues ---    0.21929   0.21997   0.22000   0.22908   0.22979
     Eigenvalues ---    0.23997   0.24994   0.24996   0.25705   0.29955
     Eigenvalues ---    0.30768   0.32585   0.34347   0.34478   0.34780
     Eigenvalues ---    0.35035   0.35051   0.35057   0.35121   0.35162
     Eigenvalues ---    0.35182   0.35257   0.35933   0.35939   0.36021
     Eigenvalues ---    0.36276   0.43515   0.43540   0.46367   0.46409
     Eigenvalues ---    0.47412   0.48038   0.48537   0.48781   0.64489
     Eigenvalues ---    0.64873
 RFO step:  Lambda=-1.12849110D-02 EMin= 2.30000000D-03
 Linear search not attempted -- first point.
 Iteration  1 RMS(Cart)=  0.08804189 RMS(Int)=  0.00243687
 Iteration  2 RMS(Cart)=  0.00402734 RMS(Int)=  0.00028865
 Iteration  3 RMS(Cart)=  0.00001142 RMS(Int)=  0.00028857
 Iteration  4 RMS(Cart)=  0.00000000 RMS(Int)=  0.00028857
 Variable       Old X    -DE/DX   Delta X   Delta X   Delta X     New X
                                 (Linear)    (Quad)   (Total)
    R1        2.90981   0.00305   0.00000   0.00463   0.00463   2.91443
    R2        1.90419   0.01052   0.00000   0.02215   0.02215   1.92634
    R3        3.41148  -0.00192   0.00000  -0.00716  -0.00716   3.40432
    R4        3.48545  -0.00427   0.00000  -0.01778  -0.01778   3.46767
    R5        2.91255   0.00218   0.00000   0.00333   0.00333   2.91588
    R6        2.60914   0.01107   0.00000   0.02231   0.02230   2.63145
    R7        2.61315   0.00934   0.00000   0.01890   0.01890   2.63205
    R8        2.61507   0.00955   0.00000   0.01937   0.01937   2.63444
    R9        2.03652   0.01013   0.00000   0.02708   0.02708   2.06360
   R10        2.62770   0.01007   0.00000   0.02071   0.02071   2.64841
   R11        2.04177   0.00914   0.00000   0.02466   0.02466   2.06643
   R12        2.83086   0.00398   0.00000   0.01180   0.01180   2.84266
   R13        2.63072   0.01007   0.00000   0.02073   0.02073   2.65145
   R14        2.06034   0.00818   0.00000   0.02278   0.02278   2.08311
   R15        2.05582   0.00800   0.00000   0.02212   0.02212   2.07795
   R16        2.05412   0.00797   0.00000   0.02196   0.02196   2.07608
   R17        2.61220   0.00900   0.00000   0.01797   0.01797   2.63016
   R18        2.04186   0.00911   0.00000   0.02457   0.02457   2.06643
   R19        2.04049   0.01006   0.00000   0.02708   0.02708   2.06758
   R20        2.86458   0.00634   0.00000   0.01988   0.01988   2.88446
   R21        2.05592   0.00855   0.00000   0.02363   0.02363   2.07955
   R22        2.05260   0.00869   0.00000   0.02389   0.02389   2.07649
   R23        2.88053   0.00348   0.00000   0.01119   0.01119   2.89172
   R24        2.06530   0.00610   0.00000   0.01712   0.01712   2.08243
   R25        2.06749   0.00538   0.00000   0.01517   0.01517   2.08265
   R26        2.05479   0.00889   0.00000   0.02451   0.02451   2.07931
   R27        2.05380   0.00752   0.00000   0.02070   0.02070   2.07451
   R28        2.05618   0.00920   0.00000   0.02544   0.02544   2.08162
   R29        1.90373   0.00954   0.00000   0.02008   0.02008   1.92381
    A1        1.98796  -0.01306   0.00000  -0.07625  -0.07625   1.91171
    A2        1.97517  -0.00061   0.00000  -0.00689  -0.00686   1.96831
    A3        1.73635  -0.00204   0.00000  -0.00847  -0.00856   1.72780
    A4        2.15606   0.00307   0.00000   0.02362   0.02360   2.17966
    A5        1.75444   0.00149   0.00000   0.00058   0.00056   1.75499
    A6        1.78290  -0.00226   0.00000  -0.01545  -0.01540   1.76750
    A7        2.02628   0.00024   0.00000   0.00295   0.00287   2.02916
    A8        2.10924   0.00384   0.00000   0.01435   0.01434   2.12358
    A9        2.06296  -0.00492   0.00000  -0.01915  -0.01915   2.04380
   A10        2.11084   0.00108   0.00000   0.00464   0.00463   2.11547
   A11        2.08187  -0.00156   0.00000  -0.00614  -0.00614   2.07573
   A12        2.07029   0.00114   0.00000   0.00517   0.00517   2.07546
   A13        2.13100   0.00042   0.00000   0.00095   0.00095   2.13195
   A14        2.10813   0.00163   0.00000   0.00695   0.00695   2.11508
   A15        2.08851  -0.00094   0.00000  -0.00420  -0.00420   2.08431
   A16        2.08654  -0.00069   0.00000  -0.00275  -0.00276   2.08379
   A17        2.10908   0.00071   0.00000   0.00302   0.00301   2.11209
   A18        2.07571  -0.00182   0.00000  -0.00769  -0.00769   2.06802
   A19        2.09819   0.00111   0.00000   0.00457   0.00457   2.10276
   A20        1.91763   0.00183   0.00000   0.01097   0.01092   1.92855
   A21        1.93416   0.00138   0.00000   0.00799   0.00796   1.94212
   A22        1.93789   0.00131   0.00000   0.00746   0.00742   1.94531
   A23        1.88181  -0.00156   0.00000  -0.00869  -0.00874   1.87307
   A24        1.88794  -0.00159   0.00000  -0.00914  -0.00918   1.87876
   A25        1.90294  -0.00155   0.00000  -0.00959  -0.00962   1.89332
   A26        2.10498   0.00179   0.00000   0.00699   0.00698   2.11197
   A27        2.08580  -0.00043   0.00000  -0.00078  -0.00079   2.08501
   A28        2.09240  -0.00136   0.00000  -0.00622  -0.00623   2.08617
   A29        2.08472  -0.00111   0.00000  -0.00484  -0.00485   2.07987
   A30        2.07712   0.00123   0.00000   0.00632   0.00632   2.08344
   A31        2.12127  -0.00012   0.00000  -0.00155  -0.00155   2.11972
   A32        1.97457   0.01415   0.00000   0.06565   0.06548   2.04005
   A33        1.84355  -0.00717   0.00000  -0.03798  -0.03871   1.80484
   A34        1.80950  -0.00514   0.00000  -0.02234  -0.02285   1.78666
   A35        1.95540  -0.00109   0.00000   0.00804   0.00853   1.96393
   A36        1.96777  -0.00279   0.00000  -0.00535  -0.00516   1.96261
   A37        1.90334   0.00140   0.00000  -0.01340  -0.01414   1.88921
   A38        1.95174   0.01229   0.00000   0.06183   0.06112   2.01286
   A39        1.90398  -0.00275   0.00000   0.00532   0.00342   1.90740
   A40        1.90123  -0.00561   0.00000  -0.04160  -0.04125   1.85998
   A41        1.91278  -0.00198   0.00000   0.01501   0.01362   1.92640
   A42        1.91512  -0.00300   0.00000  -0.01784  -0.01688   1.89824
   A43        1.87744   0.00061   0.00000  -0.02630  -0.02647   1.85096
   A44        1.92824   0.00099   0.00000   0.00572   0.00566   1.93390
   A45        1.91795   0.00311   0.00000   0.02015   0.02006   1.93801
   A46        1.92739   0.00069   0.00000   0.00205   0.00204   1.92943
   A47        1.90268  -0.00157   0.00000  -0.00533  -0.00546   1.89721
   A48        1.89239  -0.00142   0.00000  -0.01219  -0.01218   1.88021
   A49        1.89455  -0.00194   0.00000  -0.01124  -0.01128   1.88327
   A50        1.98133  -0.01180   0.00000  -0.06891  -0.06891   1.91242
    D1       -1.52673   0.00254   0.00000   0.04455   0.04459  -1.48214
    D2        2.90926   0.00204   0.00000   0.05010   0.05010   2.95936
    D3        0.63642   0.00136   0.00000   0.03602   0.03597   0.67239
    D4        2.58366   0.00107   0.00000   0.00524   0.00529   2.58895
    D5       -0.53977   0.00131   0.00000   0.01460   0.01462  -0.52514
    D6       -1.86384  -0.00069   0.00000  -0.00618  -0.00618  -1.87002
    D7        1.29593  -0.00045   0.00000   0.00318   0.00315   1.29908
    D8        0.22788  -0.00066   0.00000  -0.00801  -0.00803   0.21985
    D9       -2.89555  -0.00042   0.00000   0.00134   0.00130  -2.89424
   D10        2.93839  -0.00140   0.00000  -0.00650  -0.00629   2.93210
   D11       -1.19978   0.00092   0.00000   0.01734   0.01682  -1.18296
   D12        0.80110  -0.00251   0.00000  -0.02197  -0.02157   0.77953
   D13        0.91561  -0.00058   0.00000   0.00303   0.00320   0.91881
   D14        3.06062   0.00174   0.00000   0.02687   0.02632   3.08694
   D15       -1.22169  -0.00170   0.00000  -0.01243  -0.01207  -1.23376
   D16       -0.99086   0.00111   0.00000   0.01973   0.01989  -0.97097
   D17        1.15415   0.00343   0.00000   0.04357   0.04300   1.19715
   D18       -3.12815  -0.00000   0.00000   0.00427   0.00461  -3.12354
   D19        0.63046   0.00208   0.00000   0.04628   0.04641   0.67686
   D20        2.87706   0.00137   0.00000   0.03960   0.03954   2.91661
   D21       -1.51646   0.00190   0.00000   0.03235   0.03228  -1.48418
   D22       -3.13741   0.00011   0.00000   0.00314   0.00323  -3.13419
   D23       -0.00341   0.00002   0.00000   0.00090   0.00097  -0.00244
   D24       -0.01449  -0.00020   0.00000  -0.00672  -0.00673  -0.02122
   D25        3.11951  -0.00029   0.00000  -0.00896  -0.00899   3.11052
   D26        3.13797   0.00004   0.00000  -0.00082  -0.00075   3.13723
   D27        0.00941   0.00024   0.00000   0.00492   0.00499   0.01440
   D28        0.01457   0.00025   0.00000   0.00844   0.00843   0.02300
   D29       -3.11399   0.00045   0.00000   0.01417   0.01417  -3.09983
   D30        0.00332   0.00010   0.00000   0.00300   0.00302   0.00633
   D31       -3.13833   0.00001   0.00000   0.00042   0.00042  -3.13791
   D32       -3.13041   0.00019   0.00000   0.00531   0.00533  -3.12507
   D33        0.01113   0.00010   0.00000   0.00272   0.00274   0.01387
   D34        3.12735  -0.00019   0.00000  -0.00623  -0.00622   3.12112
   D35        0.00748  -0.00007   0.00000  -0.00119  -0.00121   0.00627
   D36       -0.01419  -0.00010   0.00000  -0.00364  -0.00363  -0.01782
   D37       -3.13406   0.00002   0.00000   0.00139   0.00139  -3.13268
   D38       -1.73192   0.00010   0.00000   0.00306   0.00307  -1.72884
   D39        2.47346   0.00000   0.00000   0.00186   0.00186   2.47532
   D40        0.35586   0.00014   0.00000   0.00352   0.00354   0.35939
   D41        1.38767  -0.00005   0.00000  -0.00219  -0.00219   1.38548
   D42       -0.69014  -0.00015   0.00000  -0.00339  -0.00341  -0.69354
   D43       -2.80773  -0.00001   0.00000  -0.00173  -0.00173  -2.80947
   D44       -0.00741   0.00012   0.00000   0.00292   0.00293  -0.00448
   D45        3.13200  -0.00010   0.00000  -0.00400  -0.00399   3.12801
   D46       -3.12741   0.00024   0.00000   0.00794   0.00793  -3.11948
   D47        0.01199   0.00002   0.00000   0.00102   0.00102   0.01301
   D48       -0.00344  -0.00020   0.00000  -0.00645  -0.00643  -0.00987
   D49        3.12478  -0.00040   0.00000  -0.01227  -0.01223   3.11255
   D50        3.14034   0.00002   0.00000   0.00049   0.00048   3.14083
   D51       -0.01462  -0.00017   0.00000  -0.00533  -0.00532  -0.01993
   D52        1.20156   0.00140   0.00000   0.06596   0.06651   1.26807
   D53       -0.91712  -0.00223   0.00000   0.00327   0.00338  -0.91375
   D54       -2.96187   0.00176   0.00000   0.05530   0.05513  -2.90673
   D55       -0.88014   0.00151   0.00000   0.06321   0.06328  -0.81685
   D56       -2.99882  -0.00212   0.00000   0.00052   0.00015  -2.99867
   D57        1.23962   0.00188   0.00000   0.05254   0.05191   1.29153
   D58       -3.03517   0.00262   0.00000   0.07886   0.07939  -2.95578
   D59        1.12933  -0.00101   0.00000   0.01617   0.01626   1.14559
   D60       -0.91541   0.00299   0.00000   0.06819   0.06802  -0.84740
   D61       -3.08215  -0.00204   0.00000  -0.04359  -0.04397  -3.12612
   D62       -0.98197  -0.00136   0.00000  -0.03358  -0.03390  -1.01587
   D63        1.10758  -0.00135   0.00000  -0.03341  -0.03374   1.07384
   D64       -0.96855   0.00121   0.00000   0.01402   0.01437  -0.95419
   D65        1.13162   0.00190   0.00000   0.02403   0.02444   1.15607
   D66       -3.06201   0.00191   0.00000   0.02421   0.02460  -3.03741
   D67        1.08932  -0.00100   0.00000  -0.01962  -0.01970   1.06962
   D68       -3.09368  -0.00032   0.00000  -0.00961  -0.00963  -3.10331
   D69       -1.00414  -0.00031   0.00000  -0.00944  -0.00947  -1.01360
         Item               Value     Threshold  Converged?
 Maximum Force            0.014153     0.000450     NO 
 RMS     Force            0.004441     0.000300     NO 
 Maximum Displacement     0.382538     0.001800     NO 
 RMS     Displacement     0.088074     0.001200     NO 
 Predicted change in Energy=-6.139254D-03
 GradGradGradGradGradGradGradGradGradGradGradGradGradGradGradGradGradGrad

                          Input orientation:                          
 ---------------------------------------------------------------------
 Center     Atomic      Atomic             Coordinates (Angstroms)
 Number     Number       Type             X           Y           Z
 ---------------------------------------------------------------------
      1          7           0       -1.708298   -1.858874    1.307312
      2         16           0       -1.428711   -0.881745    0.147316
      3          6           0        0.309413   -0.424427    0.024237
      4          6           0        0.904161   -0.134491   -1.201027
      5          6           0        2.256090    0.204421   -1.231038
      6          6           0        3.019217    0.249393   -0.056405
      7          6           0        4.483858    0.590080   -0.096234
      8          6           0        2.394040   -0.063058    1.160220
      9          6           0        1.045741   -0.405306    1.206356
     10          6           0       -2.126938    0.646544    0.884930
     11          6           0       -1.812400    1.961211    0.175999
     12          6           0       -2.543564    2.181097   -1.150145
     13          7           0       -1.776486   -1.146160   -1.332563
     14          1           0       -1.534309   -2.814336    0.997555
     15          1           0        0.298475   -0.189136   -2.108026
     16          1           0        2.730459    0.437006   -2.188451
     17          1           0        5.094676   -0.326601   -0.054493
     18          1           0        4.771708    1.214598    0.761813
     19          1           0        4.747314    1.124047   -1.019502
     20          1           0        2.977555   -0.045460    2.084862
     21          1           0        0.557421   -0.676293    2.147204
     22          1           0       -3.206726    0.438766    0.928207
     23          1           0       -1.729532    0.616473    1.908938
     24          1           0       -0.723123    2.045594    0.032125
     25          1           0       -2.091226    2.768450    0.872581
     26          1           0       -2.251275    3.140264   -1.603215
     27          1           0       -2.322193    1.374164   -1.860763
     28          1           0       -3.633430    2.203269   -0.991714
     29          1           0       -2.675562   -1.619973   -1.392235
 ---------------------------------------------------------------------
                    Distance matrix (angstroms):
                    1          2          3          4          5
     1  N    0.000000
     2  S    1.542252   0.000000
     3  C    2.788383   1.801490   0.000000
     4  C    4.011259   2.796196   1.392501   0.000000
     5  C    5.139725   4.081345   2.400149   1.394085   0.000000
     6  C    5.352935   4.594022   2.793487   2.435362   1.401481
     7  C    6.805154   6.097874   4.297643   3.815731   2.529717
     8  C    4.480599   4.038521   2.401398   2.792907   2.410123
     9  C    3.115732   2.733400   1.392820   2.426701   2.788835
    10  C    2.575031   1.835010   2.797066   3.761487   4.887098
    11  C    3.985444   2.868875   3.196309   3.697008   4.649589
    12  C    4.801888   3.508177   4.038243   4.153473   5.191384
    13  N    2.735242   1.543018   2.590904   2.868213   4.253944
    14  H    1.019376   2.113992   3.171486   4.238096   5.333539
    15  H    4.298802   2.923944   2.145234   1.092012   2.180883
    16  H    6.098687   4.949102   3.391094   2.153365   1.093509
    17  H    7.105127   6.550076   4.786910   4.348777   3.118303
    18  H    7.192654   6.573998   4.810664   4.542103   3.364557
    19  H    7.482434   6.597572   4.814782   4.048048   2.663956
    20  H    5.084317   4.885555   3.392458   3.886381   3.402668
    21  H    2.690242   2.826036   2.152193   3.409461   3.882480
    22  H    2.769144   2.348378   3.731688   4.664938   5.878742
    23  H    2.547499   2.332051   2.965277   4.143931   5.090621
    24  H    4.223925   3.013377   2.677162   2.986886   3.723065
    25  H    4.663449   3.780061   4.083776   4.658247   5.467963
    26  H    5.810110   4.462906   4.681105   4.565364   5.392034
    27  H    4.567943   3.149575   3.703176   3.622244   4.767130
    28  H    5.049026   3.959228   4.845922   5.108685   6.224076
    29  H    2.877538   2.114198   3.513659   3.880416   5.260759
                    6          7          8          9         10
     6  C    0.000000
     7  C    1.504270   0.000000
     8  C    1.403086   2.524403   0.000000
     9  C    2.432654   3.808962   1.391823   0.000000
    10  C    5.246594   6.683450   4.584600   3.357915   0.000000
    11  C    5.131165   6.449572   4.770796   3.851105   1.526391
    12  C    5.989347   7.281945   5.895248   5.012553   2.582626
    13  N    5.155086   6.613241   4.977988   3.867808   2.872956
    14  H    5.588547   7.000340   4.798740   3.536054   3.513059
    15  H    3.435679   4.708707   3.884421   3.404448   3.941926
    16  H    2.159675   2.734083   3.402476   3.882329   5.751859
    17  H    2.153904   1.102336   2.972948   4.241439   7.347192
    18  H    2.161556   1.099602   2.728450   4.087118   6.923088
    19  H    2.163075   1.098614   3.420279   4.582031   7.149141
    20  H    2.161874   2.725810   1.093509   2.152480   5.289098
    21  H    3.431214   4.696130   2.173330   1.094114   3.247925
    22  H    6.306162   7.759991   5.627987   4.344341   1.100448
    23  H    5.152469   6.528984   4.245725   3.039703   1.098831
    24  H    4.152022   5.408110   3.928832   3.242624   2.157618
    25  H    5.772807   6.993972   5.312042   4.474896   2.122243
    26  H    6.207079   7.357747   6.283056   5.597773   3.524906
    27  H    5.749042   7.074651   5.782284   4.890472   2.847172
    28  H    6.996438   8.324340   6.789511   5.790580   2.866131
    29  H    6.140804   7.604029   5.885565   4.698530   3.259381
                   11         12         13         14         15
    11  C    0.000000
    12  C    1.530231   0.000000
    13  N    3.454389   3.419404   0.000000
    14  H    4.853673   5.530421   2.875919   0.000000
    15  H    3.781079   3.822660   2.413028   4.460426   0.000000
    16  H    5.343350   5.651129   4.852990   6.237796   2.512582
    17  H    7.279760   8.113674   7.036903   7.158146   5.219141
    18  H    6.652149   7.622526   7.269005   7.486903   5.496931
    19  H    6.720113   7.368265   6.914609   7.683629   4.764609
    20  H    5.533007   6.775366   5.957453   5.404242   4.977793
    21  H    4.056863   5.352877   4.216239   3.204411   4.290846
    22  H    2.197226   2.791961   3.109447   3.658478   4.679681
    23  H    2.195056   3.531103   3.690042   3.555162   4.571414
    24  H    1.101973   2.174886   3.627567   5.020856   3.258517
    25  H    1.102092   2.154301   4.503987   5.611887   4.831357
    26  H    2.179077   1.100321   4.321123   6.537224   4.223857
    27  H    2.180118   1.097781   2.632267   5.131694   3.061528
    28  H    2.176763   1.101545   3.844879   5.791361   4.735994
    29  H    4.003659   3.811058   1.018036   2.905177   3.377062
                   16         17         18         19         20
    16  H    0.000000
    17  H    3.275117   0.000000
    18  H    3.670886   1.773685   0.000000
    19  H    2.430262   1.776593   1.783782   0.000000
    20  H    4.307555   3.022925   2.560700   3.759902   0.000000
    21  H    4.975885   5.055337   4.822343   5.551978   2.501777
    22  H    6.705500   8.394329   8.017793   8.217660   6.310124
    23  H    6.059070   7.163397   6.628708   7.126214   4.756656
    24  H    4.409733   6.283438   5.605012   5.646313   4.720303
    25  H    6.168809   7.878832   7.037513   7.283521   5.922860
    26  H    5.698050   8.269261   7.656620   7.306579   7.147826
    27  H    5.149266   7.820816   7.564839   7.123778   6.758005
    28  H    6.712001   9.135560   8.642839   8.449992   7.630677
    29  H    5.838680   7.989928   8.254486   7.922605   6.821072
                   21         22         23         24         25
    21  H    0.000000
    22  H    4.110731   0.000000
    23  H    2.637834   1.781997   0.000000
    24  H    3.677230   3.090816   2.564698   0.000000
    25  H    4.528383   2.583575   2.415754   1.760850   0.000000
    26  H    6.043221   3.823490   4.356255   2.491563   2.508670
    27  H    5.344189   3.071762   3.890501   2.567269   3.077101
    28  H    5.975611   2.642280   3.815303   3.089174   2.484637
    29  H    4.885728   3.147220   4.098098   4.390581   4.972836
                   26         27         28         29
    26  H    0.000000
    27  H    1.786188   0.000000
    28  H    1.778271   1.778202   0.000000
    29  H    4.783763   3.051106   3.961705   0.000000
 Stoichiometry    C10H16N2S
 Framework group  C1[X(C10H16N2S)]
 Deg. of freedom    81
 Full point group                 C1      NOp   1
 Largest Abelian subgroup         C1      NOp   1
 Largest concise Abelian subgroup C1      NOp   1
                         Standard orientation:                         
 ---------------------------------------------------------------------
 Center     Atomic      Atomic             Coordinates (Angstroms)
 Number     Number       Type             X           Y           Z
 ---------------------------------------------------------------------
      1          7           0        1.719583   -2.287930   -0.280684
      2         16           0        1.445112   -0.877550    0.279702
      3          6           0       -0.294439   -0.417871    0.190138
      4          6           0       -0.879413    0.418374    1.137534
      5          6           0       -2.232967    0.729944    1.017995
      6          6           0       -3.007276    0.211527   -0.028827
      7          6           0       -4.473455    0.529237   -0.139328
      8          6           0       -2.391662   -0.640414   -0.958271
      9          6           0       -1.041869   -0.962576   -0.851301
     10          6           0        2.127450    0.118139   -1.102426
     11          6           0        1.811841    1.611540   -1.098841
     12          6           0        2.554051    2.434968   -0.043997
     13          7           0        1.808231   -0.407733    1.703894
     14          1           0        1.554097   -2.982070    0.447266
     15          1           0       -0.264977    0.801151    1.955116
     16          1           0       -2.699734    1.388682    1.755528
     17          1           0       -5.079250   -0.297898    0.265647
     18          1           0       -4.772958    0.671536   -1.187743
     19          1           0       -4.731407    1.437206    0.422816
     20          1           0       -2.983877   -1.064157   -1.774044
     21          1           0       -0.560773   -1.647244   -1.556184
     22          1           0        3.207986   -0.084499   -1.053797
     23          1           0        1.720685   -0.394583   -1.985086
     24          1           0        0.723478    1.753297   -1.000270
     25          1           0        2.079415    1.991714   -2.098080
     26          1           0        2.260384    3.494044   -0.097161
     27          1           0        2.344058    2.061768    0.966819
     28          1           0        3.642242    2.380095   -0.205951
[...]
    20  H   -0.000013  -0.000308   0.011562  -0.001848   0.012613  -0.058942
    21  H    0.023274  -0.000643  -0.063884   0.006746  -0.002751   0.011490
    22  H    0.008993  -0.017252   0.008996  -0.001417   0.000024   0.000003
    23  H    0.004379  -0.016355   0.009680   0.000912  -0.000172   0.000095
    24  H    0.000127  -0.007083   0.005308  -0.004464   0.001889  -0.000158
    25  H   -0.000253   0.004163  -0.001068   0.000846   0.000028  -0.000024
    26  H    0.000015   0.000251   0.000292  -0.000080  -0.000035   0.000003
    27  H    0.000790   0.005682  -0.004750   0.002307   0.000187   0.000001
    28  H   -0.000007  -0.001371  -0.000033   0.000005   0.000009   0.000000
    29  H   -0.001351  -0.019149   0.019152  -0.003477  -0.000022  -0.000008
               7          8          9         10         11         12
     1  N    0.000006  -0.002283   0.004602  -0.093803   0.007036  -0.000697
     2  S    0.000048   0.005655  -0.046519   0.271432  -0.021084   0.010034
     3  C   -0.002548   0.067631   0.335197  -0.089806   0.022356  -0.001878
     4  C    0.012604  -0.080274  -0.066124   0.023463  -0.019028   0.001412
     5  C   -0.079257   0.012334  -0.094633   0.002530  -0.000789  -0.000118
     6  C    0.332622   0.442738   0.041660  -0.001609   0.000617  -0.000002
     7  C    4.987725  -0.072345   0.016673  -0.000016   0.000002   0.000000
     8  C   -0.072345   5.094510   0.362617   0.004346  -0.001289   0.000042
     9  C    0.016673   0.362617   5.197578  -0.021127   0.012680  -0.000630
    10  C   -0.000016   0.004346  -0.021127   5.296652   0.221412  -0.034132
    11  C    0.000002  -0.001289   0.012680   0.221412   4.986843   0.321577
    12  C    0.000000   0.000042  -0.000630  -0.034132   0.321577   4.978833
    13  N   -0.000002  -0.001659   0.020931  -0.063666  -0.000351  -0.013988
    14  H   -0.000000   0.000344  -0.006352   0.015272  -0.001108   0.000014
    15  H   -0.000283  -0.002957   0.012166   0.001313   0.000259  -0.000807
    16  H   -0.005938   0.012913  -0.002558   0.000027  -0.000055   0.000015
    17  H    0.392858  -0.005150  -0.000388   0.000000   0.000000   0.000000
    18  H    0.419415  -0.002586   0.002318   0.000000  -0.000000  -0.000000
    19  H    0.412743   0.001973  -0.000708  -0.000000  -0.000001  -0.000000
    20  H   -0.009442   0.427468  -0.048854   0.000110  -0.000029   0.000000
    21  H   -0.000269  -0.057576   0.436310  -0.006430   0.001707   0.000002
    22  H   -0.000000   0.000017   0.000661   0.371234  -0.022878  -0.004690
    23  H    0.000004  -0.000015  -0.005585   0.373995  -0.032413   0.009069
    24  H   -0.000016  -0.000359   0.002885  -0.031151   0.403032  -0.030954
    25  H   -0.000000   0.000034  -0.000630  -0.026918   0.395797  -0.032227
    26  H    0.000000  -0.000003   0.000019   0.008421  -0.036356   0.400264
    27  H    0.000000   0.000018  -0.000467   0.002417  -0.044990   0.413842
    28  H    0.000000  -0.000002   0.000011   0.000216  -0.042880   0.398321
    29  H    0.000000   0.000067  -0.000891  -0.010049  -0.000331   0.002662
              13         14         15         16         17         18
     1  N   -0.078276   0.315364   0.000534   0.000009  -0.000000   0.000000
     2  S    0.483484  -0.027054  -0.006166  -0.000229  -0.000004   0.000000
     3  C   -0.119589  -0.001314  -0.040982   0.010920   0.000015  -0.000104
     4  C    0.012673   0.002434   0.432347  -0.056394   0.000075  -0.000209
     5  C   -0.000696   0.000169  -0.064810   0.439079  -0.002321   0.005474
     6  C    0.000650  -0.000164   0.010273  -0.064827  -0.025739  -0.053175
     7  C   -0.000002  -0.000000  -0.000283  -0.005938   0.392858   0.419415
     8  C   -0.001659   0.000344  -0.002957   0.012913  -0.005150  -0.002586
     9  C    0.020931  -0.006352   0.012166  -0.002558  -0.000388   0.002318
    10  C   -0.063666   0.015272   0.001313   0.000027   0.000000   0.000000
    11  C   -0.000351  -0.001108   0.000259  -0.000055   0.000000  -0.000000
    12  C   -0.013988   0.000014  -0.000807   0.000015   0.000000  -0.000000
    13  N    6.983187  -0.002876   0.018584  -0.000125  -0.000000   0.000000
    14  H   -0.002876   0.496073   0.000001   0.000001   0.000000  -0.000000
    15  H    0.018584   0.000001   0.487623  -0.007347   0.000001   0.000012
    16  H   -0.000125   0.000001  -0.007347   0.555125   0.000533   0.000046
    17  H   -0.000000   0.000000   0.000001   0.000533   0.548169  -0.022381
    18  H    0.000000  -0.000000   0.000012   0.000046  -0.022381   0.535965
    19  H    0.000000  -0.000000  -0.000009   0.001298  -0.028234  -0.021274
    20  H   -0.000001   0.000019   0.000064  -0.000238   0.000232   0.003092
    21  H    0.002134  -0.003140  -0.000224   0.000075   0.000012  -0.000020
    22  H   -0.000552  -0.000930  -0.000070  -0.000001  -0.000000   0.000000
    23  H    0.004409  -0.000860  -0.000159   0.000004   0.000000  -0.000000
    24  H   -0.000489  -0.000003  -0.000658   0.000004   0.000001  -0.000001
    25  H   -0.000370   0.000033   0.000057   0.000000  -0.000000   0.000000
    26  H    0.000974  -0.000003  -0.000006  -0.000000   0.000000  -0.000000
    27  H    0.012505   0.000022   0.000690  -0.000007  -0.000000  -0.000000
    28  H    0.000601   0.000002   0.000023  -0.000000  -0.000000   0.000000
    29  H    0.310470  -0.000246  -0.001274  -0.000003   0.000000  -0.000000
              19         20         21         22         23         24
     1  N    0.000000  -0.000013   0.023274   0.008993   0.004379   0.000127
     2  S    0.000000  -0.000308  -0.000643  -0.017252  -0.016355  -0.007083
     3  C    0.000153   0.011562  -0.063884   0.008996   0.009680   0.005308
     4  C    0.000921  -0.001848   0.006746  -0.001417   0.000912  -0.004464
     5  C   -0.001907   0.012613  -0.002751   0.000024  -0.000172   0.001889
     6  C   -0.043878  -0.058942   0.011490   0.000003   0.000095  -0.000158
     7  C    0.412743  -0.009442  -0.000269  -0.000000   0.000004  -0.000016
     8  C    0.001973   0.427468  -0.057576   0.000017  -0.000015  -0.000359
     9  C   -0.000708  -0.048854   0.436310   0.000661  -0.005585   0.002885
    10  C   -0.000000   0.000110  -0.006430   0.371234   0.373995  -0.031151
    11  C   -0.000001  -0.000029   0.001707  -0.022878  -0.032413   0.403032
    12  C   -0.000000   0.000000   0.000002  -0.004690   0.009069  -0.030954
    13  N    0.000000  -0.000001   0.002134  -0.000552   0.004409  -0.000489
    14  H   -0.000000   0.000019  -0.003140  -0.000930  -0.000860  -0.000003
    15  H   -0.000009   0.000064  -0.000224  -0.000070  -0.000159  -0.000658
    16  H    0.001298  -0.000238   0.000075  -0.000001   0.000004   0.000004
    17  H   -0.028234   0.000232   0.000012  -0.000000   0.000000   0.000001
    18  H   -0.021274   0.003092  -0.000020   0.000000  -0.000000  -0.000001
    19  H    0.542119   0.000029   0.000011   0.000000  -0.000000  -0.000001
    20  H    0.000029   0.553681  -0.007113  -0.000003  -0.000011  -0.000004
    21  H    0.000011  -0.007113   0.501816  -0.000076   0.000986  -0.000081
    22  H    0.000000  -0.000003  -0.000076   0.523153  -0.011383   0.005472
    23  H   -0.000000  -0.000011   0.000986  -0.011383   0.520419   0.000189
    24  H   -0.000001  -0.000004  -0.000081   0.005472   0.000189   0.555688
    25  H    0.000000   0.000001  -0.000044  -0.003636  -0.009594  -0.025733
    26  H   -0.000000  -0.000000   0.000000   0.000111  -0.000190  -0.004873
    27  H    0.000000   0.000000  -0.000028   0.000076  -0.000478  -0.002447
    28  H    0.000000   0.000000  -0.000003   0.003570   0.000221   0.007433
    29  H   -0.000000  -0.000001  -0.000057   0.002272   0.000075  -0.000027
              25         26         27         28         29
     1  N   -0.000253   0.000015   0.000790  -0.000007  -0.001351
     2  S    0.004163   0.000251   0.005682  -0.001371  -0.019149
     3  C   -0.001068   0.000292  -0.004750  -0.000033   0.019152
     4  C    0.000846  -0.000080   0.002307   0.000005  -0.003477
     5  C    0.000028  -0.000035   0.000187   0.000009  -0.000022
     6  C   -0.000024   0.000003   0.000001   0.000000  -0.000008
     7  C   -0.000000   0.000000   0.000000   0.000000   0.000000
     8  C    0.000034  -0.000003   0.000018  -0.000002   0.000067
     9  C   -0.000630   0.000019  -0.000467   0.000011  -0.000891
    10  C   -0.026918   0.008421   0.002417   0.000216  -0.010049
    11  C    0.395797  -0.036356  -0.044990  -0.042880  -0.000331
    12  C   -0.032227   0.400264   0.413842   0.398321   0.002662
    13  N   -0.000370   0.000974   0.012505   0.000601   0.310470
    14  H    0.000033  -0.000003   0.000022   0.000002  -0.000246
    15  H    0.000057  -0.000006   0.000690   0.000023  -0.001274
    16  H    0.000000  -0.000000  -0.000007  -0.000000  -0.000003
    17  H   -0.000000   0.000000  -0.000000  -0.000000   0.000000
    18  H    0.000000  -0.000000  -0.000000   0.000000  -0.000000
    19  H    0.000000  -0.000000   0.000000   0.000000  -0.000000
    20  H    0.000001  -0.000000   0.000000   0.000000  -0.000001
    21  H   -0.000044   0.000000  -0.000028  -0.000003  -0.000057
    22  H   -0.003636   0.000111   0.000076   0.003570   0.002272
    23  H   -0.009594  -0.000190  -0.000478   0.000221   0.000075
    24  H   -0.025733  -0.004873  -0.002447   0.007433  -0.000027
    25  H    0.591353  -0.005961   0.006659  -0.004938  -0.000023
    26  H   -0.005961   0.556642  -0.019459  -0.023027   0.000059
    27  H    0.006659  -0.019459   0.498951  -0.021831  -0.002837
    28  H   -0.004938  -0.023027  -0.021831   0.571242  -0.000275
    29  H   -0.000023   0.000059  -0.002837  -0.000275   0.489692
 Mulliken charges:
               1
     1  N   -0.565220
     2  S    0.462295
     3  C    0.032219
     4  C   -0.145375
     5  C   -0.184741
     6  C    0.193864
     7  C   -0.404585
     8  C   -0.206209
     9  C   -0.150841
    10  C   -0.214135
    11  C   -0.149736
    12  C   -0.415965
    13  N   -0.567961
    14  H    0.214304
    15  H    0.161805
    16  H    0.117674
    17  H    0.142321
    18  H    0.133428
    19  H    0.136765
    20  H    0.117936
    21  H    0.157775
    22  H    0.138308
    23  H    0.152779
    24  H    0.126473
    25  H    0.112447
    26  H    0.122940
    27  H    0.153147
    28  H    0.112714
    29  H    0.215572
 Sum of Mulliken charges =  -0.00000
 Mulliken charges with hydrogens summed into heavy atoms:
               1
     1  N   -0.350916
     2  S    0.462295
     3  C    0.032219
     4  C    0.016430
     5  C   -0.067066
     6  C    0.193864
     7  C    0.007930
     8  C   -0.088273
     9  C    0.006934
    10  C    0.076952
    11  C    0.089184
    12  C   -0.027163
    13  N   -0.352389
 Electronic spatial extent (au):  <R**2>=           3118.9815
 Charge=             -0.0000 electrons
 Dipole moment (field-independent basis, Debye):
    X=             -2.0331    Y=              1.8149    Z=             -1.4094  Tot=              3.0682
 Quadrupole moment (field-independent basis, Debye-Ang):
   XX=            -76.9197   YY=            -89.6002   ZZ=            -88.4522
   XY=              2.7515   XZ=             -0.5393   YZ=             -0.7433
 Traceless Quadrupole moment (field-independent basis, Debye-Ang):
   XX=              8.0710   YY=             -4.6095   ZZ=             -3.4615
   XY=              2.7515   XZ=             -0.5393   YZ=             -0.7433
 Octapole moment (field-independent basis, Debye-Ang**2):
  XXX=            -13.6032  YYY=              5.2280  ZZZ=            -10.2763  XYY=            -12.3057
  XXY=             10.8148  XXZ=             -0.2506  XZZ=              0.8410  YZZ=             -1.6908
  YYZ=             10.8260  XYZ=            -14.6662
 Hexadecapole moment (field-independent basis, Debye-Ang**3):
 XXXX=          -2732.0983 YYYY=           -870.8085 ZZZZ=           -508.4217 XXXY=            -14.9809
 XXXZ=             29.2224 YYYX=             12.8417 YYYZ=            -29.9424 ZZZX=             -3.1299
 ZZZY=              6.7290 XXYY=           -662.7832 XXZZ=           -545.7471 YYZZ=           -219.2826
 XXYZ=             -2.1193 YYXZ=             14.7739 ZZXY=             -1.8460
 N-N= 9.348608370893D+02 E-N=-3.975759813462D+03  KE= 8.942856075087D+02
 Breneman (CHELPG) radii used.
 Read replacement radii for each type of atom:
 Atom Element Radius
    1     7    1.70
    2    16    2.00
    3     6    1.50
    4     6    1.50
    5     6    1.50
    6     6    1.50
    7     6    1.50
    8     6    1.50
    9     6    1.50
   10     6    1.50
   11     6    1.50
   12     6    1.50
   13     7    1.70
   14     1    1.45
   15     1    1.45
   16     1    1.45
   17     1    1.45
   18     1    1.45
   19     1    1.45
   20     1    1.45
   21     1    1.45
   22     1    1.45
   23     1    1.45
   24     1    1.45
   25     1    1.45
   26     1    1.45
   27     1    1.45
   28     1    1.45
   29     1    1.45
 Generate Potential Derived Charges using the Breneman model, NDens= 1.
 Grid spacing= 0.300 Box extension= 2.800
 NStep X,Y,Z=   50     41     34   Total possible points=       69700
 Number of Points to Fit=   17479

 **********************************************************************

            Electrostatic Properties Using The SCF Density.

 **********************************************************************

       Atomic Center    1 is at   1.631051 -2.332972 -0.116237
       Atomic Center    2 is at   1.379976 -0.861885  0.312302
       Atomic Center    3 is at  -0.347470 -0.380533  0.203355
       Atomic Center    4 is at  -0.888500  0.616132  1.012929
       Atomic Center    5 is at  -2.235295  0.935616  0.875771
       Atomic Center    6 is at  -3.051034  0.273411 -0.052848
       Atomic Center    7 is at  -4.507384  0.614832 -0.168599
       Atomic Center    8 is at  -2.479996 -0.731075 -0.843298
       Atomic Center    9 is at  -1.134614 -1.066270 -0.716437
       Atomic Center   10 is at   2.086821 -0.012565 -1.132496
       Atomic Center   11 is at   1.976105  1.501529 -1.107248
       Atomic Center   12 is at   2.934786  2.197970 -0.152955
       Atomic Center   13 is at   1.767964 -0.265971  1.694898
       Atomic Center   14 is at   1.306648 -2.931249  0.649642
       Atomic Center   15 is at  -0.245319  1.108950  1.743702
       Atomic Center   16 is at  -2.667180  1.717204  1.507146
       Atomic Center   17 is at  -5.080459  0.168265  0.660808
       Atomic Center   18 is at  -4.937767  0.239989 -1.107697
       Atomic Center   19 is at  -4.669528  1.702111 -0.124966
       Atomic Center   20 is at  -3.102479 -1.265786 -1.565706
       Atomic Center   21 is at  -0.685240 -1.868730 -1.308129
       Atomic Center   22 is at   3.129031 -0.369579 -1.143394
       Atomic Center   23 is at   1.574362 -0.462844 -1.993922
       Atomic Center   24 is at   0.934295  1.786723 -0.881005
       Atomic Center   25 is at   2.157006  1.850780 -2.137649
       Atomic Center   26 is at   2.824805  3.290883 -0.215334
       Atomic Center   27 is at   2.744312  1.889270  0.884225
       Atomic Center   28 is at   3.981459  1.954010 -0.397149
       Atomic Center   29 is at   2.742810 -0.521529  1.872929
   17479 points will be used for fitting atomic charges
 Fitting point charges to electrostatic potential
 Charges from ESP fit, RMS=   0.00283 RRMS=   0.21905:
 ESP charges:
               1
     1  N   -0.760230
     2  S    0.592300
     3  C    0.080404
     4  C   -0.013395
     5  C   -0.264348
     6  C    0.261351
     7  C   -0.304590
     8  C   -0.247431
     9  C   -0.107611
    10  C   -0.174622
    11  C    0.255569
    12  C   -0.190286
    13  N   -0.789350
    14  H    0.321859
    15  H    0.116897
    16  H    0.131619
    17  H    0.090500
    18  H    0.086918
    19  H    0.089692
    20  H    0.133754
    21  H    0.129640
    22  H    0.113444
    23  H    0.073995
    24  H   -0.079825
    25  H   -0.031092
    26  H    0.039340
    27  H    0.067919
    28  H    0.022453
    29  H    0.355130
 Sum of ESP charges =   0.00000
 ESP charges with hydrogens summed into heavy atoms:
               1
     1  N   -0.438372
     2  S    0.592300
     3  C    0.080404
     4  C    0.103501
     5  C   -0.132730
     6  C    0.261351
     7  C   -0.037480
     8  C   -0.113677
     9  C    0.022029
    10  C    0.012816
    11  C    0.144652
    12  C   -0.060575
    13  N   -0.434220
 Charge=   0.00000 Dipole=    -2.0647     1.7477    -1.3167 Tot=     3.0085
 -----------------------------------------------------------------

              Electrostatic Properties (Atomic Units)

 -----------------------------------------------------------------
    Center     Electric         -------- Electric Field --------
               Potential          X             Y             Z
 -----------------------------------------------------------------
    1 Atom    -18.433074
    2 Atom    -59.083227
    3 Atom    -14.736549
    4 Atom    -14.751147
    5 Atom    -14.754412
    6 Atom    -14.738242
    7 Atom    -14.755536
    8 Atom    -14.753358
    9 Atom    -14.748923
   10 Atom    -14.736469
   11 Atom    -14.752855
   12 Atom    -14.776885
   13 Atom    -18.430273
   14 Atom     -1.058862
   15 Atom     -1.097552
   16 Atom     -1.094522
   17 Atom     -1.098463
   18 Atom     -1.102115
   19 Atom     -1.100426
   20 Atom     -1.093601
   21 Atom     -1.090833
   22 Atom     -1.089073
   23 Atom     -1.090885
   24 Atom     -1.115325
   25 Atom     -1.113761
   26 Atom     -1.122157
   27 Atom     -1.128005
   28 Atom     -1.122083
   29 Atom     -1.054794
 -----------------------------------------------------------------
 Unable to Open any file for archive entry.
 1\1\GINC-NOTCH295\SP\RPBE1PBE\def2TZVP\C10H16N2S1\U1414944\10-Feb-2025
 \0\\#N Guess=Read Geom=Check Integral(Ultrafine) Density Pop=(ChelpG,R
 eadRadii) NMR pbe1pbe EmpiricalDispersion=GD3BJ def2TZVP\\SDI0432_3\\0
 ,1\N,0,-1.7142841323,-1.7753003004,1.328852483\S,0,-1.3882161926,-0.79
 84044469,0.1668989312\C,0,0.358781648,-0.394823247,0.0539470843\C,0,0.
 9564131475,-0.0332977307,-1.151706409\C,0,2.3151634259,0.2639350467,-1
 .1654302467\C,0,3.0871769046,0.2017150482,0.0035016306\C,0,4.556652911
 6,0.5016919894,-0.0361844155\C,0,2.4594307049,-0.1759321156,1.19648413
 55\C,0,1.1012191414,-0.4805595591,1.2275252506\C,0,-2.0710776101,0.732
 5784846,0.8727378334\C,0,-1.8879964258,1.9736117021,0.0173465803\C,0,-
 2.8008375765,2.0547674857,-1.1971114436\N,0,-1.7306995029,-1.057285259
 ,-1.3273924789\H,0,-1.4095935351,-2.7082886353,1.0348445033\H,0,0.3462
 943987,-0.0078206974,-2.0559668444\H,0,2.791384818,0.5491330074,-2.107
 7234266\H,0,5.1177120137,-0.3486313944,-0.4579860614\H,0,4.957352846,0
 .696895073,0.9682940432\H,0,4.7709691922,1.3760076127,-0.6686486192\H,
 0,3.0469798329,-0.2401929841,2.1162288141\H,0,0.6070119184,-0.80454821
 94,2.1477261242\H,0,-3.129181304,0.4762341353,1.0415114299\H,0,-1.5910
 650885,0.8192677114,1.8573661485\H,0,-0.83112869,2.0507863769,-0.29081
 42743\H,0,-2.064413203,2.8416025155,0.6745351149\H,0,-2.6396266426,2.9
 943053119,-1.7464068132\H,0,-2.6128449218,1.2164101042,-1.8820450301\H
 ,0,-3.8608124716,2.0219903106,-0.8970274574\H,0,-2.7144116064,-1.33633
 01898,-1.3695115069\\Version=ES64L-G16RevC.01\State=1-A\HF=-897.794173
 9\RMSD=2.235e-09\Dipole=0.8262965,0.8748411,0.0950407\Quadrupole=5.792
 0628,-2.5173427,-3.2747201,-2.2251115,1.1551782,0.4984836\PG=C01 [X(C1
 0H16N2S1)]\\@
 The archive entry for this job was punched.


 THE MORE ACCURATE THE CALCULATIONS BECOME, THE MORE THE CONCEPTS
 TEND TO VANISH INTO THIN AIR.
     -- R.S. MULLIKEN, J.C.P. 43,S2(1965)
 Job cpu time:       0 days  0 hours 28 minutes 57.1 seconds.
 Elapsed time:       0 days  0 hours  1 minutes 59.4 seconds.
 File lengths (MBytes):  RWF=    160 Int=      0 D2E=      0 Chk=     25 Scr=      2
 Normal termination of Gaussian 16 at Mon Feb 10 19:56:17 2025.
