 Entering Gaussian System, Link 0=g16
 Input=SDI0432_5.com
 Output=SDI0432_5.log
 Initial command:
 /uufs/chpc.utah.edu/sys/installdir/gaussian16/C01/AVX/g16/l1.exe "/scratch/general/vast/u1414944/3119890-notchpeak.peaks/Gau-1831519.inp" -scrdir="/scratch/general/vast/u1414944/3119890-notchpeak.peaks/"
 Entering Link 1 = /uufs/chpc.utah.edu/sys/installdir/gaussian16/C01/AVX/g16/l1.exe PID=   1831520.
  
 Copyright (c) 1988-2019, Gaussian, Inc.  All Rights Reserved.
  
 This is part of the Gaussian(R) 16 program.  It is based on
 the Gaussian(R) 09 system (copyright 2009, Gaussian, Inc.),
 the Gaussian(R) 03 system (copyright 2003, Gaussian, Inc.),
 the Gaussian(R) 98 system (copyright 1998, Gaussian, Inc.),
 the Gaussian(R) 94 system (copyright 1995, Gaussian, Inc.),
 the Gaussian 92(TM) system (copyright 1992, Gaussian, Inc.),
 the Gaussian 90(TM) system (copyright 1990, Gaussian, Inc.),
 the Gaussian 88(TM) system (copyright 1988, Gaussian, Inc.),
 the Gaussian 86(TM) system (copyright 1986, Carnegie Mellon
 University), and the Gaussian 82(TM) system (copyright 1983,
 Carnegie Mellon University). Gaussian is a federally registered
 trademark of Gaussian, Inc.
  
 This software contains proprietary and confidential information,
 including trade secrets, belonging to Gaussian, Inc.
  
 This software is provided under written license and may be
 used, copied, transmitted, or stored only in accord with that
 written license.
  
 The following legend is applicable only to US Government
 contracts under FAR:
  
                    RESTRICTED RIGHTS LEGEND
  
 Use, reproduction and disclosure by the US Government is
 subject to restrictions as set forth in subparagraphs (a)
 and (c) of the Commercial Computer Software - Restricted
 Rights clause in FAR 52.227-19.
  
 Gaussian, Inc.
 340 Quinnipiac St., Bldg. 40, Wallingford CT 06492
  
  
 ---------------------------------------------------------------
 Warning -- This program may not be used in any manner that
 competes with the business of Gaussian, Inc. or will provide
 assistance to any competitor of Gaussian, Inc.  The licensee
 of this program is prohibited from giving any competitor of
 Gaussian, Inc. access to this program.  By using this program,
 the user acknowledges that Gaussian, Inc. is engaged in the
 business of creating and licensing software in the field of
 computational chemistry and represents and warrants to the
 licensee that it is not a competitor of Gaussian, Inc. and that
 it will not use this program in any manner prohibited above.
 ---------------------------------------------------------------
  

 Cite this work as:
 Gaussian 16, Revision C.01,
 M. J. Frisch, G. W. Trucks, H. B. Schlegel, G. E. Scuseria, 
 M. A. Robb, J. R. Cheeseman, G. Scalmani, V. Barone, 
 G. A. Petersson, H. Nakatsuji, X. Li, M. Caricato, A. V. Marenich, 
 J. Bloino, B. G. Janesko, R. Gomperts, B. Mennucci, H. P. Hratchian, 
 J. V. Ortiz, A. F. Izmaylov, J. L. Sonnenberg, D. Williams-Young, 
 F. Ding, F. Lipparini, F. Egidi, J. Goings, B. Peng, A. Petrone, 
 T. Henderson, D. Ranasinghe, V. G. Zakrzewski, J. Gao, N. Rega, 
 G. Zheng, W. Liang, M. Hada, M. Ehara, K. Toyota, R. Fukuda, 
 J. Hasegawa, M. Ishida, T. Nakajima, Y. Honda, O. Kitao, H. Nakai, 
 T. Vreven, K. Throssell, J. A. Montgomery, Jr., J. E. Peralta, 
 F. Ogliaro, M. J. Bearpark, J. J. Heyd, E. N. Brothers, K. N. Kudin, 
 V. N. Staroverov, T. A. Keith, R. Kobayashi, J. Normand, 
 K. Raghavachari, A. P. Rendell, J. C. Burant, S. S. Iyengar, 
 J. Tomasi, M. Cossi, J. M. Millam, M. Klene, C. Adamo, R. Cammi, 
 J. W. Ochterski, R. L. Martin, K. Morokuma, O. Farkas, 
 J. B. Foresman, and D. J. Fox, Gaussian, Inc., Wallingford CT, 2019.
 
 ******************************************
 Gaussian 16:  ES64L-G16RevC.01  3-Jul-2019
                10-Feb-2025 
 ******************************************
 %NProcShared=16
 Will use up to   16 processors via shared memory.
 %Mem=40GB
 %chk=SDI0432_5.chk
 ----------------------------------------------------------------------
 #N OPT FREQ=NORAMAN Integral(Ultrafine) pbe1pbe EmpiricalDispersion=GD
 3BJ def2SVP
 ----------------------------------------------------------------------
 1/18=20,19=15,26=4,38=1/1,3;
 2/9=110,12=2,17=6,18=5,40=1/2;
 3/5=43,7=101,11=2,25=1,30=1,71=1,74=-13,75=-5,124=41/1,2,3;
 4//1;
 5/5=2,38=5/2;
 6/7=2,8=2,9=2,10=2,28=1/1;
 7//1,2,3,16;
 1/18=20,19=15,26=4/3(2);
 2/9=110/2;
 99//99;
 2/9=110/2;
 3/5=43,7=101,11=2,25=1,30=1,71=1,74=-13,75=-5,124=41/1,2,3;
 4/5=5,16=3,69=1/1;
 5/5=2,38=5/2;
 7//1,2,3,16;
 1/18=20,19=15,26=4/3(-5);
 2/9=110/2;
 6/7=2,8=2,9=2,10=2,19=2,28=1/1;
 99/9=1/99;
 ---------
 SDI0432_5
 ---------
 Symbolic Z-matrix:
 Charge =  0 Multiplicity = 1
 N                    -1.64452  -1.81388   1.35534 
 S                    -1.4454   -0.86733   0.17575 
 C                     0.31513  -0.36877   0.05191 
 C                     0.98606  -0.07207   1.22345 
 C                     2.32098   0.2826    1.17567 
 C                     2.99954   0.33346  -0.03889 
 C                     4.45081   0.70141  -0.07932 
 C                     2.3149    0.00605  -1.20273 
 C                     0.97713  -0.34893  -1.15929 
 C                    -2.20868   0.68696   0.8262 
 C                    -2.69956   1.59359  -0.28454 
 C                    -1.55861   2.30583  -1.00221 
 N                    -2.01192  -1.37398  -1.15413 
 H                    -1.57584  -2.78827   1.11664 
 H                     0.45708  -0.14134   2.16192 
 H                     2.84755   0.51925   2.08906 
 H                     5.05966  -0.16376   0.18441 
 H                     4.66903   1.49248   0.63481 
 H                     4.74258   1.03076  -1.07337 
 H                     2.83232   0.02549  -2.1511 
 H                     0.45119  -0.62015  -2.06336 
 H                    -3.02342   0.32409   1.44779 
 H                    -1.45962   1.16772   1.44861 
 H                    -3.38021   2.33827   0.13605 
 H                    -3.2688    0.99004  -0.99624 
 H                    -1.94951   2.96267  -1.77609 
 H                    -0.98262   2.90717  -0.3012 
 H                    -0.88291   1.59272  -1.4679 
 H                    -1.8626   -0.76298  -1.94022 
 

 GradGradGradGradGradGradGradGradGradGradGradGradGradGradGradGradGradGrad
 Berny optimization.
 Initialization pass.
                           ----------------------------
                           !    Initial Parameters    !
                           ! (Angstroms and Degrees)  !
 --------------------------                            --------------------------
 ! Name  Definition              Value          Derivative Info.                !
 --------------------------------------------------------------------------------
 ! R1    R(1,2)                  1.5255         estimate D2E/DX2                !
 ! R2    R(1,14)                 1.0056         estimate D2E/DX2                !
 ! R3    R(2,3)                  1.834          estimate D2E/DX2                !
 ! R4    R(2,10)                 1.8497         estimate D2E/DX2                !
 ! R5    R(2,13)                 1.5317         estimate D2E/DX2                !
 ! R6    R(3,4)                  1.3823         estimate D2E/DX2                !
 ! R7    R(3,9)                  1.3805         estimate D2E/DX2                !
 ! R8    R(4,5)                  1.3821         estimate D2E/DX2                !
 ! R9    R(4,15)                 1.0795         estimate D2E/DX2                !
 ! R10   R(5,6)                  1.3922         estimate D2E/DX2                !
 ! R11   R(5,16)                 1.0805         estimate D2E/DX2                !
 ! R12   R(6,7)                  1.4977         estimate D2E/DX2                !
 ! R13   R(6,8)                  1.3894         estimate D2E/DX2                !
 ! R14   R(7,17)                 1.0903         estimate D2E/DX2                !
 ! R15   R(7,18)                 1.0878         estimate D2E/DX2                !
 ! R16   R(7,19)                 1.0871         estimate D2E/DX2                !
 ! R17   R(8,9)                  1.3847         estimate D2E/DX2                !
 ! R18   R(8,20)                 1.0805         estimate D2E/DX2                !
 ! R19   R(9,21)                 1.0805         estimate D2E/DX2                !
 ! R20   R(10,11)                1.5155         estimate D2E/DX2                !
 ! R21   R(10,22)                1.0871         estimate D2E/DX2                !
 ! R22   R(10,23)                1.0861         estimate D2E/DX2                !
 ! R23   R(11,12)                1.5245         estimate D2E/DX2                !
 ! R24   R(11,24)                1.093          estimate D2E/DX2                !
 ! R25   R(11,25)                1.0931         estimate D2E/DX2                !
 ! R26   R(12,26)                1.0877         estimate D2E/DX2                !
 ! R27   R(12,27)                1.0885         estimate D2E/DX2                !
 ! R28   R(12,28)                1.0872         estimate D2E/DX2                !
 ! R29   R(13,29)                1.0068         estimate D2E/DX2                !
 ! A1    A(2,1,14)             114.1289         estimate D2E/DX2                !
 ! A2    A(1,2,3)              110.2552         estimate D2E/DX2                !
 ! A3    A(1,2,10)             101.2804         estimate D2E/DX2                !
 ! A4    A(1,2,13)             114.6987         estimate D2E/DX2                !
 ! A5    A(3,2,10)             101.0369         estimate D2E/DX2                !
 ! A6    A(3,2,13)             112.7273         estimate D2E/DX2                !
 ! A7    A(10,2,13)            115.507          estimate D2E/DX2                !
 ! A8    A(2,3,4)              117.8443         estimate D2E/DX2                !
 ! A9    A(2,3,9)              121.5677         estimate D2E/DX2                !
 ! A10   A(4,3,9)              120.5164         estimate D2E/DX2                !
 ! A11   A(3,4,5)              119.6439         estimate D2E/DX2                !
 ! A12   A(3,4,15)             119.0251         estimate D2E/DX2                !
 ! A13   A(5,4,15)             121.3206         estimate D2E/DX2                !
 ! A14   A(4,5,6)              120.6849         estimate D2E/DX2                !
 ! A15   A(4,5,16)             119.8469         estimate D2E/DX2                !
 ! A16   A(6,5,16)             119.4677         estimate D2E/DX2                !
 ! A17   A(5,6,7)              120.3189         estimate D2E/DX2                !
 ! A18   A(5,6,8)              118.8159         estimate D2E/DX2                !
 ! A19   A(7,6,8)              120.847          estimate D2E/DX2                !
 ! A20   A(6,7,17)             109.8538         estimate D2E/DX2                !
 ! A21   A(6,7,18)             110.8123         estimate D2E/DX2                !
 ! A22   A(6,7,19)             111.0505         estimate D2E/DX2                !
 ! A23   A(17,7,18)            107.832          estimate D2E/DX2                !
 ! A24   A(17,7,19)            108.1624         estimate D2E/DX2                !
 ! A25   A(18,7,19)            109.0343         estimate D2E/DX2                !
 ! A26   A(6,8,9)              120.6755         estimate D2E/DX2                !
 ! A27   A(6,8,20)             119.6702         estimate D2E/DX2                !
 ! A28   A(9,8,20)             119.654          estimate D2E/DX2                !
 ! A29   A(3,9,8)              119.6358         estimate D2E/DX2                !
 ! A30   A(3,9,21)             119.8075         estimate D2E/DX2                !
 ! A31   A(8,9,21)             120.5535         estimate D2E/DX2                !
 ! A32   A(2,10,11)            112.2483         estimate D2E/DX2                !
 ! A33   A(2,10,22)            103.2875         estimate D2E/DX2                !
 ! A34   A(2,10,23)            106.7905         estimate D2E/DX2                !
 ! A35   A(11,10,22)           112.0866         estimate D2E/DX2                !
 ! A36   A(11,10,23)           112.2469         estimate D2E/DX2                !
 ! A37   A(22,10,23)           109.6917         estimate D2E/DX2                !
 ! A38   A(10,11,12)           112.4648         estimate D2E/DX2                !
 ! A39   A(10,11,24)           109.1027         estimate D2E/DX2                !
 ! A40   A(10,11,25)           108.3951         estimate D2E/DX2                !
 ! A41   A(12,11,24)           109.2016         estimate D2E/DX2                !
 ! A42   A(12,11,25)           109.9499         estimate D2E/DX2                !
 ! A43   A(24,11,25)           107.6029         estimate D2E/DX2                !
 ! A44   A(11,12,26)           110.3706         estimate D2E/DX2                !
 ! A45   A(11,12,27)           110.5454         estimate D2E/DX2                !
 ! A46   A(11,12,28)           111.1216         estimate D2E/DX2                !
 ! A47   A(26,12,27)           108.3464         estimate D2E/DX2                !
 ! A48   A(26,12,28)           108.3429         estimate D2E/DX2                !
 ! A49   A(27,12,28)           108.0207         estimate D2E/DX2                !
 ! A50   A(2,13,29)            114.9809         estimate D2E/DX2                !
 ! D1    D(14,1,2,3)           -92.6979         estimate D2E/DX2                !
 ! D2    D(14,1,2,10)          160.9412         estimate D2E/DX2                !
 ! D3    D(14,1,2,13)           35.8376         estimate D2E/DX2                !
 ! D4    D(1,2,3,4)            -41.5788         estimate D2E/DX2                !
 ! D5    D(1,2,3,9)            135.359          estimate D2E/DX2                !
 ! D6    D(10,2,3,4)            64.9448         estimate D2E/DX2                !
 ! D7    D(10,2,3,9)          -118.1174         estimate D2E/DX2                !
 ! D8    D(13,2,3,4)          -171.181          estimate D2E/DX2                !
 ! D9    D(13,2,3,9)             5.7567         estimate D2E/DX2                !
 ! D10   D(1,2,10,11)         -154.8494         estimate D2E/DX2                !
 ! D11   D(1,2,10,22)          -33.9164         estimate D2E/DX2                !
 ! D12   D(1,2,10,23)           81.7356         estimate D2E/DX2                !
 ! D13   D(3,2,10,11)           91.6613         estimate D2E/DX2                !
 ! D14   D(3,2,10,22)         -147.4058         estimate D2E/DX2                !
 ! D15   D(3,2,10,23)          -31.7538         estimate D2E/DX2                !
 ! D16   D(13,2,10,11)         -30.29           estimate D2E/DX2                !
 ! D17   D(13,2,10,22)          90.643          estimate D2E/DX2                !
 ! D18   D(13,2,10,23)        -153.705          estimate D2E/DX2                !
 ! D19   D(1,2,13,29)         -178.5411         estimate D2E/DX2                !
 ! D20   D(3,2,13,29)          -51.2556         estimate D2E/DX2                !
 ! D21   D(10,2,13,29)          64.2008         estimate D2E/DX2                !
 ! D22   D(2,3,4,5)            178.7487         estimate D2E/DX2                !
 ! D23   D(2,3,4,15)            -0.0936         estimate D2E/DX2                !
 ! D24   D(9,3,4,5)              1.7773         estimate D2E/DX2                !
 ! D25   D(9,3,4,15)          -177.065          estimate D2E/DX2                !
 ! D26   D(2,3,9,8)           -178.5904         estimate D2E/DX2                !
 ! D27   D(2,3,9,21)             0.7643         estimate D2E/DX2                !
 ! D28   D(4,3,9,8)             -1.7336         estimate D2E/DX2                !
 ! D29   D(4,3,9,21)           177.6211         estimate D2E/DX2                !
 ! D30   D(3,4,5,6)             -0.5285         estimate D2E/DX2                !
 ! D31   D(3,4,5,16)           179.7423         estimate D2E/DX2                !
 ! D32   D(15,4,5,6)           178.2865         estimate D2E/DX2                !
 ! D33   D(15,4,5,16)           -1.4426         estimate D2E/DX2                !
 ! D34   D(4,5,6,7)           -179.1967         estimate D2E/DX2                !
 ! D35   D(4,5,6,8)             -0.7365         estimate D2E/DX2                !
 ! D36   D(16,5,6,7)             0.5335         estimate D2E/DX2                !
 ! D37   D(16,5,6,8)           178.9937         estimate D2E/DX2                !
 ! D38   D(5,6,7,17)            80.1225         estimate D2E/DX2                !
 ! D39   D(5,6,7,18)           -38.9264         estimate D2E/DX2                !
 ! D40   D(5,6,7,19)          -160.2684         estimate D2E/DX2                !
 ! D41   D(8,6,7,17)           -98.3061         estimate D2E/DX2                !
 ! D42   D(8,6,7,18)           142.645          estimate D2E/DX2                !
 ! D43   D(8,6,7,19)            21.3031         estimate D2E/DX2                !
 ! D44   D(5,6,8,9)              0.7805         estimate D2E/DX2                !
 ! D45   D(5,6,8,20)          -179.0208         estimate D2E/DX2                !
 ! D46   D(7,6,8,9)            179.2323         estimate D2E/DX2                !
 ! D47   D(7,6,8,20)            -0.5689         estimate D2E/DX2                !
 ! D48   D(6,8,9,3)              0.441          estimate D2E/DX2                !
 ! D49   D(6,8,9,21)          -178.9088         estimate D2E/DX2                !
 ! D50   D(20,8,9,3)          -179.7577         estimate D2E/DX2                !
 ! D51   D(20,8,9,21)            0.8925         estimate D2E/DX2                !
 ! D52   D(2,10,11,12)         -74.6461         estimate D2E/DX2                !
 ! D53   D(2,10,11,24)         164.0318         estimate D2E/DX2                !
 ! D54   D(2,10,11,25)          47.1307         estimate D2E/DX2                !
 ! D55   D(22,10,11,12)        169.633          estimate D2E/DX2                !
 ! D56   D(22,10,11,24)         48.3109         estimate D2E/DX2                !
 ! D57   D(22,10,11,25)        -68.5902         estimate D2E/DX2                !
 ! D58   D(23,10,11,12)         45.6549         estimate D2E/DX2                !
 ! D59   D(23,10,11,24)        -75.6672         estimate D2E/DX2                !
 ! D60   D(23,10,11,25)        167.4317         estimate D2E/DX2                !
 ! D61   D(10,11,12,26)       -178.746          estimate D2E/DX2                !
 ! D62   D(10,11,12,27)        -58.896          estimate D2E/DX2                !
 ! D63   D(10,11,12,28)         61.0345         estimate D2E/DX2                !
 ! D64   D(24,11,12,26)        -57.4805         estimate D2E/DX2                !
 ! D65   D(24,11,12,27)         62.3695         estimate D2E/DX2                !
 ! D66   D(24,11,12,28)       -177.7            estimate D2E/DX2                !
 ! D67   D(25,11,12,26)         60.3652         estimate D2E/DX2                !
 ! D68   D(25,11,12,27)       -179.7848         estimate D2E/DX2                !
 ! D69   D(25,11,12,28)        -59.8543         estimate D2E/DX2                !
 --------------------------------------------------------------------------------
 Trust Radius=3.00D-01 FncErr=1.00D-07 GrdErr=1.00D-06 EigMax=2.50D+02 EigMin=1.00D-04
 Number of steps in this run=    158 maximum allowed number of steps=    174.
 GradGradGradGradGradGradGradGradGradGradGradGradGradGradGradGradGradGrad

                          Input orientation:                          
 ---------------------------------------------------------------------
 Center     Atomic      Atomic             Coordinates (Angstroms)
 Number     Number       Type             X           Y           Z
 ---------------------------------------------------------------------
      1          7           0       -1.644521   -1.813877    1.355341
      2         16           0       -1.445399   -0.867331    0.175747
      3          6           0        0.315135   -0.368774    0.051912
      4          6           0        0.986057   -0.072066    1.223450
      5          6           0        2.320976    0.282599    1.175672
      6          6           0        2.999536    0.333459   -0.038888
      7          6           0        4.450807    0.701412   -0.079323
      8          6           0        2.314899    0.006055   -1.202726
      9          6           0        0.977130   -0.348926   -1.159294
     10          6           0       -2.208681    0.686962    0.826199
     11          6           0       -2.699556    1.593587   -0.284537
     12          6           0       -1.558605    2.305826   -1.002215
     13          7           0       -2.011924   -1.373980   -1.154132
     14          1           0       -1.575837   -2.788267    1.116640
     15          1           0        0.457077   -0.141338    2.161918
     16          1           0        2.847545    0.519251    2.089058
     17          1           0        5.059658   -0.163761    0.184405
     18          1           0        4.669029    1.492479    0.634807
     19          1           0        4.742578    1.030759   -1.073370
     20          1           0        2.832324    0.025495   -2.151103
     21          1           0        0.451188   -0.620148   -2.063357
     22          1           0       -3.023415    0.324090    1.447788
     23          1           0       -1.459621    1.167723    1.448608
     24          1           0       -3.380213    2.338270    0.136053
     25          1           0       -3.268799    0.990043   -0.996235
     26          1           0       -1.949512    2.962668   -1.776088
     27          1           0       -0.982624    2.907167   -0.301202
     28          1           0       -0.882908    1.592715   -1.467904
     29          1           0       -1.862604   -0.762981   -1.940217
 ---------------------------------------------------------------------
                    Distance matrix (angstroms):
                    1          2          3          4          5
     1  N    0.000000
     2  S    1.525464   0.000000
     3  C    2.761792   1.833950   0.000000
     4  C    3.157727   2.764437   1.382271   0.000000
     5  C    4.489171   4.062976   2.389670   1.382056   0.000000
     6  C    5.303036   4.609275   2.776218   2.410818   1.392188
     7  C    6.748182   6.106658   4.273910   3.781531   2.507309
     8  C    5.053005   4.099126   2.390329   2.767355   2.394429
     9  C    3.916953   2.814201   1.380454   2.398791   2.767095
    10  C    2.617721   1.849733   2.843193   3.307610   4.561078
    11  C    3.925953   2.800159   3.612813   4.316499   5.390421
    12  C    4.747358   3.386641   3.431556   4.133190   4.887514
    13  N    2.574092   1.531738   2.807166   4.041753   5.190979
    14  H    1.005551   2.142962   3.250133   3.735299   4.961739
    15  H    2.804401   2.844532   2.126970   1.079510   2.150935
    16  H    5.114732   4.900280   3.369222   2.136369   1.080534
    17  H    7.002856   6.543001   4.750799   4.205026   2.946562
    18  H    7.163244   6.570059   4.770789   4.044574   2.696237
    19  H    7.401731   6.591973   4.777783   4.539058   3.388523
    20  H    5.976669   4.950787   3.368229   3.847834   3.375650
    21  H    4.183836   2.944781   2.134494   3.374845   3.847385
    22  H    2.545741   2.351108   3.684351   4.035237   5.351475
    23  H    2.988783   2.400379   2.731545   2.751203   3.892410
    24  H    4.662576   3.744457   4.581567   5.104553   6.148995
    25  H    4.003768   2.854500   3.973610   4.915168   6.038480
    26  H    5.719637   4.328127   4.423654   5.179228   5.842322
    27  H    5.046830   3.832555   3.541279   3.882795   4.470267
    28  H    4.489503   3.011614   2.755466   3.675311   4.355430
    29  H    3.465927   2.159225   2.977671   4.312890   5.320183
                    6          7          8          9         10
     6  C    0.000000
     7  C    1.497736   0.000000
     8  C    1.389403   2.511506   0.000000
     9  C    2.410620   3.786289   1.384747   0.000000
    10  C    5.291396   6.720786   5.004293   3.894180   0.000000
    11  C    5.841910   7.208730   5.339296   4.249303   1.515474
    12  C    5.059139   6.287998   4.509234   3.674552   2.527136
    13  N    5.410531   6.872362   4.541834   3.159937   2.864944
    14  H    5.658132   7.066019   5.322172   4.200940   3.544300
    15  H    3.396039   4.656529   3.846304   3.368085   3.094592
    16  H    2.141443   2.702870   3.373860   3.847594   5.214247
    17  H    2.131007   1.090310   3.080045   4.301960   7.346046
    18  H    2.141121   1.087837   3.335853   4.498855   6.927365
    19  H    2.143496   1.087074   2.638253   4.011174   7.214330
    20  H    2.141087   2.714521   1.080521   2.136732   5.891825
    21  H    3.391448   4.656164   2.146213   1.080512   4.139200
    22  H    6.203728   7.637961   5.968582   4.822260   1.087125
    23  H    4.774173   6.122514   4.756684   3.878032   1.086101
    24  H    6.689624   8.003160   6.298083   5.280661   2.139067
    25  H    6.374923   7.779225   5.673495   4.455034   2.130017
    26  H    5.867170   6.996883   5.220680   4.462322   3.466685
    27  H    4.748724   5.868284   4.483621   3.896036   2.775529
    28  H    4.324487   5.583108   3.579634   2.706465   2.800174
    29  H    5.334570   6.742888   4.311245   2.974116   3.142477
                   11         12         13         14         15
    11  C    0.000000
    12  C    1.524505   0.000000
    13  N    3.167884   3.710735   0.000000
    14  H    4.735682   5.517212   2.710495   0.000000
    15  H    4.354244   4.479211   4.314112   3.497367   0.000000
    16  H    6.128497   5.671154   6.141421   5.608171   2.481133
    17  H    7.969541   7.162984   7.298191   7.196311   5.009472
    18  H    7.426403   6.490363   7.486790   7.586521   4.768854
    19  H    7.504958   6.429290   7.170257   7.700874   5.496037
    20  H    6.045219   5.079381   5.139963   6.166626   4.926640
    21  H    4.241699   3.704945   2.731643   4.349937   4.252322
    22  H    2.171970   3.474976   3.267498   3.448465   3.583356
    23  H    2.173151   2.703998   3.679612   3.971595   2.428207
    24  H    1.093042   2.148246   4.161441   5.522563   4.997738
    25  H    1.093077   2.157795   2.682028   4.648225   5.013593
    26  H    2.159091   1.087717   4.381466   6.448315   5.561872
    27  H    2.161857   1.088478   4.484994   5.899165   4.175295
    28  H    2.168080   1.087180   3.189735   5.133520   4.240061
    29  H    2.999197   3.223328   1.006751   3.678097   4.753407
                   16         17         18         19         20
    16  H    0.000000
    17  H    2.997942   0.000000
    18  H    2.525831   1.760280   0.000000
    19  H    3.722062   1.763354   1.771007   0.000000
    20  H    4.268840   3.232868   3.645110   2.412703   0.000000
    21  H    4.927810   5.147691   5.434470   4.703360   2.468676
    22  H    5.909103   8.195744   7.823028   8.195503   6.879743
    23  H    4.402542   6.772892   6.190969   6.696746   5.716939
    24  H    6.775546   8.803063   8.108910   8.315769   7.012533
    25  H    6.866611   8.490487   8.119227   8.011851   6.283929
    26  H    6.627322   7.921273   7.195760   7.000725   5.624374
    27  H    5.107415   6.795263   5.900732   6.074133   5.126402
    28  H    5.265035   6.413223   5.937630   5.667234   4.089730
    29  H    6.329667   7.265728   7.374285   6.899083   4.765345
                   21         22         23         24         25
    21  H    0.000000
    22  H    5.029174   0.000000
    23  H    4.379677   1.776842   0.000000
    24  H    5.316886   2.429994   2.604161   0.000000
    25  H    4.191631   2.544986   3.046629   1.764144   0.000000
    26  H    4.322321   4.302178   3.722967   2.468412   2.497986
    27  H    4.195588   3.727745   2.512972   2.502652   3.063499
    28  H    2.651630   3.833072   3.003208   3.060239   2.505625
    29  H    2.321465   3.742698   3.920988   4.028870   2.437536
                   26         27         28         29
    26  H    0.000000
    27  H    1.764438   0.000000
    28  H    1.763347   1.760375   0.000000
    29  H    3.730275   4.114696   2.594646   0.000000
 Stoichiometry    C10H16N2S
 Framework group  C1[X(C10H16N2S)]
 Deg. of freedom    81
 Full point group                 C1      NOp   1
 Largest Abelian subgroup         C1      NOp   1
 Largest concise Abelian subgroup C1      NOp   1
                         Standard orientation:                         
 ---------------------------------------------------------------------
 Center     Atomic      Atomic             Coordinates (Angstroms)
 Number     Number       Type             X           Y           Z
 ---------------------------------------------------------------------
      1          7           0        1.770220   -2.179855   -0.455922
      2         16           0        1.509904   -0.827393    0.199913
      3          6           0       -0.277268   -0.421683    0.130694
      4          6           0       -0.957735   -0.700446   -1.039746
      5          6           0       -2.311238   -0.433855   -1.123636
      6          6           0       -2.998374    0.102256   -0.037995
      7          6           0       -4.468762    0.371239   -0.131915
      8          6           0       -2.302391    0.350828    1.138551
      9          6           0       -0.946048    0.085996    1.226434
     10          6           0        2.185284    0.329320   -1.075779
     11          6           0        2.616491    1.653735   -0.478581
     12          6           0        1.432129    2.543384   -0.118129
     13          7           0        2.097454   -0.674327    1.606176
     14          1           0        1.756888   -2.956010    0.183248
     15          1           0       -0.420396   -1.141384   -1.865689
     16          1           0       -2.845551   -0.646596   -2.038406
     17          1           0       -5.024878   -0.554488    0.018219
     18          1           0       -4.728551    0.760382   -1.113988
     19          1           0       -4.784704    1.083126    0.626457
     20          1           0       -2.825357    0.751897    1.994807
     21          1           0       -0.410303    0.263571    2.147819
     22          1           0        3.023167   -0.222329   -1.494678
     23          1           0        1.413063    0.450261   -1.829876
     24          1           0        3.255105    2.177846   -1.194278
     25          1           0        3.215831    1.451343    0.412848
     26          1           0        1.779919    3.491445    0.286040
     27          1           0        0.826131    2.748068   -0.998841
     28          1           0        0.796382    2.067520    0.624393
     29          1           0        1.908530    0.208263    2.052146
 ---------------------------------------------------------------------
 Rotational constants (GHZ):           1.2195374           0.4504609           0.4089100
 Standard basis: def2SVP (5D, 7F)
 There are   279 symmetry adapted cartesian basis functions of A   symmetry.
 There are   266 symmetry adapted basis functions of A   symmetry.
   266 basis functions,   449 primitive gaussians,   279 cartesian basis functions
    53 alpha electrons       53 beta electrons
       nuclear repulsion energy       940.2312240517 Hartrees.
 NAtoms=   29 NActive=   29 NUniq=   29 SFac= 1.00D+00 NAtFMM=   60 NAOKFM=F Big=F
 Integral buffers will be    131072 words long.
 Raffenetti 2 integral format.
 Two-electron integral symmetry is turned on.
 Nuclear repulsion after empirical dispersion term =      940.1985684672 Hartrees.
 One-electron integrals computed using PRISM.
   1 Symmetry operations used in ECPInt.
 ECPInt:  NShTT=    8256 NPrTT=   29630 LenC2=    7925 LenP2D=   21207.
 LDataN:  DoStor=T MaxTD1= 4 Len=   56
 NBasis=   266 RedAO= T EigKep=  2.43D-04  NBF=   266
 NBsUse=   266 1.00D-06 EigRej= -1.00D+00 NBFU=   266
 ExpMin= 1.22D-01 ExpMax= 9.18D+03 ExpMxC= 1.38D+03 IAcc=3 IRadAn=         5 AccDes= 0.00D+00
 Harris functional with IExCor= 1009 and IRadAn=       5 diagonalized for initial guess.
 HarFok:  IExCor= 1009 AccDes= 0.00D+00 IRadAn=         5 IDoV= 1 UseB2=F ITyADJ=14
 ICtDFT=  3500011 ScaDFX=  1.000000  1.000000  1.000000  1.000000
 FoFCou: FMM=F IPFlag=           0 FMFlag=      100000 FMFlg1=           0
         NFxFlg=           0 DoJE=T BraDBF=F KetDBF=T FulRan=T
         wScrn=  0.000000 ICntrl=       500 IOpCl=  0 I1Cent=   200000004 NGrid=           0
         NMat0=    1 NMatS0=      1 NMatT0=    0 NMatD0=    1 NMtDS0=    0 NMtDT0=    0
 Petite list used in FoFCou.
 Requested convergence on RMS density matrix=1.00D-08 within 128 cycles.
 Requested convergence on MAX density matrix=1.00D-06.
 Requested convergence on             energy=1.00D-06.
 No special actions if energy rises.
 Integral accuracy reduced to 1.0D-05 until final iterations.
 Initial convergence to 1.0D-05 achieved.  Increase integral accuracy.
 SCF Done:  E(RPBE1PBE) =  -897.069528318     A.U. after   14 cycles
            NFock= 14  Conv=0.95D-08     -V/T= 2.0065

 **********************************************************************

            Population analysis using the SCF Density.

 **********************************************************************

 Orbital symmetries:
       Occupied  (A) (A) (A) (A) (A) (A) (A) (A) (A) (A) (A) (A)
                 (A) (A) (A) (A) (A) (A) (A) (A) (A) (A) (A) (A)
                 (A) (A) (A) (A) (A) (A) (A) (A) (A) (A) (A) (A)
                 (A) (A) (A) (A) (A) (A) (A) (A) (A) (A) (A) (A)
                 (A) (A) (A) (A) (A)
       Virtual   (A) (A) (A) (A) (A) (A) (A) (A) (A) (A) (A) (A)
                 (A) (A) (A) (A) (A) (A) (A) (A) (A) (A) (A) (A)
                 (A) (A) (A) (A) (A) (A) (A) (A) (A) (A) (A) (A)
                 (A) (A) (A) (A) (A) (A) (A) (A) (A) (A) (A) (A)
                 (A) (A) (A) (A) (A) (A) (A) (A) (A) (A) (A) (A)
                 (A) (A) (A) (A) (A) (A) (A) (A) (A) (A) (A) (A)
                 (A) (A) (A) (A) (A) (A) (A) (A) (A) (A) (A) (A)
                 (A) (A) (A) (A) (A) (A) (A) (A) (A) (A) (A) (A)
                 (A) (A) (A) (A) (A) (A) (A) (A) (A) (A) (A) (A)
                 (A) (A) (A) (A) (A) (A) (A) (A) (A) (A) (A) (A)
                 (A) (A) (A) (A) (A) (A) (A) (A) (A) (A) (A) (A)
                 (A) (A) (A) (A) (A) (A) (A) (A) (A) (A) (A) (A)
                 (A) (A) (A) (A) (A) (A) (A) (A) (A) (A) (A) (A)
                 (A) (A) (A) (A) (A) (A) (A) (A) (A) (A) (A) (A)
                 (A) (A) (A) (A) (A) (A) (A) (A) (A) (A) (A) (A)
                 (A) (A) (A) (A) (A) (A) (A) (A) (A) (A) (A) (A)
                 (A) (A) (A) (A) (A) (A) (A) (A) (A) (A) (A) (A)
                 (A) (A) (A) (A) (A) (A) (A) (A) (A)
 The electronic state is 1-A.
 Alpha  occ. eigenvalues --  -89.17282 -14.34427 -14.32781 -10.25829 -10.25821
 Alpha  occ. eigenvalues --  -10.25691 -10.25417 -10.25156 -10.24755 -10.24708
 Alpha  occ. eigenvalues --  -10.24408 -10.24065 -10.23002  -8.14749  -6.08861
 Alpha  occ. eigenvalues --   -6.08799  -6.08746  -1.00001  -0.89859  -0.84513
 Alpha  occ. eigenvalues --   -0.82412  -0.81011  -0.78058  -0.73369  -0.71702
 Alpha  occ. eigenvalues --   -0.65271  -0.64080  -0.61472  -0.58988  -0.55154
 Alpha  occ. eigenvalues --   -0.51957  -0.50435  -0.49543  -0.48744  -0.47284
 Alpha  occ. eigenvalues --   -0.45444  -0.45187  -0.44949  -0.43716  -0.42942
 Alpha  occ. eigenvalues --   -0.41203  -0.39812  -0.38471  -0.37044  -0.36795
 Alpha  occ. eigenvalues --   -0.36495  -0.36243  -0.29879  -0.28359  -0.27586
 Alpha  occ. eigenvalues --   -0.27348  -0.24999  -0.23479
 Alpha virt. eigenvalues --   -0.02778  -0.01934   0.05134   0.06168   0.07961
 Alpha virt. eigenvalues --    0.08055   0.09292   0.09616   0.10547   0.10962
 Alpha virt. eigenvalues --    0.11697   0.12122   0.13842   0.14335   0.14434
 Alpha virt. eigenvalues --    0.15230   0.15984   0.16332   0.17143   0.17639
 Alpha virt. eigenvalues --    0.19307   0.19883   0.21433   0.22511   0.23172
 Alpha virt. eigenvalues --    0.26356   0.29881   0.30377   0.31329   0.33445
 Alpha virt. eigenvalues --    0.34501   0.39528   0.40473   0.41829   0.42241
 Alpha virt. eigenvalues --    0.43705   0.44339   0.44879   0.45440   0.45778
 Alpha virt. eigenvalues --    0.47018   0.47334   0.49079   0.50291   0.52914
 Alpha virt. eigenvalues --    0.53548   0.54473   0.56864   0.58669   0.60666
 Alpha virt. eigenvalues --    0.61363   0.62201   0.63005   0.63869   0.64932
 Alpha virt. eigenvalues --    0.65084   0.65783   0.66344   0.66654   0.67341
 Alpha virt. eigenvalues --    0.67938   0.68513   0.68673   0.69175   0.69403
 Alpha virt. eigenvalues --    0.69763   0.70370   0.70802   0.71065   0.72012
 Alpha virt. eigenvalues --    0.72872   0.74318   0.74873   0.75632   0.76968
 Alpha virt. eigenvalues --    0.78069   0.78936   0.80123   0.81519   0.82846
 Alpha virt. eigenvalues --    0.83456   0.84045   0.86561   0.88924   0.89310
 Alpha virt. eigenvalues --    0.90911   0.92631   0.94237   0.96559   0.99198
 Alpha virt. eigenvalues --    0.99646   1.02684   1.04590   1.07423   1.08466
 Alpha virt. eigenvalues --    1.09929   1.11871   1.13300   1.15091   1.16139
 Alpha virt. eigenvalues --    1.21098   1.22881   1.24207   1.24747   1.25234
 Alpha virt. eigenvalues --    1.26850   1.27926   1.30682   1.32675   1.35214
 Alpha virt. eigenvalues --    1.35944   1.38960   1.41896   1.46464   1.47918
 Alpha virt. eigenvalues --    1.48324   1.51212   1.52024   1.54285   1.54825
 Alpha virt. eigenvalues --    1.56108   1.57229   1.63317   1.68779   1.70068
 Alpha virt. eigenvalues --    1.71774   1.72740   1.73500   1.73775   1.75025
 Alpha virt. eigenvalues --    1.76062   1.76775   1.77696   1.78914   1.79799
 Alpha virt. eigenvalues --    1.80337   1.80498   1.81349   1.82426   1.84466
 Alpha virt. eigenvalues --    1.84626   1.85646   1.86383   1.87709   1.88903
 Alpha virt. eigenvalues --    1.90342   1.92846   1.94570   1.97311   1.97514
 Alpha virt. eigenvalues --    1.98858   1.99670   2.03709   2.04657   2.06149
 Alpha virt. eigenvalues --    2.08831   2.10533   2.12120   2.14096   2.15851
 Alpha virt. eigenvalues --    2.17384   2.18037   2.20814   2.23322   2.24481
 Alpha virt. eigenvalues --    2.27289   2.28950   2.31107   2.32361   2.35205
 Alpha virt. eigenvalues --    2.36474   2.37245   2.38958   2.39603   2.42772
 Alpha virt. eigenvalues --    2.43172   2.45641   2.49288   2.49615   2.51368
 Alpha virt. eigenvalues --    2.52660   2.57765   2.59472   2.60437   2.60660
 Alpha virt. eigenvalues --    2.61231   2.63074   2.65335   2.65882   2.66890
 Alpha virt. eigenvalues --    2.67492   2.76082   2.76937   2.77556   2.84632
 Alpha virt. eigenvalues --    2.86575   2.88285   2.89873   2.92084   2.92896
 Alpha virt. eigenvalues --    2.95972   2.96338   2.96735   2.97914   3.00480
 Alpha virt. eigenvalues --    3.01910   3.07221   3.10788   3.16183   3.25674
 Alpha virt. eigenvalues --    3.28218   3.33118   3.61310
          Condensed to atoms (all electrons):
               1          2          3          4          5          6
     1  N    6.893705   0.382109  -0.073710   0.007279   0.001477  -0.000072
     2  S    0.382109  14.683935   0.076051  -0.052249  -0.000360   0.000477
     3  C   -0.073710   0.076051   5.993038   0.155361   0.119739  -0.210689
     4  C    0.007279  -0.052249   0.155361   5.135149   0.287896   0.111366
     5  C    0.001477  -0.000360   0.119739   0.287896   5.090441   0.258052
     6  C   -0.000072   0.000477  -0.210689   0.111366   0.258052   5.323575
     7  C    0.000000   0.000011   0.000795   0.009544  -0.080516   0.413574
     8  C    0.000036   0.003927   0.106696  -0.123891   0.059646   0.276419
     9  C   -0.001330  -0.025466   0.222560   0.063362  -0.134038   0.109521
    10  C   -0.103067   0.238332  -0.117246  -0.004635  -0.000814  -0.000100
    11  C    0.007779  -0.049179  -0.003638   0.001044   0.000090  -0.000002
    12  C   -0.000216  -0.003379   0.003599   0.000678  -0.000064   0.000026
    13  N   -0.060815   0.352758  -0.062367   0.005065  -0.000005  -0.000022
    14  H    0.331901  -0.015893   0.001346  -0.001768  -0.000091   0.000003
    15  H    0.018933  -0.007730  -0.084121   0.446582  -0.052405   0.014638
    16  H   -0.000005  -0.000146   0.017940  -0.069822   0.459285  -0.081377
    17  H   -0.000000  -0.000000   0.000105  -0.000168  -0.003664  -0.015119
    18  H    0.000000  -0.000000   0.000054   0.000628  -0.007732  -0.019759
    19  H    0.000000  -0.000000   0.000017  -0.000545   0.008529  -0.018362
    20  H    0.000003  -0.000124   0.018776  -0.002380   0.015731  -0.077909
    21  H   -0.000123  -0.006569  -0.085817   0.017176  -0.002227   0.015196
    22  H    0.019480  -0.007947   0.007478   0.000501  -0.000007   0.000006
    23  H    0.001550  -0.014096   0.007217   0.002248   0.000401   0.000051
    24  H   -0.000273   0.005425  -0.000519  -0.000049   0.000002  -0.000001
    25  H    0.000119  -0.007671   0.003252  -0.000195   0.000009   0.000002
    26  H    0.000006  -0.000015   0.000033   0.000021  -0.000003  -0.000000
    27  H    0.000008  -0.001335   0.000583   0.000169   0.000132  -0.000005
    28  H    0.000200   0.006928   0.000240  -0.001957   0.000217  -0.000496
    29  H    0.004254   0.001088  -0.005819  -0.001041  -0.000033  -0.000010
               7          8          9         10         11         12
     1  N    0.000000   0.000036  -0.001330  -0.103067   0.007779  -0.000216
     2  S    0.000011   0.003927  -0.025466   0.238332  -0.049179  -0.003379
     3  C    0.000795   0.106696   0.222560  -0.117246  -0.003638   0.003599
     4  C    0.009544  -0.123891   0.063362  -0.004635   0.001044   0.000678
     5  C   -0.080516   0.059646  -0.134038  -0.000814   0.000090  -0.000064
     6  C    0.413574   0.276419   0.109521  -0.000100  -0.000002   0.000026
     7  C    4.565642  -0.078773   0.010997  -0.000000  -0.000000  -0.000000
     8  C   -0.078773   5.098165   0.262230  -0.000012   0.000075  -0.000428
     9  C    0.010997   0.262230   5.113682   0.005618   0.000508  -0.004972
    10  C   -0.000000  -0.000012   0.005618   5.220227   0.315485  -0.060594
    11  C   -0.000000   0.000075   0.000508   0.315485   4.755309   0.414284
    12  C   -0.000000  -0.000428  -0.004972  -0.060594   0.414284   4.608507
    13  N   -0.000000   0.000940   0.006445  -0.054922   0.004662  -0.003042
    14  H   -0.000000  -0.000050   0.000587   0.009003  -0.000597   0.000024
    15  H   -0.000244  -0.001829   0.013960  -0.000049   0.000638  -0.000003
    16  H   -0.013508   0.015397  -0.002147   0.000032   0.000000  -0.000003
    17  H    0.386140  -0.001632  -0.000495   0.000000   0.000000   0.000000
    18  H    0.389522   0.006718  -0.000585  -0.000000  -0.000000   0.000000
    19  H    0.390375  -0.010523   0.000673   0.000000  -0.000000  -0.000000
    20  H   -0.015604   0.456518  -0.070359   0.000004   0.000002  -0.000021
    21  H   -0.000287  -0.047184   0.425177   0.002111  -0.000115  -0.000719
    22  H    0.000000  -0.000002  -0.000186   0.338475  -0.006830   0.007126
    23  H   -0.000001  -0.000062  -0.000463   0.345214  -0.018713  -0.009564
    24  H   -0.000000   0.000000  -0.000051  -0.009717   0.369164  -0.019537
    25  H    0.000000  -0.000030  -0.000037  -0.040802   0.374624  -0.029510
    26  H    0.000000   0.000023   0.000124   0.007848  -0.015309   0.381985
    27  H   -0.000001   0.000128  -0.000187  -0.006924  -0.023757   0.393022
    28  H   -0.000007   0.001001   0.001041  -0.014065  -0.024412   0.393620
    29  H   -0.000000   0.001070   0.002634  -0.005769   0.001881  -0.000379
              13         14         15         16         17         18
     1  N   -0.060815   0.331901   0.018933  -0.000005  -0.000000   0.000000
     2  S    0.352758  -0.015893  -0.007730  -0.000146  -0.000000  -0.000000
     3  C   -0.062367   0.001346  -0.084121   0.017940   0.000105   0.000054
     4  C    0.005065  -0.001768   0.446582  -0.069822  -0.000168   0.000628
     5  C   -0.000005  -0.000091  -0.052405   0.459285  -0.003664  -0.007732
     6  C   -0.000022   0.000003   0.014638  -0.081377  -0.015119  -0.019759
     7  C   -0.000000  -0.000000  -0.000244  -0.013508   0.386140   0.389522
     8  C    0.000940  -0.000050  -0.001829   0.015397  -0.001632   0.006718
     9  C    0.006445   0.000587   0.013960  -0.002147  -0.000495  -0.000585
    10  C   -0.054922   0.009003  -0.000049   0.000032   0.000000  -0.000000
    11  C    0.004662  -0.000597   0.000638   0.000000   0.000000  -0.000000
    12  C   -0.003042   0.000024  -0.000003  -0.000003   0.000000   0.000000
    13  N    6.858386   0.002963   0.000585   0.000001  -0.000000   0.000000
    14  H    0.002963   0.546876  -0.000467   0.000001   0.000000  -0.000000
    15  H    0.000585  -0.000467   0.633833  -0.011939   0.000002  -0.000001
    16  H    0.000001   0.000001  -0.011939   0.674865   0.001230   0.004574
    17  H   -0.000000   0.000000   0.000002   0.001230   0.603588  -0.018900
    18  H    0.000000  -0.000000  -0.000001   0.004574  -0.018900   0.618060
    19  H    0.000000  -0.000000   0.000010   0.000126  -0.018669  -0.022190
    20  H   -0.000001  -0.000000   0.000029  -0.000266   0.000613   0.000196
    21  H    0.017414   0.000049  -0.000184   0.000043   0.000009   0.000011
    22  H    0.001361  -0.000666  -0.000240  -0.000003  -0.000000   0.000000
    23  H    0.002154  -0.000528   0.001631  -0.000010   0.000000   0.000000
    24  H    0.000105   0.000015  -0.000004   0.000000   0.000000   0.000000
    25  H    0.022439  -0.000057  -0.000029  -0.000000   0.000000  -0.000000
    26  H    0.000010  -0.000001   0.000002  -0.000000  -0.000000   0.000000
    27  H    0.000092  -0.000001  -0.000077   0.000004   0.000000  -0.000000
    28  H    0.001009  -0.000014  -0.000053   0.000005   0.000000   0.000000
    29  H    0.310676  -0.000162  -0.000126   0.000000  -0.000000  -0.000000
              19         20         21         22         23         24
     1  N    0.000000   0.000003  -0.000123   0.019480   0.001550  -0.000273
     2  S   -0.000000  -0.000124  -0.006569  -0.007947  -0.014096   0.005425
     3  C    0.000017   0.018776  -0.085817   0.007478   0.007217  -0.000519
     4  C   -0.000545  -0.002380   0.017176   0.000501   0.002248  -0.000049
     5  C    0.008529   0.015731  -0.002227  -0.000007   0.000401   0.000002
     6  C   -0.018362  -0.077909   0.015196   0.000006   0.000051  -0.000001
     7  C    0.390375  -0.015604  -0.000287   0.000000  -0.000001  -0.000000
     8  C   -0.010523   0.456518  -0.047184  -0.000002  -0.000062   0.000000
     9  C    0.000673  -0.070359   0.425177  -0.000186  -0.000463  -0.000051
    10  C    0.000000   0.000004   0.002111   0.338475   0.345214  -0.009717
    11  C   -0.000000   0.000002  -0.000115  -0.006830  -0.018713   0.369164
    12  C   -0.000000  -0.000021  -0.000719   0.007126  -0.009564  -0.019537
    13  N    0.000000  -0.000001   0.017414   0.001361   0.002154   0.000105
    14  H   -0.000000  -0.000000   0.000049  -0.000666  -0.000528   0.000015
    15  H    0.000010   0.000029  -0.000184  -0.000240   0.001631  -0.000004
    16  H    0.000126  -0.000266   0.000043  -0.000003  -0.000010   0.000000
    17  H   -0.018669   0.000613   0.000009  -0.000000   0.000000   0.000000
    18  H   -0.022190   0.000196   0.000011   0.000000   0.000000   0.000000
    19  H    0.622508   0.006097   0.000002  -0.000000  -0.000000  -0.000000
    20  H    0.006097   0.676696  -0.012677  -0.000000   0.000001   0.000000
    21  H    0.000002  -0.012677   0.672312  -0.000031  -0.000261  -0.000000
    22  H   -0.000000  -0.000000  -0.000031   0.573821  -0.008229  -0.009417
    23  H   -0.000000   0.000001  -0.000261  -0.008229   0.610117  -0.004325
    24  H   -0.000000   0.000000  -0.000000  -0.009417  -0.004325   0.643854
    25  H   -0.000000  -0.000000  -0.000530  -0.000904   0.009613  -0.022873
    26  H    0.000000  -0.000001   0.000040  -0.000310   0.000180  -0.007344
    27  H   -0.000000  -0.000001   0.000044   0.000006   0.007573  -0.008155
    28  H    0.000001   0.000151   0.001629  -0.000175  -0.000775   0.008800
    29  H    0.000000  -0.000003   0.001681  -0.000107   0.000283   0.000099
              25         26         27         28         29
     1  N    0.000119   0.000006   0.000008   0.000200   0.004254
     2  S   -0.007671  -0.000015  -0.001335   0.006928   0.001088
     3  C    0.003252   0.000033   0.000583   0.000240  -0.005819
     4  C   -0.000195   0.000021   0.000169  -0.001957  -0.001041
     5  C    0.000009  -0.000003   0.000132   0.000217  -0.000033
     6  C    0.000002  -0.000000  -0.000005  -0.000496  -0.000010
     7  C    0.000000   0.000000  -0.000001  -0.000007  -0.000000
     8  C   -0.000030   0.000023   0.000128   0.001001   0.001070
     9  C   -0.000037   0.000124  -0.000187   0.001041   0.002634
    10  C   -0.040802   0.007848  -0.006924  -0.014065  -0.005769
    11  C    0.374624  -0.015309  -0.023757  -0.024412   0.001881
    12  C   -0.029510   0.381985   0.393022   0.393620  -0.000379
    13  N    0.022439   0.000010   0.000092   0.001009   0.310676
    14  H   -0.000057  -0.000001  -0.000001  -0.000014  -0.000162
    15  H   -0.000029   0.000002  -0.000077  -0.000053  -0.000126
    16  H   -0.000000  -0.000000   0.000004   0.000005   0.000000
    17  H    0.000000  -0.000000   0.000000   0.000000  -0.000000
    18  H   -0.000000   0.000000  -0.000000   0.000000  -0.000000
    19  H   -0.000000   0.000000  -0.000000   0.000001   0.000000
    20  H   -0.000000  -0.000001  -0.000001   0.000151  -0.000003
    21  H   -0.000530   0.000040   0.000044   0.001629   0.001681
    22  H   -0.000904  -0.000310   0.000006  -0.000175  -0.000107
    23  H    0.009613   0.000180   0.007573  -0.000775   0.000283
    24  H   -0.022873  -0.007344  -0.008155   0.008800   0.000099
    25  H    0.646255  -0.005137   0.007754  -0.009344   0.001801
    26  H   -0.005137   0.631255  -0.021066  -0.018949   0.000030
    27  H    0.007754  -0.021066   0.634486  -0.024276  -0.000038
    28  H   -0.009344  -0.018949  -0.024276   0.644543   0.004376
    29  H    0.001801   0.000030  -0.000038   0.004376   0.565917
 Mulliken charges:
               1
     1  N   -0.429226
     2  S    0.441119
     3  C   -0.090955
     4  C    0.014632
     5  C   -0.019688
     6  C   -0.098985
     7  C    0.022344
     8  C   -0.024575
     9  C    0.001197
    10  C   -0.063632
    11  C   -0.102992
    12  C   -0.070440
    13  N   -0.405888
    14  H    0.127528
    15  H    0.028656
    16  H    0.005724
    17  H    0.066959
    18  H    0.049403
    19  H    0.041952
    20  H    0.004529
    21  H    0.003833
    22  H    0.086798
    23  H    0.068796
    24  H    0.054798
    25  H    0.051253
    26  H    0.046578
    27  H    0.041822
    28  H    0.030763
    29  H    0.117697
 Sum of Mulliken charges =  -0.00000
 Mulliken charges with hydrogens summed into heavy atoms:
               1
     1  N   -0.301698
     2  S    0.441119
     3  C   -0.090955
     4  C    0.043288
     5  C   -0.013964
     6  C   -0.098985
     7  C    0.180658
     8  C   -0.020046
     9  C    0.005030
    10  C    0.091961
    11  C    0.003059
    12  C    0.048723
    13  N   -0.288191
 Electronic spatial extent (au):  <R**2>=           3031.7038
 Charge=             -0.0000 electrons
 Dipole moment (field-independent basis, Debye):
    X=             -3.2166    Y=              3.3094    Z=             -0.7344  Tot=              4.6731
 Quadrupole moment (field-independent basis, Debye-Ang):
   XX=            -83.3420   YY=            -89.8511   ZZ=            -85.0550
   XY=              7.2929   XZ=             -2.5970   YZ=              0.8571
 Traceless Quadrupole moment (field-independent basis, Debye-Ang):
   XX=              2.7407   YY=             -3.7684   ZZ=              1.0277
   XY=              7.2929   XZ=             -2.5970   YZ=              0.8571
 Octapole moment (field-independent basis, Debye-Ang**2):
  XXX=            -38.3308  YYY=             -4.2130  ZZZ=             -2.9805  XYY=              3.0022
  XXY=             20.6929  XXZ=            -13.0387  XZZ=            -10.2320  YZZ=             10.4380
  YYZ=              7.7560  XYZ=             -4.4089
 Hexadecapole moment (field-independent basis, Debye-Ang**3):
 XXXX=          -2655.8108 YYYY=           -796.5590 ZZZZ=           -504.2351 XXXY=             32.9745
 XXXZ=            -30.4002 YYYX=             -2.1215 YYYZ=            -28.2644 ZZZX=             -5.1367
 ZZZY=             21.0909 XXYY=           -609.6763 XXZZ=           -542.7941 YYZZ=           -236.4123
 XXYZ=             11.0119 YYXZ=             13.0008 ZZXY=             18.3640
 N-N= 9.401985684672D+02 E-N=-3.981477199083D+03  KE= 8.912620450279D+02
   1 Symmetry operations used in ECPInt.
 ECPInt:  NShTT=    8256 NPrTT=   29630 LenC2=    7925 LenP2D=   21207.
 LDataN:  DoStor=T MaxTD1= 5 Len=  102
 Calling FoFJK, ICntrl=      2127 FMM=F ISym2X=0 I1Cent= 0 IOpClX= 0 NMat=1 NMatS=1 NMatT=0.
 ***** Axes restored to original set *****
 -------------------------------------------------------------------
 Center     Atomic                   Forces (Hartrees/Bohr)
 Number     Number              X              Y              Z
 -------------------------------------------------------------------
      1        7          -0.004013738    0.011880233    0.020150237
      2       16          -0.002290909   -0.001000892    0.011131096
      3        6          -0.012159031   -0.001573049   -0.003693341
      4        6           0.000662768   -0.000170607    0.002456189
      5        6          -0.002426968   -0.000193115   -0.001318876
      6        6           0.009129363    0.002647477   -0.000823863
      7        6          -0.008323482   -0.002446027    0.000147648
      8        6          -0.001511791   -0.000310136    0.001363044
      9        6          -0.001857567   -0.001579406   -0.001560501
     10        6          -0.000214692   -0.002620950   -0.013098072
     11        6           0.015550403   -0.000403392   -0.000690766
     12        6          -0.011412985   -0.003274489    0.003006730
     13        7          -0.003833265   -0.004958665   -0.005045832
     14        1           0.005641035   -0.009140319   -0.008422215
     15        1          -0.003894366   -0.000961485    0.009295270
     16        1           0.004164315    0.002061859    0.007962276
     17        1           0.005978734   -0.005541676    0.001773719
     18        1           0.003008031    0.005854164    0.004768969
     19        1           0.003465715    0.002648845   -0.006768618
     20        1           0.004354307    0.000267006   -0.007973467
     21        1          -0.004458514   -0.002298475   -0.007694732
     22        1          -0.003884398   -0.006615457    0.004061058
     23        1           0.005353014    0.003596628    0.006629777
     24        1          -0.004909489    0.001951807    0.003204521
     25        1          -0.005774619   -0.002919443   -0.003089938
     26        1          -0.001398904    0.005443185   -0.006552603
     27        1           0.005720994    0.004555926    0.004398145
     28        1           0.005954498   -0.003562898   -0.004170267
     29        1           0.003381540    0.008663350   -0.009445589
 -------------------------------------------------------------------
 Cartesian Forces:  Max     0.020150237 RMS     0.005936972

 GradGradGradGradGradGradGradGradGradGradGradGradGradGradGradGradGradGrad
 Berny optimization.
 FormGI is forming the generalized inverse of G from B-inverse, IUseBI=4.
 Internal  Forces:  Max     0.013134411 RMS     0.004375964
 Search for a local minimum.
 Step number   1 out of a maximum of  158
 All quantities printed in internal units (Hartrees-Bohrs-Radians)
 Mixed Optimization -- RFO/linear search
 Second derivative matrix not updated -- first step.
 ITU=  0
     Eigenvalues ---    0.00230   0.00230   0.00442   0.00561   0.00796
     Eigenvalues ---    0.01487   0.01662   0.02223   0.02257   0.02264
     Eigenvalues ---    0.02294   0.02317   0.02325   0.02334   0.03522
     Eigenvalues ---    0.03605   0.03697   0.03721   0.04845   0.04962
     Eigenvalues ---    0.05599   0.05666   0.06659   0.07241   0.07432
     Eigenvalues ---    0.07956   0.08245   0.08336   0.09265   0.12044
     Eigenvalues ---    0.12186   0.15997   0.15999   0.16000   0.16000
     Eigenvalues ---    0.16000   0.16000   0.16000   0.16000   0.16000
     Eigenvalues ---    0.16000   0.16000   0.16000   0.16541   0.19381
     Eigenvalues ---    0.21945   0.21998   0.22008   0.22560   0.22972
     Eigenvalues ---    0.23615   0.23988   0.24964   0.24990   0.29937
     Eigenvalues ---    0.30807   0.32616   0.34459   0.34463   0.34777
     Eigenvalues ---    0.34989   0.35064   0.35078   0.35141   0.35147
     Eigenvalues ---    0.35153   0.35267   0.35930   0.35931   0.35933
     Eigenvalues ---    0.36054   0.43476   0.43631   0.46521   0.46726
     Eigenvalues ---    0.47450   0.48138   0.48477   0.48836   0.67058
     Eigenvalues ---    0.68826
 RFO step:  Lambda=-1.03924755D-02 EMin= 2.30000000D-03
 Linear search not attempted -- first point.
 Iteration  1 RMS(Cart)=  0.05524895 RMS(Int)=  0.00115400
 Iteration  2 RMS(Cart)=  0.00151834 RMS(Int)=  0.00019668
 Iteration  3 RMS(Cart)=  0.00000215 RMS(Int)=  0.00019668
 Iteration  4 RMS(Cart)=  0.00000000 RMS(Int)=  0.00019668
 Variable       Old X    -DE/DX   Delta X   Delta X   Delta X     New X
                                 (Linear)    (Quad)   (Total)
    R1        2.88271   0.00716   0.00000   0.01024   0.01024   2.89295
    R2        1.90022   0.01124   0.00000   0.02353   0.02353   1.92375
    R3        3.46566  -0.00401   0.00000  -0.01626  -0.01626   3.44941
    R4        3.49549  -0.00751   0.00000  -0.03182  -0.03182   3.46367
    R5        2.89457   0.01152   0.00000   0.01692   0.01692   2.91149
    R6        2.61211   0.01138   0.00000   0.02304   0.02304   2.63516
    R7        2.60868   0.00879   0.00000   0.01764   0.01765   2.62633
    R8        2.61171   0.00895   0.00000   0.01804   0.01804   2.62975
    R9        2.03998   0.01005   0.00000   0.02710   0.02710   2.06708
   R10        2.63085   0.01063   0.00000   0.02206   0.02205   2.65291
   R11        2.04191   0.00921   0.00000   0.02492   0.02492   2.06683
   R12        2.83031   0.00413   0.00000   0.01227   0.01227   2.84258
   R13        2.62559   0.01003   0.00000   0.02053   0.02052   2.64611
   R14        2.06039   0.00817   0.00000   0.02280   0.02280   2.08319
   R15        2.05571   0.00799   0.00000   0.02214   0.02214   2.07785
   R16        2.05427   0.00792   0.00000   0.02189   0.02189   2.07616
   R17        2.61679   0.00960   0.00000   0.01941   0.01941   2.63620
   R18        2.04189   0.00909   0.00000   0.02458   0.02458   2.06647
   R19        2.04187   0.00919   0.00000   0.02484   0.02484   2.06671
   R20        2.86383   0.00272   0.00000   0.00854   0.00854   2.87237
   R21        2.05437   0.00744   0.00000   0.02056   0.02056   2.07493
   R22        2.05243   0.00908   0.00000   0.02502   0.02502   2.07745
   R23        2.88090   0.00219   0.00000   0.00707   0.00707   2.88797
   R24        2.06555   0.00562   0.00000   0.01583   0.01583   2.08138
   R25        2.06562   0.00663   0.00000   0.01868   0.01868   2.08430
   R26        2.05549   0.00845   0.00000   0.02340   0.02340   2.07889
   R27        2.05692   0.00838   0.00000   0.02325   0.02325   2.08017
   R28        2.05447   0.00782   0.00000   0.02163   0.02163   2.07610
   R29        1.90248   0.01313   0.00000   0.02762   0.02762   1.93010
    A1        1.99193  -0.01285   0.00000  -0.07543  -0.07543   1.91650
    A2        1.92432  -0.00182   0.00000  -0.00760  -0.00725   1.91706
    A3        1.76768  -0.00188   0.00000   0.00403   0.00402   1.77169
    A4        2.00187   0.00805   0.00000   0.06673   0.06704   2.06891
    A5        1.76343   0.00443   0.00000   0.00244   0.00172   1.76515
    A6        1.96746  -0.00577   0.00000  -0.04645  -0.04682   1.92064
    A7        2.01598  -0.00318   0.00000  -0.02239  -0.02339   1.99259
    A8        2.05677   0.00218   0.00000   0.00785   0.00774   2.06451
    A9        2.12176  -0.00294   0.00000  -0.01184  -0.01193   2.10983
   A10        2.10341   0.00073   0.00000   0.00284   0.00277   2.10618
   A11        2.08818  -0.00126   0.00000  -0.00506  -0.00505   2.08313
   A12        2.07738   0.00169   0.00000   0.00874   0.00873   2.08611
   A13        2.11744  -0.00044   0.00000  -0.00376  -0.00377   2.11367
   A14        2.10635   0.00159   0.00000   0.00679   0.00678   2.11313
   A15        2.09172  -0.00116   0.00000  -0.00554  -0.00555   2.08617
   A16        2.08510  -0.00043   0.00000  -0.00128  -0.00129   2.08381
   A17        2.09996   0.00104   0.00000   0.00423   0.00423   2.10419
   A18        2.07373  -0.00181   0.00000  -0.00752  -0.00752   2.06620
   A19        2.10918   0.00077   0.00000   0.00319   0.00319   2.11236
   A20        1.91731   0.00188   0.00000   0.01139   0.01134   1.92865
   A21        1.93404   0.00140   0.00000   0.00808   0.00804   1.94208
   A22        1.93820   0.00130   0.00000   0.00744   0.00741   1.94560
   A23        1.88202  -0.00159   0.00000  -0.00889  -0.00894   1.87308
   A24        1.88779  -0.00160   0.00000  -0.00915  -0.00919   1.87860
   A25        1.90301  -0.00158   0.00000  -0.00988  -0.00991   1.89310
   A26        2.10618   0.00139   0.00000   0.00548   0.00548   2.11167
   A27        2.08864  -0.00073   0.00000  -0.00294  -0.00294   2.08570
   A28        2.08836  -0.00066   0.00000  -0.00254  -0.00255   2.08581
   A29        2.08804  -0.00064   0.00000  -0.00279  -0.00278   2.08526
   A30        2.09103   0.00034   0.00000   0.00149   0.00149   2.09252
   A31        2.10406   0.00030   0.00000   0.00128   0.00128   2.10533
   A32        1.95910   0.00302   0.00000   0.01348   0.01333   1.97243
   A33        1.80271  -0.00457   0.00000  -0.04448  -0.04443   1.75828
   A34        1.86385   0.00000   0.00000   0.00932   0.00901   1.87285
   A35        1.95628   0.00160   0.00000   0.00987   0.00991   1.96620
   A36        1.95908  -0.00048   0.00000   0.01253   0.01224   1.97132
   A37        1.91448   0.00006   0.00000  -0.00517  -0.00529   1.90920
   A38        1.96288   0.00914   0.00000   0.04622   0.04599   2.00887
   A39        1.90420  -0.00454   0.00000  -0.03066  -0.03084   1.87336
   A40        1.89185  -0.00247   0.00000  -0.00445  -0.00524   1.88661
   A41        1.90593  -0.00116   0.00000   0.00029   0.00074   1.90667
   A42        1.91899  -0.00173   0.00000   0.00601   0.00565   1.92464
   A43        1.87802   0.00038   0.00000  -0.02059  -0.02088   1.85714
   A44        1.92633   0.00177   0.00000   0.01101   0.01095   1.93728
   A45        1.92938   0.00131   0.00000   0.00770   0.00765   1.93703
   A46        1.93944   0.00215   0.00000   0.01199   0.01194   1.95138
   A47        1.89100  -0.00141   0.00000  -0.00703  -0.00708   1.88392
   A48        1.89094  -0.00207   0.00000  -0.01221  -0.01227   1.87867
   A49        1.88532  -0.00198   0.00000  -0.01278  -0.01281   1.87250
   A50        2.00679  -0.00307   0.00000  -0.01801  -0.01801   1.98878
    D1       -1.61788   0.00430   0.00000   0.05257   0.05240  -1.56549
    D2        2.80895   0.00077   0.00000   0.05048   0.05103   2.85998
    D3        0.62548   0.00146   0.00000   0.03753   0.03716   0.66264
    D4       -0.72569   0.00221   0.00000   0.03591   0.03596  -0.68972
    D5        2.36246   0.00160   0.00000   0.01133   0.01142   2.37388
    D6        1.13350   0.00152   0.00000   0.03908   0.03890   1.17240
    D7       -2.06154   0.00091   0.00000   0.01450   0.01436  -2.04717
    D8       -2.98767  -0.00246   0.00000  -0.01023  -0.01017  -2.99784
    D9        0.10047  -0.00307   0.00000  -0.03481  -0.03471   0.06577
   D10       -2.70263  -0.00241   0.00000  -0.00948  -0.00929  -2.71192
   D11       -0.59195  -0.00175   0.00000  -0.01815  -0.01803  -0.60998
   D12        1.42656  -0.00372   0.00000  -0.04009  -0.03996   1.38660
   D13        1.59979  -0.00126   0.00000  -0.00335  -0.00330   1.59649
   D14       -2.57272  -0.00059   0.00000  -0.01201  -0.01204  -2.58476
   D15       -0.55421  -0.00257   0.00000  -0.03396  -0.03397  -0.58818
   D16       -0.52866   0.00447   0.00000   0.06379   0.06369  -0.46497
   D17        1.58202   0.00513   0.00000   0.05513   0.05495   1.63697
   D18       -2.68266   0.00315   0.00000   0.03319   0.03302  -2.64964
   D19       -3.11613   0.00109   0.00000   0.02093   0.02130  -3.09483
   D20       -0.89458   0.00042   0.00000   0.02707   0.02619  -0.86839
   D21        1.12052  -0.00019   0.00000  -0.01902  -0.01851   1.10201
   D22        3.11975  -0.00037   0.00000  -0.01193  -0.01209   3.10766
   D23       -0.00163  -0.00018   0.00000  -0.00723  -0.00735  -0.00898
   D24        0.03102   0.00035   0.00000   0.01285   0.01286   0.04388
   D25       -3.09037   0.00055   0.00000   0.01755   0.01761  -3.07276
   D26       -3.11699   0.00039   0.00000   0.01647   0.01635  -3.10065
   D27        0.01334   0.00035   0.00000   0.01535   0.01526   0.02860
   D28       -0.03026  -0.00020   0.00000  -0.00863  -0.00864  -0.03890
   D29        3.10007  -0.00024   0.00000  -0.00975  -0.00973   3.09034
   D30       -0.00922  -0.00033   0.00000  -0.01096  -0.01098  -0.02021
   D31        3.13710  -0.00005   0.00000  -0.00213  -0.00214   3.13496
   D32        3.11169  -0.00051   0.00000  -0.01562  -0.01566   3.09603
   D33       -0.02518  -0.00022   0.00000  -0.00680  -0.00681  -0.03199
   D34       -3.12757   0.00030   0.00000   0.00935   0.00937  -3.11820
   D35       -0.01285   0.00021   0.00000   0.00499   0.00502  -0.00783
   D36        0.00931   0.00001   0.00000   0.00054   0.00052   0.00983
   D37        3.12403  -0.00008   0.00000  -0.00381  -0.00382   3.12021
   D38        1.39840  -0.00006   0.00000  -0.00300  -0.00301   1.39539
   D39       -0.67939  -0.00017   0.00000  -0.00427  -0.00429  -0.68368
   D40       -2.79721  -0.00000   0.00000  -0.00230  -0.00230  -2.79951
   D41       -1.71576   0.00006   0.00000   0.00161   0.00162  -1.71415
   D42        2.48962  -0.00004   0.00000   0.00034   0.00034   2.48996
   D43        0.37181   0.00012   0.00000   0.00231   0.00233   0.37414
   D44        0.01362  -0.00005   0.00000  -0.00068  -0.00066   0.01296
   D45       -3.12450  -0.00002   0.00000   0.00092   0.00091  -3.12359
   D46        3.12819  -0.00013   0.00000  -0.00504  -0.00501   3.12318
   D47       -0.00993  -0.00010   0.00000  -0.00344  -0.00344  -0.01337
   D48        0.00770   0.00003   0.00000   0.00242   0.00241   0.01010
   D49       -3.12255   0.00007   0.00000   0.00355   0.00350  -3.11905
   D50       -3.13736   0.00000   0.00000   0.00082   0.00083  -3.13653
   D51        0.01558   0.00004   0.00000   0.00195   0.00193   0.01750
   D52       -1.30282  -0.00171   0.00000  -0.03003  -0.03028  -1.33310
   D53        2.86290  -0.00309   0.00000  -0.03947  -0.03926   2.82364
   D54        0.82259   0.00032   0.00000   0.00438   0.00421   0.82679
   D55        2.96065   0.00105   0.00000   0.01086   0.01071   2.97137
   D56        0.84318  -0.00033   0.00000   0.00143   0.00173   0.84492
   D57       -1.19712   0.00308   0.00000   0.04527   0.04520  -1.15193
   D58        0.79683   0.00011   0.00000   0.00056   0.00043   0.79726
   D59       -1.32064  -0.00127   0.00000  -0.00887  -0.00855  -1.32919
   D60        2.92223   0.00214   0.00000   0.03497   0.03491   2.95715
   D61       -3.11971   0.00082   0.00000   0.02008   0.02014  -3.09957
   D62       -1.02793   0.00104   0.00000   0.02338   0.02344  -1.00449
   D63        1.06525   0.00084   0.00000   0.02026   0.02031   1.08556
   D64       -1.00322   0.00028   0.00000   0.01188   0.01201  -0.99122
   D65        1.08855   0.00050   0.00000   0.01518   0.01531   1.10386
   D66       -3.10145   0.00030   0.00000   0.01206   0.01218  -3.08927
   D67        1.05357  -0.00096   0.00000  -0.00943  -0.00960   1.04397
   D68       -3.13784  -0.00073   0.00000  -0.00613  -0.00630   3.13905
   D69       -1.04465  -0.00094   0.00000  -0.00925  -0.00943  -1.05409
         Item               Value     Threshold  Converged?
 Maximum Force            0.013134     0.000450     NO 
 RMS     Force            0.004376     0.000300     NO 
 Maximum Displacement     0.208502     0.001800     NO 
 RMS     Displacement     0.055254     0.001200     NO 
 Predicted change in Energy=-5.538996D-03
 GradGradGradGradGradGradGradGradGradGradGradGradGradGradGradGradGradGrad

                          Input orientation:                          
 ---------------------------------------------------------------------
 Center     Atomic      Atomic             Coordinates (Angstroms)
 Number     Number       Type             X           Y           Z
 ---------------------------------------------------------------------
      1          7           0       -1.635720   -1.800283    1.404544
      2         16           0       -1.446628   -0.869080    0.204248
      3          6           0        0.303017   -0.363403    0.082069
      4          6           0        0.993049   -0.080792    1.260423
      5          6           0        2.338901    0.267216    1.196140
      6          6           0        3.017205    0.314555   -0.032061
      7          6           0        4.479558    0.662980   -0.085231
      8          6           0        2.308988   -0.006921   -1.196458
      9          6           0        0.958139   -0.351129   -1.143569
     10          6           0       -2.219954    0.676406    0.814940
     11          6           0       -2.714801    1.576292   -0.305644
     12          6           0       -1.624890    2.356550   -1.039693
     13          7           0       -1.960518   -1.330009   -1.173139
     14          1           0       -1.493668   -2.766527    1.117268
     15          1           0        0.474835   -0.158979    2.220552
     16          1           0        2.881272    0.495534    2.118055
     17          1           0        5.095123   -0.214049    0.173865
     18          1           0        4.726231    1.459355    0.631673
     19          1           0        4.777885    0.994079   -1.089433
     20          1           0        2.823761    0.007533   -2.161137
     21          1           0        0.416020   -0.621543   -2.054104
     22          1           0       -3.038480    0.269240    1.423093
     23          1           0       -1.489133    1.170836    1.470675
     24          1           0       -3.433777    2.284547    0.135459
     25          1           0       -3.285319    0.955600   -1.016824
     26          1           0       -2.059846    3.015763   -1.805508
     27          1           0       -1.049455    2.982530   -0.340592
     28          1           0       -0.912173    1.687997   -1.541736
     29          1           0       -1.759902   -0.675189   -1.930866
 ---------------------------------------------------------------------
                    Distance matrix (angstroms):
                    1          2          3          4          5
     1  N    0.000000
     2  S    1.530884   0.000000
     3  C    2.751775   1.825347   0.000000
     4  C    3.144495   2.772892   1.394465   0.000000
     5  C    4.485041   4.074953   2.404924   1.391603   0.000000
     6  C    5.309057   4.624136   2.799905   2.433931   1.403857
     7  C    6.758973   6.127861   4.304062   3.810476   2.526055
     8  C    5.053917   4.099993   2.405334   2.788085   2.408437
     9  C    3.914209   2.804957   1.389793   2.419397   2.786233
    10  C    2.612078   1.832896   2.825542   3.330946   4.593028
    11  C    3.935788   2.801446   3.608319   4.352775   5.432213
    12  C    4.822207   3.461771   3.517573   4.252621   5.007585
    13  N    2.640284   1.540693   2.762873   4.025709   5.162327
    14  H    1.018005   2.106211   3.174070   3.662981   4.888599
    15  H    2.795388   2.874325   2.155092   1.093849   2.169286
    16  H    5.116941   4.924992   3.395646   2.152456   1.093720
    17  H    7.023884   6.574533   4.795311   4.245630   2.978829
    18  H    7.190062   6.611239   4.815530   4.087056   2.727483
    19  H    7.427160   6.624917   4.820749   4.582811   3.420646
    20  H    5.989094   4.959810   3.394660   3.881544   3.402034
    21  H    4.190621   2.937836   2.154678   3.407560   3.879619
    22  H    2.500202   2.305504   3.655706   4.049965   5.382169
    23  H    2.975468   2.401437   2.737502   2.787832   3.942809
    24  H    4.639981   3.728117   4.580188   5.143653   6.206326
    25  H    4.022324   2.863784   3.977875   4.956249   6.083003
    26  H    5.803329   4.416692   4.534847   5.320599   5.992777
    27  H    5.124891   3.910178   3.633605   4.014849   4.606021
    28  H    4.623006   3.142092   2.884731   3.822380   4.481525
    29  H    3.522246   2.166666   2.899094   4.256333   5.240847
                    6          7          8          9         10
     6  C    0.000000
     7  C    1.504229   0.000000
     8  C    1.400264   2.528827   0.000000
     9  C    2.432764   3.814301   1.395016   0.000000
    10  C    5.317536   6.759731   5.002397   3.871933   0.000000
    11  C    5.875604   7.255448   5.342150   4.231732   1.519993
    12  C    5.170505   6.406518   4.591946   3.743575   2.572285
    13  N    5.365108   6.828626   4.469876   3.078577   2.836453
    14  H    5.582293   6.991920   5.237265   4.117874   3.531669
    15  H    3.429599   4.693619   3.881134   3.404088   3.152063
    16  H    2.161997   2.727092   3.400878   3.879881   5.268143
    17  H    2.153965   1.102374   3.111789   4.343853   7.396907
    18  H    2.161453   1.099551   3.366763   4.541790   6.992574
    19  H    2.163280   1.098657   2.666253   4.050059   7.259292
    20  H    2.159779   2.735079   1.093529   2.155140   5.894361
    21  H    3.425069   4.694550   2.167174   1.093658   4.106635
    22  H    6.228230   7.677954   5.961018   4.790154   1.098006
    23  H    4.826854   6.189026   4.788156   3.890988   1.099340
    24  H    6.747155   8.080783   6.324886   5.279358   2.126306
    25  H    6.411124   7.826034   5.679347   4.441907   2.137361
    26  H    6.018147   7.159522   5.347362   4.569722   3.516387
    27  H    4.873500   6.001292   4.576948   3.973472   2.832584
    28  H    4.427807   5.678278   3.656206   2.795467   2.878807
    29  H    5.235055   6.642885   4.188293   2.848262   3.094819
                   11         12         13         14         15
    11  C    0.000000
    12  C    1.528246   0.000000
    13  N    3.125392   3.704210   0.000000
    14  H    4.730320   5.560182   2.743629   0.000000
    15  H    4.423417   4.622330   4.338133   3.448412   0.000000
    16  H    6.193415   5.808636   6.132495   5.548217   2.495963
    17  H    8.026840   7.296525   7.269240   7.128626   5.053614
    18  H    7.500747   6.628361   7.466627   7.535318   4.818497
    19  H    7.556034   6.546322   7.128427   7.638328   5.549935
    20  H    6.048102   5.154224   5.065026   6.089626   4.974372
    21  H    4.205905   3.750118   2.631722   4.278488   4.300012
    22  H    2.191275   3.524261   3.234195   3.419921   3.628043
    23  H    2.195897   2.779621   3.669629   3.953195   2.487548
    24  H    1.101419   2.158295   4.116787   5.499211   5.059217
    25  H    1.102962   2.172604   2.646420   4.649580   5.085435
    26  H    2.179595   1.100101   4.392664   6.503696   5.719507
    27  H    2.179932   1.100781   4.485662   5.947633   4.330357
    28  H    2.188577   1.098625   3.216092   5.220270   4.414740
    29  H    2.936383   3.162888   1.021365   3.706170   4.742867
                   16         17         18         19         20
    16  H    0.000000
    17  H    3.030597   0.000000
    18  H    2.557764   1.773682   0.000000
    19  H    3.759477   1.776551   1.783635   0.000000
    20  H    4.307312   3.265029   3.677902   2.437298   0.000000
    21  H    4.973151   5.198451   5.488301   4.750441   2.490865
    22  H    5.964700   8.243157   7.895154   8.242193   6.876123
    23  H    4.469404   6.852156   6.278369   6.772069   5.757116
    24  H    6.856464   8.887440   8.216624   8.402206   7.043858
    25  H    6.932962   8.545035   8.194892   8.063623   6.287221
    26  H    6.794156   8.095875   7.376524   7.166209   5.746786
    27  H    5.261245   6.945402   6.051769   6.202628   5.212177
    28  H    5.404282   6.530595   6.047114   5.750032   4.143046
    29  H    6.269357   7.185673   7.293339   6.799788   4.639946
                   21         22         23         24         25
    21  H    0.000000
    22  H    4.981763   0.000000
    23  H    4.389339   1.793214   0.000000
    24  H    5.297215   2.423989   2.608600   0.000000
    25  H    4.154906   2.546608   3.075753   1.765190   0.000000
    26  H    4.407007   4.350285   3.803005   2.487914   2.523506
    27  H    4.251244   3.798519   2.599276   2.529584   3.092705
    28  H    2.713041   3.914622   3.110459   3.086639   2.538456
    29  H    2.180069   3.711569   3.879639   3.978893   2.412849
                   26         27         28         29
    26  H    0.000000
    27  H    1.779881   0.000000
    28  H    1.774737   1.771273   0.000000
    29  H    3.705241   4.051248   2.540612   0.000000
 Stoichiometry    C10H16N2S
 Framework group  C1[X(C10H16N2S)]
 Deg. of freedom    81
 Full point group                 C1      NOp   1
 Largest Abelian subgroup         C1      NOp   1
 Largest concise Abelian subgroup C1      NOp   1
                         Standard orientation:                         
 ---------------------------------------------------------------------
 Center     Atomic      Atomic             Coordinates (Angstroms)
 Number     Number       Type             X           Y           Z
 ---------------------------------------------------------------------
      1          7           0        1.730188   -2.232570   -0.389729
      2         16           0        1.498671   -0.850383    0.226359
      3          6           0       -0.271500   -0.416284    0.126618
      4          6           0       -0.971023   -0.756008   -1.030874
      5          6           0       -2.330831   -0.472221   -1.114222
      6          6           0       -3.012769    0.127672   -0.043753
      7          6           0       -4.488966    0.401984   -0.134849
      8          6           0       -2.293365    0.427318    1.119608
      9          6           0       -0.928750    0.152490    1.211073
     10          6           0        2.205260    0.246755   -1.060702
     11          6           0        2.658539    1.590181   -0.512866
     12          6           0        1.534450    2.582593   -0.217774
     13          7           0        2.029602   -0.579423    1.647072
     14          1           0        1.629709   -2.950184    0.325301
     15          1           0       -0.448169   -1.261613   -1.847876
     16          1           0       -2.880938   -0.731777   -2.023198
     17          1           0       -5.065397   -0.515889    0.066312
     18          1           0       -4.768692    0.750628   -1.139445
     19          1           0       -4.803203    1.159344    0.596388
     20          1           0       -2.810022    0.879234    1.970867
     21          1           0       -0.377046    0.369635    2.130072
     22          1           0        3.041791   -0.368546   -1.417406
     23          1           0        1.454844    0.340361   -1.858613
     24          1           0        3.346877    2.030433   -1.251440
     25          1           0        3.254185    1.405793    0.396932
     26          1           0        1.938987    3.543329    0.133733
     27          1           0        0.933639    2.777184   -1.119372
     28          1           0        0.850530    2.206479    0.555381
[...]
    21  H   -0.000950  -0.004066  -0.127997   0.014294  -0.003088   0.015806
    22  H    0.017198  -0.020557   0.006090   0.001378  -0.000033   0.000037
    23  H   -0.001626  -0.015484   0.007951  -0.003183   0.003140  -0.000279
    24  H   -0.000356   0.006077   0.000123  -0.000141   0.000026  -0.000006
    25  H   -0.000017  -0.010980   0.003614  -0.000828   0.000118  -0.000013
    26  H    0.000007  -0.000077   0.000535   0.000181  -0.000029  -0.000012
    27  H   -0.000058  -0.000965   0.003183  -0.003189   0.001277  -0.000549
    28  H    0.000207   0.007252   0.004257   0.000242  -0.000246  -0.000564
    29  H    0.008809   0.014570  -0.000240  -0.004802   0.000510  -0.000455
               7          8          9         10         11         12
     1  N   -0.000006   0.000593  -0.013835  -0.099848   0.009719   0.000090
     2  S   -0.000008   0.012361  -0.039447   0.242713   0.017593  -0.000747
     3  C   -0.004631   0.098866  -0.045206  -0.044180  -0.001449  -0.011234
     4  C    0.014198  -0.097551  -0.011842  -0.041934   0.011454   0.002686
     5  C   -0.091841   0.013280  -0.103868   0.001840  -0.000988  -0.000383
     6  C    0.337214   0.420519   0.077168  -0.000472   0.000288   0.000521
     7  C    4.992372  -0.068312   0.020382  -0.000010   0.000009  -0.000023
     8  C   -0.068312   5.125678   0.298639  -0.001490   0.000886  -0.002061
     9  C    0.020382   0.298639   5.520611   0.060783  -0.019223   0.012322
    10  C   -0.000010  -0.001490   0.060783   5.307429   0.191408  -0.013213
    11  C    0.000009   0.000886  -0.019223   0.191408   5.041591   0.311259
    12  C   -0.000023  -0.002061   0.012322  -0.013213   0.311259   4.940794
    13  N   -0.000002   0.005282   0.023971  -0.073532   0.020879  -0.010017
    14  H   -0.000002  -0.000057   0.005240   0.012826  -0.001212   0.000088
    15  H   -0.000228  -0.003534   0.016727  -0.002712   0.001746   0.000192
    16  H   -0.005708   0.013065  -0.002809   0.000190  -0.000043   0.000010
    17  H    0.406066  -0.001265  -0.000813  -0.000000   0.000000  -0.000000
    18  H    0.396706  -0.004214  -0.000781  -0.000000  -0.000001   0.000001
    19  H    0.420010  -0.003000   0.002689   0.000001  -0.000000   0.000002
    20  H   -0.011261   0.426476  -0.053399  -0.000038   0.000025  -0.000064
    21  H   -0.000460  -0.036157   0.453757   0.005618  -0.002938   0.003065
    22  H    0.000000   0.000002  -0.001145   0.367099  -0.019288   0.006575
    23  H    0.000001   0.000457  -0.007342   0.366403  -0.022866  -0.010584
    24  H   -0.000000  -0.000001  -0.000288  -0.029961   0.391001  -0.030761
    25  H    0.000000  -0.000074  -0.001524  -0.033720   0.401737  -0.040178
    26  H    0.000001  -0.000007  -0.000044   0.008131  -0.032534   0.401364
    27  H   -0.000020   0.000856  -0.002222   0.000459  -0.035072   0.398032
    28  H    0.000006   0.001129  -0.010806  -0.015471  -0.026896   0.404178
    29  H    0.000001   0.002533  -0.000296  -0.009526   0.001630  -0.000792
              13         14         15         16         17         18
     1  N   -0.075442   0.308020   0.017342  -0.000019  -0.000000   0.000000
     2  S    0.440611  -0.018474   0.002375  -0.000178  -0.000002   0.000003
     3  C   -0.102727   0.003123  -0.079911   0.016721   0.000024   0.000434
     4  C    0.019220  -0.010366   0.442524  -0.061980   0.001044  -0.000404
     5  C   -0.001363   0.000335  -0.061411   0.443701  -0.001331   0.000451
     6  C    0.000155  -0.000179   0.012325  -0.070061  -0.037647  -0.030745
     7  C   -0.000002  -0.000002  -0.000228  -0.005708   0.406066   0.396706
     8  C    0.005282  -0.000057  -0.003534   0.013065  -0.001265  -0.004214
     9  C    0.023971   0.005240   0.016727  -0.002809  -0.000813  -0.000781
    10  C   -0.073532   0.012826  -0.002712   0.000190  -0.000000  -0.000000
    11  C    0.020879  -0.001212   0.001746  -0.000043   0.000000  -0.000001
    12  C   -0.010017   0.000088   0.000192   0.000010  -0.000000   0.000001
    13  N    6.979997  -0.003728   0.001301   0.000005   0.000000  -0.000000
    14  H   -0.003728   0.489804  -0.001253   0.000021   0.000000  -0.000000
    15  H    0.001301  -0.001253   0.516827  -0.008017  -0.000004  -0.000007
    16  H    0.000005   0.000021  -0.008017   0.554901   0.000813   0.000680
    17  H    0.000000   0.000000  -0.000004   0.000813   0.543030  -0.030000
    18  H   -0.000000  -0.000000  -0.000007   0.000680  -0.030000   0.548967
    19  H    0.000001   0.000000   0.000015   0.000110  -0.019905  -0.020426
    20  H    0.000002  -0.000002   0.000053  -0.000214   0.000056   0.000182
    21  H    0.029070   0.000435   0.000146   0.000086   0.000013   0.000012
    22  H    0.001240  -0.001044  -0.000139  -0.000007  -0.000000   0.000000
    23  H    0.004416  -0.000480  -0.003033  -0.000034   0.000000  -0.000000
    24  H    0.000757   0.000028  -0.000042   0.000000   0.000000  -0.000000
    25  H    0.016129  -0.000042  -0.000134  -0.000001   0.000000  -0.000000
    26  H    0.000204  -0.000002   0.000006  -0.000001  -0.000000   0.000000
    27  H    0.000232  -0.000001  -0.000397   0.000022   0.000000  -0.000001
    28  H    0.000195   0.000006  -0.000002   0.000003   0.000002  -0.000007
    29  H    0.267935   0.000015  -0.000267   0.000003   0.000000  -0.000000
              19         20         21         22         23         24
     1  N   -0.000000   0.000030  -0.000950   0.017198  -0.001626  -0.000356
     2  S   -0.000001  -0.000080  -0.004066  -0.020557  -0.015484   0.006077
     3  C   -0.000428   0.017546  -0.127997   0.006090   0.007951   0.000123
     4  C    0.000002  -0.003586   0.014294   0.001378  -0.003183  -0.000141
     5  C    0.006598   0.015537  -0.003088  -0.000033   0.003140   0.000026
     6  C   -0.054792  -0.062048   0.015806   0.000037  -0.000279  -0.000006
     7  C    0.420010  -0.011261  -0.000460   0.000000   0.000001  -0.000000
     8  C   -0.003000   0.426476  -0.036157   0.000002   0.000457  -0.000001
     9  C    0.002689  -0.053399   0.453757  -0.001145  -0.007342  -0.000288
    10  C    0.000001  -0.000038   0.005618   0.367099   0.366403  -0.029961
    11  C   -0.000000   0.000025  -0.002938  -0.019288  -0.022866   0.391001
    12  C    0.000002  -0.000064   0.003065   0.006575  -0.010584  -0.030761
    13  N    0.000001   0.000002   0.029070   0.001240   0.004416   0.000757
    14  H    0.000000  -0.000002   0.000435  -0.001044  -0.000480   0.000028
    15  H    0.000015   0.000053   0.000146  -0.000139  -0.003033  -0.000042
    16  H    0.000110  -0.000214   0.000086  -0.000007  -0.000034   0.000000
    17  H   -0.019905   0.000056   0.000013  -0.000000   0.000000   0.000000
    18  H   -0.020426   0.000182   0.000012   0.000000  -0.000000  -0.000000
    19  H    0.532125   0.003713   0.000015  -0.000000  -0.000000  -0.000000
    20  H    0.003713   0.557463  -0.008517  -0.000001   0.000007   0.000000
    21  H    0.000015  -0.008517   0.535598  -0.000101  -0.000479  -0.000022
    22  H   -0.000000  -0.000001  -0.000101   0.500037  -0.011546  -0.008457
    23  H   -0.000000   0.000007  -0.000479  -0.011546   0.550122  -0.001166
    24  H   -0.000000   0.000000  -0.000022  -0.008457  -0.001166   0.579258
    25  H   -0.000000  -0.000001  -0.000593   0.000573   0.007684  -0.020502
    26  H   -0.000000   0.000000  -0.000057  -0.000204  -0.000076  -0.006972
    27  H    0.000000   0.000003  -0.000095   0.000304   0.004293  -0.003767
    28  H   -0.000004   0.000142  -0.002207  -0.000421   0.001414   0.007502
    29  H   -0.000000   0.000037  -0.004742   0.000513   0.000270   0.000361
              25         26         27         28         29
     1  N   -0.000017   0.000007  -0.000058   0.000207   0.008809
     2  S   -0.010980  -0.000077  -0.000965   0.007252   0.014570
     3  C    0.003614   0.000535   0.003183   0.004257  -0.000240
     4  C   -0.000828   0.000181  -0.003189   0.000242  -0.004802
     5  C    0.000118  -0.000029   0.001277  -0.000246   0.000510
     6  C   -0.000013  -0.000012  -0.000549  -0.000564  -0.000455
     7  C    0.000000   0.000001  -0.000020   0.000006   0.000001
     8  C   -0.000074  -0.000007   0.000856   0.001129   0.002533
     9  C   -0.001524  -0.000044  -0.002222  -0.010806  -0.000296
    10  C   -0.033720   0.008131   0.000459  -0.015471  -0.009526
    11  C    0.401737  -0.032534  -0.035072  -0.026896   0.001630
    12  C   -0.040178   0.401364   0.398032   0.404178  -0.000792
    13  N    0.016129   0.000204   0.000232   0.000195   0.267935
    14  H   -0.000042  -0.000002  -0.000001   0.000006   0.000015
    15  H   -0.000134   0.000006  -0.000397  -0.000002  -0.000267
    16  H   -0.000001  -0.000001   0.000022   0.000003   0.000003
    17  H    0.000000  -0.000000   0.000000   0.000002   0.000000
    18  H   -0.000000   0.000000  -0.000001  -0.000007  -0.000000
    19  H   -0.000000  -0.000000   0.000000  -0.000004  -0.000000
    20  H   -0.000001   0.000000   0.000003   0.000142   0.000037
    21  H   -0.000593  -0.000057  -0.000095  -0.002207  -0.004742
    22  H    0.000573  -0.000204   0.000304  -0.000421   0.000513
    23  H    0.007684  -0.000076   0.004293   0.001414   0.000270
    24  H   -0.020502  -0.006972  -0.003767   0.007502   0.000361
    25  H    0.543652  -0.003318   0.006669  -0.003798  -0.001642
    26  H   -0.003318   0.544995  -0.022835  -0.021945  -0.000127
    27  H    0.006669  -0.022835   0.562359  -0.023004   0.000106
    28  H   -0.003798  -0.021945  -0.023004   0.553969   0.002642
    29  H   -0.001642  -0.000127   0.000106   0.002642   0.515309
 Mulliken charges:
               1
     1  N   -0.554634
     2  S    0.554060
     3  C    0.009984
     4  C   -0.140040
     5  C   -0.214719
     6  C    0.198069
     7  C   -0.404454
     8  C   -0.202900
     9  C   -0.177400
    10  C   -0.198797
    11  C   -0.238717
    12  C   -0.361123
    13  N   -0.544789
    14  H    0.216901
    15  H    0.149514
    16  H    0.118737
    17  H    0.139918
    18  H    0.139150
    19  H    0.133274
    20  H    0.117938
    21  H    0.134552
    22  H    0.161894
    23  H    0.132021
    24  H    0.117306
    25  H    0.137188
    26  H    0.132815
    27  H    0.114378
    28  H    0.122226
    29  H    0.207647
 Sum of Mulliken charges =  -0.00000
 Mulliken charges with hydrogens summed into heavy atoms:
               1
     1  N   -0.337733
     2  S    0.554060
     3  C    0.009984
     4  C    0.009474
     5  C   -0.095982
     6  C    0.198069
     7  C    0.007888
     8  C   -0.084962
     9  C   -0.042849
    10  C    0.095118
    11  C    0.015778
    12  C    0.008296
    13  N   -0.337142
 Electronic spatial extent (au):  <R**2>=           3026.0402
 Charge=              0.0000 electrons
 Dipole moment (field-independent basis, Debye):
    X=             -3.7069    Y=              3.5291    Z=             -0.8349  Tot=              5.1858
 Quadrupole moment (field-independent basis, Debye-Ang):
   XX=            -84.8364   YY=            -91.0067   ZZ=            -85.5533
   XY=              9.0373   XZ=             -2.9470   YZ=              0.3755
 Traceless Quadrupole moment (field-independent basis, Debye-Ang):
   XX=              2.2957   YY=             -3.8746   ZZ=              1.5788
   XY=              9.0373   XZ=             -2.9470   YZ=              0.3755
 Octapole moment (field-independent basis, Debye-Ang**2):
  XXX=            -41.4143  YYY=             -2.5938  ZZZ=             -1.5323  XYY=             -1.1570
  XXY=             28.8073  XXZ=            -12.9579  XZZ=            -14.5127  YZZ=             11.8569
  YYZ=              3.3921  XYZ=             -0.8614
 Hexadecapole moment (field-independent basis, Debye-Ang**3):
 XXXX=          -2658.2217 YYYY=           -806.6695 ZZZZ=           -519.6883 XXXY=             48.8307
 XXXZ=            -35.1110 YYYX=             14.4601 YYYZ=            -13.7057 ZZZX=             -9.9895
 ZZZY=             12.8539 XXYY=           -636.3893 XXZZ=           -548.5715 YYZZ=           -256.3258
 XXYZ=              6.6155 YYXZ=             11.8412 ZZXY=             25.2044
 N-N= 9.384874779802D+02 E-N=-3.982632925592D+03  KE= 8.942858046600D+02
 Breneman (CHELPG) radii used.
 Read replacement radii for each type of atom:
 Atom Element Radius
    1     7    1.70
    2    16    2.00
    3     6    1.50
    4     6    1.50
    5     6    1.50
    6     6    1.50
    7     6    1.50
    8     6    1.50
    9     6    1.50
   10     6    1.50
   11     6    1.50
   12     6    1.50
   13     7    1.70
   14     1    1.45
   15     1    1.45
   16     1    1.45
   17     1    1.45
   18     1    1.45
   19     1    1.45
   20     1    1.45
   21     1    1.45
   22     1    1.45
   23     1    1.45
   24     1    1.45
   25     1    1.45
   26     1    1.45
   27     1    1.45
   28     1    1.45
   29     1    1.45
 Generate Potential Derived Charges using the Breneman model, NDens= 1.
 Grid spacing= 0.300 Box extension= 2.800
 NStep X,Y,Z=   48     41     35   Total possible points=       68880
 Number of Points to Fit=   17280

 **********************************************************************

            Electrostatic Properties Using The SCF Density.

 **********************************************************************

       Atomic Center    1 is at   1.802532 -2.119310 -0.712063
       Atomic Center    2 is at   1.531444 -0.850110  0.120499
       Atomic Center    3 is at  -0.237053 -0.426668  0.067219
       Atomic Center    4 is at  -0.903534 -0.448575 -1.158608
       Atomic Center    5 is at  -2.266455 -0.184335 -1.200759
       Atomic Center    6 is at  -2.991767  0.077939 -0.027850
       Atomic Center    7 is at  -4.462265  0.367281 -0.092219
       Atomic Center    8 is at  -2.308544  0.052650  1.191638
       Atomic Center    9 is at  -0.938781 -0.202920  1.245050
       Atomic Center   10 is at   2.286056  0.416653 -0.936952
       Atomic Center   11 is at   2.543634  1.734676 -0.234842
       Atomic Center   12 is at   1.312985  2.587844  0.034228
       Atomic Center   13 is at   2.043917 -0.809357  1.580403
       Atomic Center   14 is at   1.402921 -2.915123 -0.207624
       Atomic Center   15 is at  -0.354625 -0.698579 -2.070091
       Atomic Center   16 is at  -2.787003 -0.195336 -2.162550
       Atomic Center   17 is at  -5.001097 -0.426935 -0.631875
       Atomic Center   18 is at  -4.655577  1.310114 -0.628823
       Atomic Center   19 is at  -4.901425  0.455328  0.910932
       Atomic Center   20 is at  -2.859055  0.229198  2.119584
       Atomic Center   21 is at  -0.414671 -0.246942  2.202720
       Atomic Center   22 is at   3.219356 -0.093825 -1.216342
       Atomic Center   23 is at   1.662819  0.514835 -1.837536
       Atomic Center   24 is at   3.252174  2.299046 -0.863295
       Atomic Center   25 is at   3.083847  1.521869  0.703524
       Atomic Center   26 is at   1.598615  3.561425  0.459211
       Atomic Center   27 is at   0.746467  2.777183 -0.891194
       Atomic Center   28 is at   0.620483  2.108019  0.741284
       Atomic Center   29 is at   1.752875  0.054885  2.044282
   17280 points will be used for fitting atomic charges
 Fitting point charges to electrostatic potential
 Charges from ESP fit, RMS=   0.00287 RRMS=   0.16629:
 ESP charges:
               1
     1  N   -0.778690
     2  S    0.823447
     3  C   -0.136062
     4  C   -0.016520
     5  C   -0.238757
     6  C    0.262412
     7  C   -0.320128
     8  C   -0.269390
     9  C    0.045844
    10  C   -0.151877
    11  C    0.164978
    12  C   -0.163902
    13  N   -0.802809
    14  H    0.330994
    15  H    0.082915
    16  H    0.134575
    17  H    0.092213
    18  H    0.092160
    19  H    0.095176
    20  H    0.135941
    21  H    0.051887
    22  H    0.097205
    23  H    0.074943
    24  H   -0.007243
    25  H   -0.031618
    26  H    0.050422
    27  H    0.026635
    28  H   -0.002916
    29  H    0.358163
 Sum of ESP charges =  -0.00000
 ESP charges with hydrogens summed into heavy atoms:
               1
     1  N   -0.447696
     2  S    0.823447
     3  C   -0.136062
     4  C    0.066395
     5  C   -0.104182
     6  C    0.262412
     7  C   -0.040579
     8  C   -0.133449
     9  C    0.097732
    10  C    0.020271
    11  C    0.126117
    12  C   -0.089761
    13  N   -0.444646
 Charge=  -0.00000 Dipole=    -3.7446     3.4263    -0.7835 Tot=     5.1357
 -----------------------------------------------------------------

              Electrostatic Properties (Atomic Units)

 -----------------------------------------------------------------
    Center     Electric         -------- Electric Field --------
               Potential          X             Y             Z
 -----------------------------------------------------------------
    1 Atom    -18.434014
    2 Atom    -59.081785
    3 Atom    -14.734756
    4 Atom    -14.743935
    5 Atom    -14.749078
    6 Atom    -14.734803
    7 Atom    -14.752478
    8 Atom    -14.749339
    9 Atom    -14.744644
   10 Atom    -14.735291
   11 Atom    -14.748334
   12 Atom    -14.764826
   13 Atom    -18.430742
   14 Atom     -1.059114
   15 Atom     -1.086097
   16 Atom     -1.089126
   17 Atom     -1.096681
   18 Atom     -1.095868
   19 Atom     -1.099581
   20 Atom     -1.089884
   21 Atom     -1.085847
   22 Atom     -1.089708
   23 Atom     -1.085851
   24 Atom     -1.108242
   25 Atom     -1.112171
   26 Atom     -1.112442
   27 Atom     -1.112714
   28 Atom     -1.113093
   29 Atom     -1.049580
 -----------------------------------------------------------------
 Unable to Open any file for archive entry.
 1\1\GINC-NOTCH331\SP\RPBE1PBE\def2TZVP\C10H16N2S1\U1414944\10-Feb-2025
 \0\\#N Guess=Read Geom=Check Integral(Ultrafine) Density Pop=(ChelpG,R
 eadRadii) NMR pbe1pbe EmpiricalDispersion=GD3BJ def2TZVP\\SDI0432_5\\0
 ,1\N,0,-1.6652475967,-1.860554249,1.3419686867\S,0,-1.4764953447,-0.89
 59184805,0.1539581507\C,0,0.2613325512,-0.3702828856,0.0382802429\C,0,
 0.9287329484,0.0272897471,1.197522472\C,0,2.2719909275,0.3737686133,1.
 1285126531\C,0,2.9781977716,0.3050807366,-0.0827410782\C,0,4.427223194
 5,0.6887629376,-0.1405324686\C,0,2.2971140732,-0.136357235,-1.22109077
 68\C,0,0.9464644689,-0.4784917387,-1.1653213627\C,0,-2.3098274367,0.58
 69752615,0.7855548648\C,0,-2.6516881804,1.6061323454,-0.282592791\C,0,
 -1.4783239294,2.4077275578,-0.8261499623\N,0,-1.9915768948,-1.33843754
 87,-1.2368973661\H,0,-1.2159154472,-2.7473640121,1.0987918842\H,0,0.39
 759506,0.0377140632,2.1527120034\H,0,2.7928690218,0.6914369712,2.03620
 6204\H,0,5.0161405859,0.1338397608,0.6061830374\H,0,4.560219018,1.7610
 088108,0.0759109947\H,0,4.859129843,0.4896680097,-1.1308576361\H,0,2.8
 345366079,-0.2214955578,-2.1693752456\H,0,0.4255547959,-0.8473414792,-
 2.0520937672\H,0,-3.2083635516,0.1319203756,1.227429993\H,0,-1.6934991
 743,0.995649192,1.59933655\H,0,-3.3944230515,2.2927327945,0.1560645361
 \H,0,-3.1778584194,1.0820249384,-1.0987446853\H,0,-1.8259481126,3.1836
 382003,-1.5241298678\H,0,-0.9244107443,2.9071601419,-0.0156286535\H,0,
 -0.7570579437,1.7761823423,-1.3652648577\H,0,-1.7567441587,-0.64335934
 63,-1.9500054375\\Version=ES64L-G16RevC.01\State=1-A\HF=-897.786611\RM
 SD=2.828e-09\Dipole=1.3668329,1.5078128,-0.1444397\Quadrupole=2.542714
 4,-3.497095,0.9543806,-6.7300185,-0.0993856,1.1008171\PG=C01 [X(C10H16
 N2S1)]\\@
 The archive entry for this job was punched.


 When I told the people of Northern Ireland that I was
 an atheist, a woman in the audience stood up and said,
 "Yes, but is it the God of the Catholics or the God
 of the Protestants in whom you don't believe?"
                               -- Quentin Crisp
 Job cpu time:       0 days  0 hours 28 minutes  6.0 seconds.
 Elapsed time:       0 days  0 hours  1 minutes 55.5 seconds.
 File lengths (MBytes):  RWF=    160 Int=      0 D2E=      0 Chk=     25 Scr=      2
 Normal termination of Gaussian 16 at Mon Feb 10 19:56:06 2025.
