 Entering Gaussian System, Link 0=g16
 Input=SDI0432_7.com
 Output=SDI0432_7.log
 Initial command:
 /uufs/chpc.utah.edu/sys/installdir/gaussian16/C01/AVX/g16/l1.exe "/scratch/general/vast/u1414944/3119892-notchpeak.peaks/Gau-1445105.inp" -scrdir="/scratch/general/vast/u1414944/3119892-notchpeak.peaks/"
 Entering Link 1 = /uufs/chpc.utah.edu/sys/installdir/gaussian16/C01/AVX/g16/l1.exe PID=   1445106.
  
 Copyright (c) 1988-2019, Gaussian, Inc.  All Rights Reserved.
  
 This is part of the Gaussian(R) 16 program.  It is based on
 the Gaussian(R) 09 system (copyright 2009, Gaussian, Inc.),
 the Gaussian(R) 03 system (copyright 2003, Gaussian, Inc.),
 the Gaussian(R) 98 system (copyright 1998, Gaussian, Inc.),
 the Gaussian(R) 94 system (copyright 1995, Gaussian, Inc.),
 the Gaussian 92(TM) system (copyright 1992, Gaussian, Inc.),
 the Gaussian 90(TM) system (copyright 1990, Gaussian, Inc.),
 the Gaussian 88(TM) system (copyright 1988, Gaussian, Inc.),
 the Gaussian 86(TM) system (copyright 1986, Carnegie Mellon
 University), and the Gaussian 82(TM) system (copyright 1983,
 Carnegie Mellon University). Gaussian is a federally registered
 trademark of Gaussian, Inc.
  
 This software contains proprietary and confidential information,
 including trade secrets, belonging to Gaussian, Inc.
  
 This software is provided under written license and may be
 used, copied, transmitted, or stored only in accord with that
 written license.
  
 The following legend is applicable only to US Government
 contracts under FAR:
  
                    RESTRICTED RIGHTS LEGEND
  
 Use, reproduction and disclosure by the US Government is
 subject to restrictions as set forth in subparagraphs (a)
 and (c) of the Commercial Computer Software - Restricted
 Rights clause in FAR 52.227-19.
  
 Gaussian, Inc.
 340 Quinnipiac St., Bldg. 40, Wallingford CT 06492
  
  
 ---------------------------------------------------------------
 Warning -- This program may not be used in any manner that
 competes with the business of Gaussian, Inc. or will provide
 assistance to any competitor of Gaussian, Inc.  The licensee
 of this program is prohibited from giving any competitor of
 Gaussian, Inc. access to this program.  By using this program,
 the user acknowledges that Gaussian, Inc. is engaged in the
 business of creating and licensing software in the field of
 computational chemistry and represents and warrants to the
 licensee that it is not a competitor of Gaussian, Inc. and that
 it will not use this program in any manner prohibited above.
 ---------------------------------------------------------------
  

 Cite this work as:
 Gaussian 16, Revision C.01,
 M. J. Frisch, G. W. Trucks, H. B. Schlegel, G. E. Scuseria, 
 M. A. Robb, J. R. Cheeseman, G. Scalmani, V. Barone, 
 G. A. Petersson, H. Nakatsuji, X. Li, M. Caricato, A. V. Marenich, 
 J. Bloino, B. G. Janesko, R. Gomperts, B. Mennucci, H. P. Hratchian, 
 J. V. Ortiz, A. F. Izmaylov, J. L. Sonnenberg, D. Williams-Young, 
 F. Ding, F. Lipparini, F. Egidi, J. Goings, B. Peng, A. Petrone, 
 T. Henderson, D. Ranasinghe, V. G. Zakrzewski, J. Gao, N. Rega, 
 G. Zheng, W. Liang, M. Hada, M. Ehara, K. Toyota, R. Fukuda, 
 J. Hasegawa, M. Ishida, T. Nakajima, Y. Honda, O. Kitao, H. Nakai, 
 T. Vreven, K. Throssell, J. A. Montgomery, Jr., J. E. Peralta, 
 F. Ogliaro, M. J. Bearpark, J. J. Heyd, E. N. Brothers, K. N. Kudin, 
 V. N. Staroverov, T. A. Keith, R. Kobayashi, J. Normand, 
 K. Raghavachari, A. P. Rendell, J. C. Burant, S. S. Iyengar, 
 J. Tomasi, M. Cossi, J. M. Millam, M. Klene, C. Adamo, R. Cammi, 
 J. W. Ochterski, R. L. Martin, K. Morokuma, O. Farkas, 
 J. B. Foresman, and D. J. Fox, Gaussian, Inc., Wallingford CT, 2019.
 
 ******************************************
 Gaussian 16:  ES64L-G16RevC.01  3-Jul-2019
                10-Feb-2025 
 ******************************************
 %NProcShared=16
 Will use up to   16 processors via shared memory.
 %Mem=40GB
 %chk=SDI0432_7.chk
 ----------------------------------------------------------------------
 #N OPT FREQ=NORAMAN Integral(Ultrafine) pbe1pbe EmpiricalDispersion=GD
 3BJ def2SVP
 ----------------------------------------------------------------------
 1/18=20,19=15,26=4,38=1/1,3;
 2/9=110,12=2,17=6,18=5,40=1/2;
 3/5=43,7=101,11=2,25=1,30=1,71=1,74=-13,75=-5,124=41/1,2,3;
 4//1;
 5/5=2,38=5/2;
 6/7=2,8=2,9=2,10=2,28=1/1;
 7//1,2,3,16;
 1/18=20,19=15,26=4/3(2);
 2/9=110/2;
 99//99;
 2/9=110/2;
 3/5=43,7=101,11=2,25=1,30=1,71=1,74=-13,75=-5,124=41/1,2,3;
 4/5=5,16=3,69=1/1;
 5/5=2,38=5/2;
 7//1,2,3,16;
 1/18=20,19=15,26=4/3(-5);
 2/9=110/2;
 6/7=2,8=2,9=2,10=2,19=2,28=1/1;
 99/9=1/99;
 ---------
 SDI0432_7
 ---------
 Symbolic Z-matrix:
 Charge =  0 Multiplicity = 1
 N                    -1.69664  -1.75884   1.42333 
 S                    -1.42742  -0.82448   0.22812 
 C                     0.31387  -0.36638   0.07456 
 C                     0.92946  -0.32377  -1.16033 
 C                     2.27045   0.00735  -1.23873 
 C                     3.00266   0.28778  -0.09018 
 C                     4.45954   0.62548  -0.17626 
 C                     2.36717   0.21786   1.14596 
 C                     1.02743  -0.11273   1.23146 
 C                    -2.175     0.72995   0.89053 
 C                    -2.75692   1.59396  -0.20984 
 C                    -1.67623   2.1646   -1.11907 
 N                    -1.8092   -1.16169  -1.22563 
 H                    -1.46395  -2.72376   1.24824 
 H                     0.34553  -0.55831  -2.03588 
 H                     2.75646   0.04676  -2.20286 
 H                     5.0561   -0.28148  -0.07316 
 H                     4.74801   1.30808   0.61967 
 H                     4.69791   1.07764  -1.13581 
 H                     2.92912   0.42064   2.04635 
 H                     0.52822  -0.19158   2.18601 
 H                    -2.93103   0.37622   1.58706 
 H                    -1.38883   1.24415   1.43731 
 H                    -3.33148   2.40663   0.24287 
 H                    -3.44129   0.98833  -0.80749 
 H                    -0.93258   2.71059  -0.54125 
 H                    -1.18204   1.35833  -1.65217 
 H                    -2.1141    2.84376  -1.84685 
 H                    -2.65501  -1.70208  -1.30719 
 

 GradGradGradGradGradGradGradGradGradGradGradGradGradGradGradGradGradGrad
 Berny optimization.
 Initialization pass.
                           ----------------------------
                           !    Initial Parameters    !
                           ! (Angstroms and Degrees)  !
 --------------------------                            --------------------------
 ! Name  Definition              Value          Derivative Info.                !
 --------------------------------------------------------------------------------
 ! R1    R(1,2)                  1.5408         estimate D2E/DX2                !
 ! R2    R(1,14)                 1.0079         estimate D2E/DX2                !
 ! R3    R(2,3)                  1.8071         estimate D2E/DX2                !
 ! R4    R(2,10)                 1.8477         estimate D2E/DX2                !
 ! R5    R(2,13)                 1.5404         estimate D2E/DX2                !
 ! R6    R(3,4)                  1.3805         estimate D2E/DX2                !
 ! R7    R(3,9)                  1.3827         estimate D2E/DX2                !
 ! R8    R(4,5)                  1.3835         estimate D2E/DX2                !
 ! R9    R(4,15)                 1.0782         estimate D2E/DX2                !
 ! R10   R(5,6)                  1.3907         estimate D2E/DX2                !
 ! R11   R(5,16)                 1.0804         estimate D2E/DX2                !
 ! R12   R(6,7)                  1.498          estimate D2E/DX2                !
 ! R13   R(6,8)                  1.3917         estimate D2E/DX2                !
 ! R14   R(7,17)                 1.0905         estimate D2E/DX2                !
 ! R15   R(7,18)                 1.0875         estimate D2E/DX2                !
 ! R16   R(7,19)                 1.0872         estimate D2E/DX2                !
 ! R17   R(8,9)                  1.3826         estimate D2E/DX2                !
 ! R18   R(8,20)                 1.0806         estimate D2E/DX2                !
 ! R19   R(9,21)                 1.0801         estimate D2E/DX2                !
 ! R20   R(10,11)                1.5152         estimate D2E/DX2                !
 ! R21   R(10,22)                1.0871         estimate D2E/DX2                !
 ! R22   R(10,23)                1.0869         estimate D2E/DX2                !
 ! R23   R(11,12)                1.5232         estimate D2E/DX2                !
 ! R24   R(11,24)                1.0934         estimate D2E/DX2                !
 ! R25   R(11,25)                1.0919         estimate D2E/DX2                !
 ! R26   R(12,26)                1.0886         estimate D2E/DX2                !
 ! R27   R(12,27)                1.0856         estimate D2E/DX2                !
 ! R28   R(12,28)                1.0875         estimate D2E/DX2                !
 ! R29   R(13,29)                1.007          estimate D2E/DX2                !
 ! A1    A(2,1,14)             113.9204         estimate D2E/DX2                !
 ! A2    A(1,2,3)              112.8309         estimate D2E/DX2                !
 ! A3    A(1,2,10)              99.287          estimate D2E/DX2                !
 ! A4    A(1,2,13)             123.7809         estimate D2E/DX2                !
 ! A5    A(3,2,10)             101.9508         estimate D2E/DX2                !
 ! A6    A(3,2,13)             102.3634         estimate D2E/DX2                !
 ! A7    A(10,2,13)            114.9756         estimate D2E/DX2                !
 ! A8    A(2,3,4)              120.8993         estimate D2E/DX2                !
 ! A9    A(2,3,9)              118.2076         estimate D2E/DX2                !
 ! A10   A(4,3,9)              120.8414         estimate D2E/DX2                !
 ! A11   A(3,4,5)              119.3608         estimate D2E/DX2                !
 ! A12   A(3,4,15)             118.5666         estimate D2E/DX2                !
 ! A13   A(5,4,15)             122.0711         estimate D2E/DX2                !
 ! A14   A(4,5,6)              120.7837         estimate D2E/DX2                !
 ! A15   A(4,5,16)             119.6908         estimate D2E/DX2                !
 ! A16   A(6,5,16)             119.5253         estimate D2E/DX2                !
 ! A17   A(5,6,7)              120.6682         estimate D2E/DX2                !
 ! A18   A(5,6,8)              118.8842         estimate D2E/DX2                !
 ! A19   A(7,6,8)              120.4294         estimate D2E/DX2                !
 ! A20   A(6,7,17)             109.8242         estimate D2E/DX2                !
 ! A21   A(6,7,18)             110.942          estimate D2E/DX2                !
 ! A22   A(6,7,19)             110.96           estimate D2E/DX2                !
 ! A23   A(17,7,18)            107.9231         estimate D2E/DX2                !
 ! A24   A(17,7,19)            108.0236         estimate D2E/DX2                !
 ! A25   A(18,7,19)            109.0711         estimate D2E/DX2                !
 ! A26   A(6,8,9)              120.626          estimate D2E/DX2                !
 ! A27   A(6,8,20)             119.5531         estimate D2E/DX2                !
 ! A28   A(9,8,20)             119.8204         estimate D2E/DX2                !
 ! A29   A(3,9,8)              119.4842         estimate D2E/DX2                !
 ! A30   A(3,9,21)             119.178          estimate D2E/DX2                !
 ! A31   A(8,9,21)             121.3316         estimate D2E/DX2                !
 ! A32   A(2,10,11)            112.009          estimate D2E/DX2                !
 ! A33   A(2,10,22)            103.7294         estimate D2E/DX2                !
 ! A34   A(2,10,23)            106.6003         estimate D2E/DX2                !
 ! A35   A(11,10,22)           112.5654         estimate D2E/DX2                !
 ! A36   A(11,10,23)           111.9213         estimate D2E/DX2                !
 ! A37   A(22,10,23)           109.5496         estimate D2E/DX2                !
 ! A38   A(10,11,12)           112.0009         estimate D2E/DX2                !
 ! A39   A(10,11,24)           108.9626         estimate D2E/DX2                !
 ! A40   A(10,11,25)           108.7784         estimate D2E/DX2                !
 ! A41   A(12,11,24)           109.9695         estimate D2E/DX2                !
 ! A42   A(12,11,25)           109.0099         estimate D2E/DX2                !
 ! A43   A(24,11,25)           108.0298         estimate D2E/DX2                !
 ! A44   A(11,12,26)           110.8381         estimate D2E/DX2                !
 ! A45   A(11,12,27)           109.747          estimate D2E/DX2                !
 ! A46   A(11,12,28)           110.3504         estimate D2E/DX2                !
 ! A47   A(26,12,27)           108.7955         estimate D2E/DX2                !
 ! A48   A(26,12,28)           108.4849         estimate D2E/DX2                !
 ! A49   A(27,12,28)           108.5713         estimate D2E/DX2                !
 ! A50   A(2,13,29)            113.7078         estimate D2E/DX2                !
 ! D1    D(14,1,2,3)           -79.6158         estimate D2E/DX2                !
 ! D2    D(14,1,2,10)          173.1367         estimate D2E/DX2                !
 ! D3    D(14,1,2,13)           44.5181         estimate D2E/DX2                !
 ! D4    D(1,2,3,4)            138.3873         estimate D2E/DX2                !
 ! D5    D(1,2,3,9)            -39.0202         estimate D2E/DX2                !
 ! D6    D(10,2,3,4)          -116.0624         estimate D2E/DX2                !
 ! D7    D(10,2,3,9)            66.5301         estimate D2E/DX2                !
 ! D8    D(13,2,3,4)             3.1617         estimate D2E/DX2                !
 ! D9    D(13,2,3,9)          -174.2458         estimate D2E/DX2                !
 ! D10   D(1,2,10,11)         -148.6666         estimate D2E/DX2                !
 ! D11   D(1,2,10,22)          -27.0098         estimate D2E/DX2                !
 ! D12   D(1,2,10,23)           88.6027         estimate D2E/DX2                !
 ! D13   D(3,2,10,11)           95.4535         estimate D2E/DX2                !
 ! D14   D(3,2,10,22)         -142.8897         estimate D2E/DX2                !
 ! D15   D(3,2,10,23)          -27.2773         estimate D2E/DX2                !
 ! D16   D(13,2,10,11)         -14.4246         estimate D2E/DX2                !
 ! D17   D(13,2,10,22)         107.2322         estimate D2E/DX2                !
 ! D18   D(13,2,10,23)        -137.1553         estimate D2E/DX2                !
 ! D19   D(1,2,13,29)           33.7308         estimate D2E/DX2                !
 ! D20   D(3,2,13,29)          162.3793         estimate D2E/DX2                !
 ! D21   D(10,2,13,29)         -87.9901         estimate D2E/DX2                !
 ! D22   D(2,3,4,5)           -178.8277         estimate D2E/DX2                !
 ! D23   D(2,3,4,15)             0.7441         estimate D2E/DX2                !
 ! D24   D(9,3,4,5)             -1.4886         estimate D2E/DX2                !
 ! D25   D(9,3,4,15)           178.0831         estimate D2E/DX2                !
 ! D26   D(2,3,9,8)            178.9147         estimate D2E/DX2                !
 ! D27   D(2,3,9,21)            -0.1924         estimate D2E/DX2                !
 ! D28   D(4,3,9,8)              1.5057         estimate D2E/DX2                !
 ! D29   D(4,3,9,21)          -177.6015         estimate D2E/DX2                !
 ! D30   D(3,4,5,6)              0.421          estimate D2E/DX2                !
 ! D31   D(3,4,5,16)          -179.7178         estimate D2E/DX2                !
 ! D32   D(15,4,5,6)          -179.1351         estimate D2E/DX2                !
 ! D33   D(15,4,5,16)            0.7261         estimate D2E/DX2                !
 ! D34   D(4,5,6,7)            179.0553         estimate D2E/DX2                !
 ! D35   D(4,5,6,8)              0.6029         estimate D2E/DX2                !
 ! D36   D(16,5,6,7)            -0.8061         estimate D2E/DX2                !
 ! D37   D(16,5,6,8)          -179.2584         estimate D2E/DX2                !
 ! D38   D(5,6,7,17)           -91.8009         estimate D2E/DX2                !
 ! D39   D(5,6,7,18)           148.9748         estimate D2E/DX2                !
 ! D40   D(5,6,7,19)            27.5593         estimate D2E/DX2                !
 ! D41   D(8,6,7,17)            86.6275         estimate D2E/DX2                !
 ! D42   D(8,6,7,18)           -32.5967         estimate D2E/DX2                !
 ! D43   D(8,6,7,19)          -154.0122         estimate D2E/DX2                !
 ! D44   D(5,6,8,9)             -0.5865         estimate D2E/DX2                !
 ! D45   D(5,6,8,20)           179.1819         estimate D2E/DX2                !
 ! D46   D(7,6,8,9)           -179.0427         estimate D2E/DX2                !
 ! D47   D(7,6,8,20)             0.7257         estimate D2E/DX2                !
 ! D48   D(6,8,9,3)             -0.4522         estimate D2E/DX2                !
 ! D49   D(6,8,9,21)           178.6352         estimate D2E/DX2                !
 ! D50   D(20,8,9,3)           179.78           estimate D2E/DX2                !
 ! D51   D(20,8,9,21)           -1.1326         estimate D2E/DX2                !
 ! D52   D(2,10,11,12)         -67.6934         estimate D2E/DX2                !
 ! D53   D(2,10,11,24)         170.4153         estimate D2E/DX2                !
 ! D54   D(2,10,11,25)          52.8668         estimate D2E/DX2                !
 ! D55   D(22,10,11,12)        175.8714         estimate D2E/DX2                !
 ! D56   D(22,10,11,24)         53.9802         estimate D2E/DX2                !
 ! D57   D(22,10,11,25)        -63.5683         estimate D2E/DX2                !
 ! D58   D(23,10,11,12)         51.9652         estimate D2E/DX2                !
 ! D59   D(23,10,11,24)        -69.926          estimate D2E/DX2                !
 ! D60   D(23,10,11,25)        172.5255         estimate D2E/DX2                !
 ! D61   D(10,11,12,26)        -55.1555         estimate D2E/DX2                !
 ! D62   D(10,11,12,27)         65.0377         estimate D2E/DX2                !
 ! D63   D(10,11,12,28)       -175.3547         estimate D2E/DX2                !
 ! D64   D(24,11,12,26)         66.1573         estimate D2E/DX2                !
 ! D65   D(24,11,12,27)       -173.6495         estimate D2E/DX2                !
 ! D66   D(24,11,12,28)        -54.0419         estimate D2E/DX2                !
 ! D67   D(25,11,12,26)       -175.5813         estimate D2E/DX2                !
 ! D68   D(25,11,12,27)        -55.3881         estimate D2E/DX2                !
 ! D69   D(25,11,12,28)         64.2196         estimate D2E/DX2                !
 --------------------------------------------------------------------------------
 Trust Radius=3.00D-01 FncErr=1.00D-07 GrdErr=1.00D-06 EigMax=2.50D+02 EigMin=1.00D-04
 Number of steps in this run=    158 maximum allowed number of steps=    174.
 GradGradGradGradGradGradGradGradGradGradGradGradGradGradGradGradGradGrad

                          Input orientation:                          
 ---------------------------------------------------------------------
 Center     Atomic      Atomic             Coordinates (Angstroms)
 Number     Number       Type             X           Y           Z
 ---------------------------------------------------------------------
      1          7           0       -1.696640   -1.758840    1.423325
      2         16           0       -1.427425   -0.824479    0.228122
      3          6           0        0.313874   -0.366378    0.074559
      4          6           0        0.929463   -0.323775   -1.160328
      5          6           0        2.270449    0.007353   -1.238733
      6          6           0        3.002656    0.287782   -0.090175
      7          6           0        4.459538    0.625475   -0.176260
      8          6           0        2.367169    0.217858    1.145961
      9          6           0        1.027432   -0.112733    1.231463
     10          6           0       -2.175002    0.729949    0.890530
     11          6           0       -2.756922    1.593960   -0.209835
     12          6           0       -1.676226    2.164601   -1.119066
     13          7           0       -1.809195   -1.161689   -1.225632
     14          1           0       -1.463950   -2.723756    1.248239
     15          1           0        0.345529   -0.558306   -2.035885
     16          1           0        2.756459    0.046763   -2.202858
     17          1           0        5.056099   -0.281485   -0.073162
     18          1           0        4.748011    1.308076    0.619670
     19          1           0        4.697913    1.077641   -1.135807
     20          1           0        2.929117    0.420639    2.046351
     21          1           0        0.528217   -0.191578    2.186006
     22          1           0       -2.931027    0.376222    1.587061
     23          1           0       -1.388834    1.244152    1.437307
     24          1           0       -3.331482    2.406632    0.242872
     25          1           0       -3.441287    0.988331   -0.807490
     26          1           0       -0.932575    2.710588   -0.541248
     27          1           0       -1.182036    1.358331   -1.652175
     28          1           0       -2.114100    2.843764   -1.846847
     29          1           0       -2.655007   -1.702079   -1.307191
 ---------------------------------------------------------------------
                    Distance matrix (angstroms):
                    1          2          3          4          5
     1  N    0.000000
     2  S    1.540785   0.000000
     3  C    2.792899   1.807086   0.000000
     4  C    3.953618   2.780902   1.380475   0.000000
     5  C    5.093504   4.064219   2.385916   1.383487   0.000000
     6  C    5.344410   4.578651   2.772113   2.411920   1.390666
     7  C    6.792802   6.076366   4.270037   3.785617   2.510585
     8  C    4.527561   4.040772   2.388568   2.771161   2.395920
     9  C    3.188580   2.745833   1.382725   2.403082   2.767920
    10  C    2.589744   1.847675   2.839409   3.867047   4.981760
    11  C    3.877200   2.794318   3.654257   4.262696   5.371257
    12  C    4.675207   3.288072   3.433817   3.603239   4.499365
    13  N    2.717763   1.540409   2.613511   2.864719   4.243858
    14  H    1.007900   2.156207   3.177328   4.158069   5.252592
    15  H    4.192597   2.887895   2.119389   1.078231   2.158874
    16  H    6.019925   4.916667   3.365046   2.135903   1.080415
    17  H    7.072590   6.513194   4.745284   4.267651   3.033451
    18  H    7.182295   6.545007   4.771008   4.518035   3.359145
    19  H    7.448831   6.557295   4.771789   4.020669   2.654937
    20  H    5.151302   4.882185   3.368510   3.851696   3.375859
    21  H    2.826302   2.838734   2.129486   3.372897   3.847569
    22  H    2.471641   2.355678   3.656296   4.789731   5.930980
    23  H    3.018758   2.396425   2.711108   3.818456   4.699065
    24  H    4.627887   3.750431   4.583289   5.251642   6.271628
    25  H    3.945539   2.900761   4.088335   4.577070   5.811387
    26  H    4.941571   3.651507   3.376474   3.613558   4.248921
    27  H    4.409113   2.891434   2.862512   2.744052   3.730379
    28  H    5.661471   4.270014   4.460030   4.446109   5.257309
    29  H    2.894376   2.152749   3.536607   3.843139   5.214112
                    6          7          8          9         10
     6  C    0.000000
     7  C    1.497983   0.000000
     8  C    1.391677   2.508471   0.000000
     9  C    2.410114   3.782326   1.382569   0.000000
    10  C    5.288235   6.720571   4.578077   3.328953   0.000000
    11  C    5.907042   7.281235   5.476143   4.394483   1.515239
    12  C    5.145192   6.395733   5.026848   4.245116   2.519024
    13  N    5.152101   6.602436   4.996962   3.896676   2.861862
    14  H    5.550791   6.952285   4.831256   3.608976   3.544239
    15  H    3.400290   4.667399   3.848844   3.367356   4.071435
    16  H    2.140592   2.709703   3.375709   3.848316   5.861323
    17  H    2.130958   1.090454   2.994320   4.238004   7.364816
    18  H    2.142696   1.087504   2.670949   4.029355   6.952388
    19  H    2.142690   1.087202   3.373138   4.526962   7.173833
    20  H    2.141916   2.706315   1.080559   2.136571   5.242482
    21  H    3.396120   4.658665   2.151993   1.080086   3.136059
    22  H    6.166809   7.602097   5.318884   4.004363   1.087130
    23  H    4.746896   6.098345   3.904576   2.778822   1.086936
    24  H    6.687432   8.003011   6.170974   5.130755   2.137328
    25  H    6.521480   7.934303   6.176387   5.033798   2.133896
    26  H    4.643220   5.792737   4.466395   3.867205   2.741631
    27  H    4.593208   5.877309   4.661233   3.919330   2.801106
    28  H    5.983321   7.136132   5.994501   5.299631   3.459068
    29  H    6.119627   7.570553   5.909854   4.746699   3.312876
                   11         12         13         14         15
    11  C    0.000000
    12  C    1.523232   0.000000
    13  N    3.086038   3.330652   0.000000
    14  H    4.737133   5.435553   2.946063   0.000000
    15  H    4.194270   3.513157   2.379794   4.329995   0.000000
    16  H    6.063277   5.030760   4.822917   6.115367   2.491300
    17  H    8.036122   7.238885   7.016781   7.086736   5.110614
    18  H    7.556046   6.710266   7.245815   7.432310   5.469662
    19  H    7.529845   6.466174   6.882233   7.622523   4.736001
    20  H    6.228812   5.854098   5.971704   5.461066   4.929291
    21  H    4.440759   4.618945   4.247810   3.355602   4.241725
    22  H    2.177621   3.477923   3.396310   3.446299   4.973419
    23  H    2.169588   2.732191   3.613312   3.973120   4.280179
    24  H    1.093389   2.157157   4.148105   5.551515   5.244426
    25  H    1.091940   2.143859   2.731511   4.681396   4.270950
    26  H    2.164471   1.088574   4.028818   5.746017   3.814860
    27  H    2.148518   1.085587   2.631686   5.015508   2.480763
    28  H    2.157553   1.087502   4.064791   6.403087   4.202331
    29  H    3.475406   3.993072   1.007011   2.998778   3.292785
                   16         17         18         19         20
    16  H    0.000000
    17  H    3.151459   0.000000
    18  H    3.677479   1.761146   0.000000
    19  H    2.443471   1.762026   1.771245   0.000000
    20  H    4.269119   3.083726   2.476154   3.699516   0.000000
    21  H    4.927880   5.060992   4.744369   5.480121   2.481659
    22  H    6.842480   8.184320   7.795629   8.130604   5.878283
    23  H    5.645175   6.793102   6.191404   6.610380   4.437771
    24  H    6.972346   8.813476   8.162537   8.254584   6.811153
    25  H    6.422279   8.623064   8.318872   8.146309   7.003480
    26  H    4.844160   6.710873   5.965219   5.892573   5.181911
    27  H    4.187506   6.640527   6.350532   5.909248   5.608916
    28  H    5.627815   8.020280   7.451887   7.073068   6.816346
    29  H    5.757138   7.937385   8.220615   7.862675   6.850885
                   21         22         23         24         25
    21  H    0.000000
    22  H    3.556333   0.000000
    23  H    2.509373   1.775976   0.000000
    24  H    5.042196   2.467746   2.559671   0.000000
    25  H    5.109811   2.523671   3.052397   1.768303   0.000000
    26  H    4.241980   3.738017   2.504653   2.542044   3.054618
    27  H    4.478707   3.810008   3.098500   3.051271   2.440207
    28  H    5.697284   4.306722   3.724304   2.457647   2.506854
    29  H    4.961549   3.573824   4.220871   4.443177   2.847147
                   26         27         28         29
    26  H    0.000000
    27  H    1.767763   0.000000
    28  H    1.765878   1.764412   0.000000
    29  H    4.798445   3.413909   4.609609   0.000000
 Stoichiometry    C10H16N2S
 Framework group  C1[X(C10H16N2S)]
 Deg. of freedom    81
 Full point group                 C1      NOp   1
 Largest Abelian subgroup         C1      NOp   1
 Largest concise Abelian subgroup C1      NOp   1
                         Standard orientation:                         
 ---------------------------------------------------------------------
 Center     Atomic      Atomic             Coordinates (Angstroms)
 Number     Number       Type             X           Y           Z
 ---------------------------------------------------------------------
      1          7           0        1.793516   -2.223115   -0.225508
      2         16           0        1.468304   -0.800897    0.270023
      3          6           0       -0.290298   -0.402246    0.151903
      4          6           0       -0.932225    0.279949    1.165930
      5          6           0       -2.284985    0.547137    1.053287
      6          6           0       -3.002510    0.129377   -0.062323
      7          6           0       -4.471456    0.401654   -0.171954
      8          6           0       -2.339750   -0.575620   -1.062570
      9          6           0       -0.988112   -0.846264   -0.956174
     10          6           0        2.176261    0.172468   -1.131856
     11          6           0        2.705848    1.517871   -0.678670
     12          6           0        1.587988    2.447572   -0.224490
     13          7           0        1.831321   -0.278838    1.673068
     14          1           0        1.590092   -2.946434    0.446273
     15          1           0       -0.358800    0.582023    2.027624
     16          1           0       -2.791762    1.084695    1.841643
     17          1           0       -5.034712   -0.438591    0.235258
     18          1           0       -4.766464    0.530306   -1.210743
     19          1           0       -4.744677    1.292686    0.387885
     20          1           0       -2.889622   -0.916942   -1.927872
     21          1           0       -0.467001   -1.411166   -1.715065
     22          1           0        2.957987   -0.472630   -1.525055
     23          1           0        1.384531    0.275536   -1.869400
     24          1           0        3.261736    1.976234   -1.501100
     25          1           0        3.397905    1.361736    0.151397
     26          1           0        0.838303    2.562117   -1.005416
     27          1           0        1.110537    2.041438    0.661849
     28          1           0        1.987559    3.429847    0.016632
     29          1           0        2.693095   -0.654232    2.034309
 ---------------------------------------------------------------------
 Rotational constants (GHZ):           1.2496816           0.4509493           0.4114876
 Standard basis: def2SVP (5D, 7F)
 There are   279 symmetry adapted cartesian basis functions of A   symmetry.
 There are   266 symmetry adapted basis functions of A   symmetry.
   266 basis functions,   449 primitive gaussians,   279 cartesian basis functions
    53 alpha electrons       53 beta electrons
       nuclear repulsion energy       942.9265108027 Hartrees.
 NAtoms=   29 NActive=   29 NUniq=   29 SFac= 1.00D+00 NAtFMM=   60 NAOKFM=F Big=F
 Integral buffers will be    131072 words long.
 Raffenetti 2 integral format.
 Two-electron integral symmetry is turned on.
 Nuclear repulsion after empirical dispersion term =      942.8938346931 Hartrees.
 One-electron integrals computed using PRISM.
   1 Symmetry operations used in ECPInt.
 ECPInt:  NShTT=    8256 NPrTT=   29630 LenC2=    7919 LenP2D=   21173.
 LDataN:  DoStor=T MaxTD1= 4 Len=   56
 NBasis=   266 RedAO= T EigKep=  2.44D-04  NBF=   266
 NBsUse=   266 1.00D-06 EigRej= -1.00D+00 NBFU=   266
 ExpMin= 1.22D-01 ExpMax= 9.18D+03 ExpMxC= 1.38D+03 IAcc=3 IRadAn=         5 AccDes= 0.00D+00
 Harris functional with IExCor= 1009 and IRadAn=       5 diagonalized for initial guess.
 HarFok:  IExCor= 1009 AccDes= 0.00D+00 IRadAn=         5 IDoV= 1 UseB2=F ITyADJ=14
 ICtDFT=  3500011 ScaDFX=  1.000000  1.000000  1.000000  1.000000
 FoFCou: FMM=F IPFlag=           0 FMFlag=      100000 FMFlg1=           0
         NFxFlg=           0 DoJE=T BraDBF=F KetDBF=T FulRan=T
         wScrn=  0.000000 ICntrl=       500 IOpCl=  0 I1Cent=   200000004 NGrid=           0
         NMat0=    1 NMatS0=      1 NMatT0=    0 NMatD0=    1 NMtDS0=    0 NMtDT0=    0
 Petite list used in FoFCou.
 Requested convergence on RMS density matrix=1.00D-08 within 128 cycles.
 Requested convergence on MAX density matrix=1.00D-06.
 Requested convergence on             energy=1.00D-06.
 No special actions if energy rises.
 Integral accuracy reduced to 1.0D-05 until final iterations.
 Initial convergence to 1.0D-05 achieved.  Increase integral accuracy.
 SCF Done:  E(RPBE1PBE) =  -897.077981195     A.U. after   14 cycles
            NFock= 14  Conv=0.71D-08     -V/T= 2.0066

 **********************************************************************

            Population analysis using the SCF Density.

 **********************************************************************

 Orbital symmetries:
       Occupied  (A) (A) (A) (A) (A) (A) (A) (A) (A) (A) (A) (A)
                 (A) (A) (A) (A) (A) (A) (A) (A) (A) (A) (A) (A)
                 (A) (A) (A) (A) (A) (A) (A) (A) (A) (A) (A) (A)
                 (A) (A) (A) (A) (A) (A) (A) (A) (A) (A) (A) (A)
                 (A) (A) (A) (A) (A)
       Virtual   (A) (A) (A) (A) (A) (A) (A) (A) (A) (A) (A) (A)
                 (A) (A) (A) (A) (A) (A) (A) (A) (A) (A) (A) (A)
                 (A) (A) (A) (A) (A) (A) (A) (A) (A) (A) (A) (A)
                 (A) (A) (A) (A) (A) (A) (A) (A) (A) (A) (A) (A)
                 (A) (A) (A) (A) (A) (A) (A) (A) (A) (A) (A) (A)
                 (A) (A) (A) (A) (A) (A) (A) (A) (A) (A) (A) (A)
                 (A) (A) (A) (A) (A) (A) (A) (A) (A) (A) (A) (A)
                 (A) (A) (A) (A) (A) (A) (A) (A) (A) (A) (A) (A)
                 (A) (A) (A) (A) (A) (A) (A) (A) (A) (A) (A) (A)
                 (A) (A) (A) (A) (A) (A) (A) (A) (A) (A) (A) (A)
                 (A) (A) (A) (A) (A) (A) (A) (A) (A) (A) (A) (A)
                 (A) (A) (A) (A) (A) (A) (A) (A) (A) (A) (A) (A)
                 (A) (A) (A) (A) (A) (A) (A) (A) (A) (A) (A) (A)
                 (A) (A) (A) (A) (A) (A) (A) (A) (A) (A) (A) (A)
                 (A) (A) (A) (A) (A) (A) (A) (A) (A) (A) (A) (A)
                 (A) (A) (A) (A) (A) (A) (A) (A) (A) (A) (A) (A)
                 (A) (A) (A) (A) (A) (A) (A) (A) (A) (A) (A) (A)
                 (A) (A) (A) (A) (A) (A) (A) (A) (A)
 The electronic state is 1-A.
 Alpha  occ. eigenvalues --  -89.17297 -14.34137 -14.33678 -10.25704 -10.25445
 Alpha  occ. eigenvalues --  -10.25289 -10.24980 -10.24366 -10.24348 -10.24121
 Alpha  occ. eigenvalues --  -10.23749 -10.23564 -10.21454  -8.14756  -6.08889
 Alpha  occ. eigenvalues --   -6.08792  -6.08747  -0.99806  -0.89409  -0.84596
 Alpha  occ. eigenvalues --   -0.81655  -0.80686  -0.77532  -0.73050  -0.71130
 Alpha  occ. eigenvalues --   -0.65185  -0.63755  -0.60880  -0.58715  -0.54428
 Alpha  occ. eigenvalues --   -0.52013  -0.49311  -0.49242  -0.47461  -0.46611
 Alpha  occ. eigenvalues --   -0.44778  -0.44617  -0.44562  -0.42983  -0.41470
 Alpha  occ. eigenvalues --   -0.40794  -0.39146  -0.37774  -0.36553  -0.36240
 Alpha  occ. eigenvalues --   -0.35720  -0.35255  -0.33341  -0.27904  -0.27342
 Alpha  occ. eigenvalues --   -0.26242  -0.24975  -0.23431
 Alpha virt. eigenvalues --   -0.02532  -0.01304   0.06392   0.06737   0.08259
 Alpha virt. eigenvalues --    0.08706   0.09378   0.10165   0.10725   0.11271
 Alpha virt. eigenvalues --    0.12316   0.12685   0.13432   0.14957   0.15154
 Alpha virt. eigenvalues --    0.15497   0.16065   0.16490   0.17272   0.18177
 Alpha virt. eigenvalues --    0.20069   0.20228   0.22132   0.23315   0.24038
 Alpha virt. eigenvalues --    0.26646   0.30502   0.31034   0.32252   0.33638
 Alpha virt. eigenvalues --    0.34636   0.38925   0.40384   0.41803   0.42871
 Alpha virt. eigenvalues --    0.43629   0.44252   0.45263   0.45891   0.46320
 Alpha virt. eigenvalues --    0.46775   0.48294   0.49515   0.50974   0.52559
 Alpha virt. eigenvalues --    0.53435   0.54523   0.57438   0.59132   0.60726
 Alpha virt. eigenvalues --    0.61356   0.62308   0.63414   0.63955   0.65166
 Alpha virt. eigenvalues --    0.65315   0.66096   0.66566   0.66933   0.67291
 Alpha virt. eigenvalues --    0.68212   0.68761   0.68866   0.69297   0.70401
 Alpha virt. eigenvalues --    0.70488   0.71055   0.71586   0.72276   0.73203
 Alpha virt. eigenvalues --    0.73413   0.74494   0.75199   0.76347   0.77390
 Alpha virt. eigenvalues --    0.78653   0.79447   0.80162   0.81516   0.82775
 Alpha virt. eigenvalues --    0.83400   0.85326   0.86714   0.88055   0.89216
 Alpha virt. eigenvalues --    0.90084   0.92169   0.95633   0.96960   0.99810
 Alpha virt. eigenvalues --    1.02402   1.03347   1.04686   1.06574   1.09739
 Alpha virt. eigenvalues --    1.12720   1.13827   1.14590   1.17312   1.19325
 Alpha virt. eigenvalues --    1.20274   1.23546   1.24648   1.25242   1.26025
 Alpha virt. eigenvalues --    1.27678   1.28270   1.31779   1.33197   1.35323
 Alpha virt. eigenvalues --    1.36180   1.39824   1.44308   1.47176   1.48867
 Alpha virt. eigenvalues --    1.50123   1.51469   1.52536   1.54920   1.55290
 Alpha virt. eigenvalues --    1.57347   1.60708   1.65597   1.68067   1.69299
 Alpha virt. eigenvalues --    1.70469   1.73203   1.73913   1.75345   1.75510
 Alpha virt. eigenvalues --    1.76598   1.77864   1.78194   1.79341   1.79850
 Alpha virt. eigenvalues --    1.80915   1.81676   1.82041   1.83390   1.85347
 Alpha virt. eigenvalues --    1.86157   1.86351   1.86880   1.88445   1.90107
 Alpha virt. eigenvalues --    1.91950   1.93463   1.95448   1.97683   1.99206
 Alpha virt. eigenvalues --    1.99816   2.00880   2.04503   2.05613   2.06711
 Alpha virt. eigenvalues --    2.09548   2.10728   2.13753   2.14823   2.15892
 Alpha virt. eigenvalues --    2.16830   2.17680   2.20892   2.23878   2.24962
 Alpha virt. eigenvalues --    2.27778   2.28972   2.31625   2.33375   2.35017
 Alpha virt. eigenvalues --    2.36529   2.36887   2.39305   2.41359   2.43080
 Alpha virt. eigenvalues --    2.44031   2.46069   2.49702   2.50223   2.51801
 Alpha virt. eigenvalues --    2.56781   2.58016   2.58498   2.60269   2.60589
 Alpha virt. eigenvalues --    2.61494   2.62531   2.65709   2.66281   2.66734
 Alpha virt. eigenvalues --    2.67839   2.76481   2.77256   2.78649   2.86415
 Alpha virt. eigenvalues --    2.86823   2.88574   2.90122   2.92004   2.93374
 Alpha virt. eigenvalues --    2.94733   2.96829   2.97244   2.97464   3.00814
 Alpha virt. eigenvalues --    3.02384   3.08800   3.11763   3.16801   3.25707
 Alpha virt. eigenvalues --    3.29642   3.32823   3.62003
          Condensed to atoms (all electrons):
               1          2          3          4          5          6
     1  N    6.887209   0.365039  -0.060741  -0.000242   0.000051  -0.000045
     2  S    0.365039  14.713026   0.107992  -0.027582   0.005640   0.000353
     3  C   -0.060741   0.107992   5.893185   0.265916   0.117759  -0.203400
     4  C   -0.000242  -0.027582   0.265916   5.085937   0.219949   0.115545
     5  C    0.000051   0.005640   0.117759   0.219949   5.170602   0.254694
     6  C   -0.000045   0.000353  -0.203400   0.115545   0.254694   5.324777
     7  C    0.000000   0.000015   0.000966   0.009231  -0.077741   0.412530
     8  C    0.001167   0.000452   0.105474  -0.128333   0.063581   0.264630
     9  C    0.008729  -0.066918   0.174398   0.055940  -0.138786   0.107969
    10  C   -0.106676   0.242487  -0.115082   0.003242  -0.000093  -0.000079
    11  C    0.006286  -0.057975  -0.002274   0.000422   0.000003   0.000005
    12  C   -0.000188  -0.004609   0.003664  -0.002275  -0.000820  -0.000028
    13  N   -0.038815   0.386793  -0.096817  -0.005518   0.002251  -0.000059
    14  H    0.322912  -0.013783  -0.003934   0.000580  -0.000035  -0.000008
    15  H    0.000136  -0.014599  -0.053600   0.441383  -0.066750   0.013788
    16  H    0.000002  -0.000152   0.017617  -0.069240   0.457525  -0.079493
    17  H   -0.000000  -0.000000   0.000121  -0.000407  -0.002534  -0.015056
    18  H    0.000000  -0.000000   0.000016  -0.000519   0.007432  -0.019118
    19  H    0.000000  -0.000000   0.000030   0.000737  -0.009369  -0.019059
    20  H   -0.000008  -0.000172   0.017374  -0.001857   0.014999  -0.078057
    21  H    0.018757  -0.008647  -0.085614   0.014018  -0.002381   0.015340
    22  H    0.021081  -0.010787   0.007617  -0.000225  -0.000004   0.000006
    23  H    0.001471  -0.016659   0.007700   0.000082  -0.000012   0.000041
    24  H   -0.000262   0.006064  -0.000511  -0.000048   0.000001  -0.000001
    25  H    0.000882  -0.004483   0.001370   0.000104   0.000008   0.000000
    26  H    0.000008  -0.002143   0.000765  -0.000142   0.000135   0.000051
    27  H    0.000241   0.005635  -0.001535  -0.000125   0.000747  -0.000136
    28  H    0.000006   0.000033   0.000056   0.000069   0.000029  -0.000001
    29  H    0.000531  -0.017234   0.011211   0.000025  -0.000064   0.000009
               7          8          9         10         11         12
     1  N    0.000000   0.001167   0.008729  -0.106676   0.006286  -0.000188
     2  S    0.000015   0.000452  -0.066918   0.242487  -0.057975  -0.004609
     3  C    0.000966   0.105474   0.174398  -0.115082  -0.002274   0.003664
     4  C    0.009231  -0.128333   0.055940   0.003242   0.000422  -0.002275
     5  C   -0.077741   0.063581  -0.138786  -0.000093   0.000003  -0.000820
     6  C    0.412530   0.264630   0.107969  -0.000079   0.000005  -0.000028
     7  C    4.566959  -0.079294   0.009907  -0.000000  -0.000000   0.000000
     8  C   -0.079294   5.075228   0.304011  -0.000541   0.000080  -0.000050
     9  C    0.009907   0.304011   5.137130  -0.003410   0.001250   0.000210
    10  C   -0.000000  -0.000541  -0.003410   5.202889   0.345497  -0.059257
    11  C   -0.000000   0.000080   0.001250   0.345497   4.702267   0.418350
    12  C    0.000000  -0.000050   0.000210  -0.059257   0.418350   4.615752
    13  N    0.000000  -0.000027   0.007321  -0.073095   0.015615  -0.012992
    14  H   -0.000000  -0.000103  -0.001775   0.010798  -0.000548   0.000024
    15  H   -0.000217  -0.002060   0.014450   0.001185   0.000010  -0.002314
    16  H   -0.015127   0.015394  -0.001982   0.000004   0.000002  -0.000002
    17  H    0.385847  -0.003007  -0.000284   0.000000   0.000000  -0.000000
    18  H    0.389632  -0.008939   0.000685  -0.000000  -0.000000   0.000000
    19  H    0.390247   0.007983  -0.000576   0.000000  -0.000000  -0.000000
    20  H   -0.014225   0.458321  -0.070707   0.000022  -0.000000  -0.000001
    21  H   -0.000257  -0.050588   0.444028  -0.000287   0.000603   0.000028
    22  H    0.000000  -0.000003   0.000492   0.342227  -0.011275   0.007034
    23  H   -0.000002   0.000015   0.001320   0.350781  -0.019439  -0.007680
    24  H   -0.000000   0.000000  -0.000042  -0.014264   0.371928  -0.020537
    25  H   -0.000000   0.000003  -0.000143  -0.038578   0.371346  -0.025702
    26  H   -0.000002   0.000116   0.000032  -0.006133  -0.030613   0.394474
    27  H   -0.000002  -0.000021  -0.000755  -0.010488  -0.025482   0.400188
    28  H    0.000000  -0.000001   0.000003   0.007615  -0.013682   0.376895
    29  H   -0.000000  -0.000009  -0.000339  -0.002817  -0.001457   0.000508
              13         14         15         16         17         18
     1  N   -0.038815   0.322912   0.000136   0.000002  -0.000000   0.000000
     2  S    0.386793  -0.013783  -0.014599  -0.000152  -0.000000  -0.000000
     3  C   -0.096817  -0.003934  -0.053600   0.017617   0.000121   0.000016
     4  C   -0.005518   0.000580   0.441383  -0.069240  -0.000407  -0.000519
     5  C    0.002251  -0.000035  -0.066750   0.457525  -0.002534   0.007432
     6  C   -0.000059  -0.000008   0.013788  -0.079493  -0.015056  -0.019118
     7  C    0.000000  -0.000000  -0.000217  -0.015127   0.385847   0.389632
     8  C   -0.000027  -0.000103  -0.002060   0.015394  -0.003007  -0.008939
     9  C    0.007321  -0.001775   0.014450  -0.001982  -0.000284   0.000685
    10  C   -0.073095   0.010798   0.001185   0.000004   0.000000  -0.000000
    11  C    0.015615  -0.000548   0.000010   0.000002   0.000000  -0.000000
    12  C   -0.012992   0.000024  -0.002314  -0.000002  -0.000000   0.000000
    13  N    6.836012  -0.001089   0.030261  -0.000014  -0.000000   0.000000
    14  H   -0.001089   0.569468   0.000043   0.000000   0.000000  -0.000000
    15  H    0.030261   0.000043   0.601893  -0.011113   0.000008   0.000008
    16  H   -0.000014   0.000000  -0.011113   0.676111   0.000802   0.000172
    17  H   -0.000000   0.000000   0.000008   0.000802   0.605060  -0.018967
    18  H    0.000000  -0.000000   0.000008   0.000172  -0.018967   0.621171
    19  H    0.000000   0.000000  -0.000009   0.005682  -0.018658  -0.022442
    20  H    0.000001   0.000004   0.000030  -0.000270   0.000976   0.005152
    21  H    0.000603  -0.000570  -0.000301   0.000037   0.000003   0.000002
    22  H    0.001114  -0.001045  -0.000035  -0.000000  -0.000000   0.000000
    23  H    0.002402  -0.000599  -0.000090  -0.000001   0.000000   0.000000
    24  H    0.000297   0.000016   0.000005   0.000000   0.000000  -0.000000
    25  H    0.018725  -0.000122  -0.000054  -0.000000   0.000000  -0.000000
    26  H    0.000516  -0.000001   0.000075  -0.000002   0.000000  -0.000000
    27  H    0.017669  -0.000002   0.004156   0.000050   0.000000  -0.000000
    28  H    0.000233  -0.000001   0.000038  -0.000000  -0.000000   0.000000
    29  H    0.329245   0.001098  -0.000925  -0.000003   0.000000  -0.000000
              19         20         21         22         23         24
     1  N    0.000000  -0.000008   0.018757   0.021081   0.001471  -0.000262
     2  S   -0.000000  -0.000172  -0.008647  -0.010787  -0.016659   0.006064
     3  C    0.000030   0.017374  -0.085614   0.007617   0.007700  -0.000511
     4  C    0.000737  -0.001857   0.014018  -0.000225   0.000082  -0.000048
     5  C   -0.009369   0.014999  -0.002381  -0.000004  -0.000012   0.000001
     6  C   -0.019059  -0.078057   0.015340   0.000006   0.000041  -0.000001
     7  C    0.390247  -0.014225  -0.000257   0.000000  -0.000002  -0.000000
     8  C    0.007983   0.458321  -0.050588  -0.000003   0.000015   0.000000
     9  C   -0.000576  -0.070707   0.444028   0.000492   0.001320  -0.000042
    10  C    0.000000   0.000022  -0.000287   0.342227   0.350781  -0.014264
    11  C   -0.000000  -0.000000   0.000603  -0.011275  -0.019439   0.371928
    12  C   -0.000000  -0.000001   0.000028   0.007034  -0.007680  -0.020537
    13  N    0.000000   0.000001   0.000603   0.001114   0.002402   0.000297
    14  H    0.000000   0.000004  -0.000570  -0.001045  -0.000599   0.000016
    15  H   -0.000009   0.000030  -0.000301  -0.000035  -0.000090   0.000005
    16  H    0.005682  -0.000270   0.000037  -0.000000  -0.000001   0.000000
    17  H   -0.018658   0.000976   0.000003  -0.000000   0.000000   0.000000
    18  H   -0.022442   0.005152   0.000002   0.000000   0.000000  -0.000000
    19  H    0.620518   0.000132   0.000010  -0.000000  -0.000000  -0.000000
    20  H    0.000132   0.675955  -0.012064  -0.000002   0.000001   0.000000
    21  H    0.000010  -0.012064   0.643204  -0.000132   0.001508  -0.000012
    22  H   -0.000000  -0.000002  -0.000132   0.579285  -0.007507  -0.007233
    23  H   -0.000000   0.000001   0.001508  -0.007507   0.603347  -0.005586
    24  H   -0.000000   0.000000  -0.000012  -0.007233  -0.005586   0.653116
    25  H   -0.000000  -0.000000  -0.000023  -0.002273   0.009478  -0.025492
    26  H   -0.000000   0.000002  -0.000050   0.000021   0.007534  -0.006809
    27  H    0.000001   0.000002  -0.000129  -0.000152  -0.001142   0.008327
    28  H    0.000000  -0.000000   0.000001  -0.000343   0.000190  -0.007841
    29  H   -0.000000  -0.000000  -0.000040   0.000921  -0.000005  -0.000046
              25         26         27         28         29
     1  N    0.000882   0.000008   0.000241   0.000006   0.000531
     2  S   -0.004483  -0.002143   0.005635   0.000033  -0.017234
     3  C    0.001370   0.000765  -0.001535   0.000056   0.011211
     4  C    0.000104  -0.000142  -0.000125   0.000069   0.000025
     5  C    0.000008   0.000135   0.000747   0.000029  -0.000064
     6  C    0.000000   0.000051  -0.000136  -0.000001   0.000009
     7  C   -0.000000  -0.000002  -0.000002   0.000000  -0.000000
     8  C    0.000003   0.000116  -0.000021  -0.000001  -0.000009
     9  C   -0.000143   0.000032  -0.000755   0.000003  -0.000339
    10  C   -0.038578  -0.006133  -0.010488   0.007615  -0.002817
    11  C    0.371346  -0.030613  -0.025482  -0.013682  -0.001457
    12  C   -0.025702   0.394474   0.400188   0.376895   0.000508
    13  N    0.018725   0.000516   0.017669   0.000233   0.329245
    14  H   -0.000122  -0.000001  -0.000002  -0.000001   0.001098
    15  H   -0.000054   0.000075   0.004156   0.000038  -0.000925
    16  H   -0.000000  -0.000002   0.000050  -0.000000  -0.000003
    17  H    0.000000   0.000000   0.000000  -0.000000   0.000000
    18  H   -0.000000  -0.000000  -0.000000   0.000000  -0.000000
    19  H   -0.000000  -0.000000   0.000001   0.000000  -0.000000
    20  H   -0.000000   0.000002   0.000002  -0.000000  -0.000000
    21  H   -0.000023  -0.000050  -0.000129   0.000001  -0.000040
    22  H   -0.002273   0.000021  -0.000152  -0.000343   0.000921
    23  H    0.009478   0.007534  -0.001142   0.000190  -0.000005
    24  H   -0.025492  -0.006809   0.008327  -0.007841  -0.000046
    25  H    0.659314   0.008583  -0.010554  -0.004435   0.001631
    26  H    0.008583   0.646670  -0.024778  -0.022624  -0.000016
    27  H   -0.010554  -0.024778   0.597746  -0.014313  -0.000548
    28  H   -0.004435  -0.022624  -0.014313   0.639060  -0.000020
    29  H    0.001631  -0.000016  -0.000548  -0.000020   0.555725
 Mulliken charges:
               1
     1  N   -0.427532
     2  S    0.412215
     3  C   -0.109721
     4  C    0.023330
     5  C   -0.016818
     6  C   -0.095200
     7  C    0.021532
     8  C   -0.023479
     9  C    0.017842
    10  C   -0.075948
    11  C   -0.070921
    12  C   -0.080672
    13  N   -0.420633
    14  H    0.118673
    15  H    0.044599
    16  H    0.004001
    17  H    0.066096
    18  H    0.045715
    19  H    0.044775
    20  H    0.004391
    21  H    0.022953
    22  H    0.081219
    23  H    0.072851
    24  H    0.048928
    25  H    0.040415
    26  H    0.034332
    27  H    0.055404
    28  H    0.039031
    29  H    0.122620
 Sum of Mulliken charges =  -0.00000
 Mulliken charges with hydrogens summed into heavy atoms:
               1
     1  N   -0.308859
     2  S    0.412215
     3  C   -0.109721
     4  C    0.067929
     5  C   -0.012817
     6  C   -0.095200
     7  C    0.178118
     8  C   -0.019088
     9  C    0.040794
    10  C    0.078123
    11  C    0.018423
    12  C    0.048095
    13  N   -0.298013
 Electronic spatial extent (au):  <R**2>=           3017.1153
 Charge=             -0.0000 electrons
 Dipole moment (field-independent basis, Debye):
    X=             -1.8239    Y=              1.1318    Z=             -0.7819  Tot=              2.2845
 Quadrupole moment (field-independent basis, Debye-Ang):
   XX=            -76.8662   YY=            -89.3689   ZZ=            -85.5801
   XY=              2.2816   XZ=              0.8161   YZ=             -2.6122
 Traceless Quadrupole moment (field-independent basis, Debye-Ang):
   XX=              7.0722   YY=             -5.4305   ZZ=             -1.6417
   XY=              2.2816   XZ=              0.8161   YZ=             -2.6122
 Octapole moment (field-independent basis, Debye-Ang**2):
  XXX=            -11.6960  YYY=             -3.1283  ZZZ=             -4.7337  XYY=             -0.8457
  XXY=              9.2457  XXZ=              4.6563  XZZ=             -0.6785  YZZ=             -2.1579
  YYZ=             11.9370  XYZ=            -16.4327
 Hexadecapole moment (field-independent basis, Debye-Ang**3):
 XXXX=          -2595.5294 YYYY=           -795.1297 ZZZZ=           -508.4984 XXXY=             -1.3086
 XXXZ=             34.6084 YYYX=              5.4677 YYYZ=            -32.0665 ZZZX=              8.8397
 ZZZY=              3.1336 XXYY=           -612.1382 XXZZ=           -511.9500 YYZZ=           -216.9489
 XXYZ=            -14.0211 YYXZ=             19.5693 ZZXY=             -9.4773
 N-N= 9.428938346931D+02 E-N=-3.987265115093D+03  KE= 8.912342328182D+02
   1 Symmetry operations used in ECPInt.
 ECPInt:  NShTT=    8256 NPrTT=   29630 LenC2=    7919 LenP2D=   21173.
 LDataN:  DoStor=T MaxTD1= 5 Len=  102
 Calling FoFJK, ICntrl=      2127 FMM=F ISym2X=0 I1Cent= 0 IOpClX= 0 NMat=1 NMatS=1 NMatT=0.
 ***** Axes restored to original set *****
 -------------------------------------------------------------------
 Center     Atomic                   Forces (Hartrees/Bohr)
 Number     Number              X              Y              Z
 -------------------------------------------------------------------
      1        7          -0.008099712    0.011086736    0.014599516
      2       16          -0.005905623   -0.004552257    0.005514833
      3        6          -0.009559887   -0.001095134   -0.003618411
      4        6           0.000939820   -0.000876307   -0.002495226
      5        6          -0.001332381   -0.000446671    0.002559348
      6        6           0.009164069    0.002638619   -0.000805088
      7        6          -0.008505380   -0.002257783    0.000538361
      8        6          -0.002259891   -0.000279508   -0.001425689
      9        6          -0.001715573   -0.000566804    0.002425890
     10        6          -0.002683874   -0.002029987   -0.010279346
     11        6           0.015701428   -0.002165936   -0.002499142
     12        6          -0.010196829   -0.001166628    0.005103368
     13        7           0.014194683    0.007298654   -0.010804025
     14        1           0.007992593   -0.008257613   -0.007180192
     15        1          -0.005560800   -0.001920542   -0.008100061
     16        1           0.003904622    0.000448663   -0.008330317
     17        1           0.005895331   -0.005895293    0.000598578
     18        1           0.003494425    0.005088265    0.005312355
     19        1           0.003135262    0.003500528   -0.006643555
     20        1           0.004364932    0.001752298    0.007715378
     21        1          -0.003704503   -0.001058102    0.009106670
     22        1          -0.003760833   -0.005083080    0.004949683
     23        1           0.005840463    0.003600336    0.005608965
     24        1          -0.004211933    0.002591291    0.003960523
     25        1          -0.006010777   -0.003030352   -0.002801305
     26        1           0.006445610    0.004767437    0.003669014
     27        1           0.004182377   -0.004487461   -0.005395392
     28        1          -0.001907978    0.005465177   -0.006596785
     29        1          -0.009839640   -0.003068546    0.005312053
 -------------------------------------------------------------------
 Cartesian Forces:  Max     0.015701428 RMS     0.005887425

 GradGradGradGradGradGradGradGradGradGradGradGradGradGradGradGradGradGrad
 Berny optimization.
 FormGI is forming the generalized inverse of G from B-inverse, IUseBI=4.
 Internal  Forces:  Max     0.013373832 RMS     0.004170850
 Search for a local minimum.
 Step number   1 out of a maximum of  158
 All quantities printed in internal units (Hartrees-Bohrs-Radians)
 Mixed Optimization -- RFO/linear search
 Second derivative matrix not updated -- first step.
 ITU=  0
     Eigenvalues ---    0.00230   0.00277   0.00459   0.00564   0.00793
     Eigenvalues ---    0.01504   0.01661   0.02221   0.02255   0.02265
     Eigenvalues ---    0.02295   0.02319   0.02324   0.02333   0.03402
     Eigenvalues ---    0.03407   0.03750   0.03761   0.04838   0.04994
     Eigenvalues ---    0.05659   0.05761   0.06818   0.07235   0.07432
     Eigenvalues ---    0.08205   0.08213   0.08251   0.09014   0.12014
     Eigenvalues ---    0.12123   0.15998   0.16000   0.16000   0.16000
     Eigenvalues ---    0.16000   0.16000   0.16000   0.16000   0.16000
     Eigenvalues ---    0.16000   0.16000   0.16000   0.16055   0.19211
     Eigenvalues ---    0.21952   0.21995   0.21998   0.22694   0.22975
     Eigenvalues ---    0.23990   0.24974   0.24990   0.25566   0.30057
     Eigenvalues ---    0.30830   0.32590   0.34424   0.34589   0.34760
     Eigenvalues ---    0.34978   0.35103   0.35103   0.35138   0.35146
     Eigenvalues ---    0.35169   0.35328   0.35927   0.35944   0.35984
     Eigenvalues ---    0.36209   0.43534   0.43553   0.46326   0.46477
     Eigenvalues ---    0.47437   0.48060   0.48550   0.48800   0.64613
     Eigenvalues ---    0.64712
 RFO step:  Lambda=-9.61242111D-03 EMin= 2.30000000D-03
 Linear search not attempted -- first point.
 Iteration  1 RMS(Cart)=  0.06523472 RMS(Int)=  0.00167081
 Iteration  2 RMS(Cart)=  0.00287083 RMS(Int)=  0.00016561
 Iteration  3 RMS(Cart)=  0.00000421 RMS(Int)=  0.00016559
 Iteration  4 RMS(Cart)=  0.00000000 RMS(Int)=  0.00016559
 Variable       Old X    -DE/DX   Delta X   Delta X   Delta X     New X
                                 (Linear)    (Quad)   (Total)
    R1        2.91166   0.00406   0.00000   0.00619   0.00619   2.91785
    R2        1.90465   0.01100   0.00000   0.02326   0.02326   1.92791
    R3        3.41490  -0.00165   0.00000  -0.00623  -0.00623   3.40866
    R4        3.49160  -0.00420   0.00000  -0.01777  -0.01777   3.47383
    R5        2.91095   0.00318   0.00000   0.00484   0.00484   2.91579
    R6        2.60872   0.01037   0.00000   0.02094   0.02094   2.62966
    R7        2.61297   0.00976   0.00000   0.01980   0.01981   2.63278
    R8        2.61441   0.00961   0.00000   0.01953   0.01953   2.63394
    R9        2.03756   0.01001   0.00000   0.02692   0.02692   2.06448
   R10        2.62798   0.00999   0.00000   0.02061   0.02061   2.64859
   R11        2.04169   0.00921   0.00000   0.02495   0.02495   2.06664
   R12        2.83078   0.00402   0.00000   0.01198   0.01198   2.84276
   R13        2.62989   0.01017   0.00000   0.02099   0.02098   2.65087
   R14        2.06066   0.00819   0.00000   0.02291   0.02291   2.08357
   R15        2.05508   0.00801   0.00000   0.02221   0.02221   2.07729
   R16        2.05451   0.00801   0.00000   0.02218   0.02218   2.07669
   R17        2.61268   0.00882   0.00000   0.01771   0.01771   2.63038
   R18        2.04196   0.00903   0.00000   0.02447   0.02447   2.06643
   R19        2.04107   0.00984   0.00000   0.02663   0.02663   2.06769
   R20        2.86339   0.00290   0.00000   0.00912   0.00912   2.87251
   R21        2.05438   0.00744   0.00000   0.02061   0.02061   2.07499
   R22        2.05401   0.00875   0.00000   0.02422   0.02422   2.07823
   R23        2.87849   0.00259   0.00000   0.00835   0.00835   2.88684
   R24        2.06621   0.00578   0.00000   0.01633   0.01633   2.08254
   R25        2.06347   0.00698   0.00000   0.01964   0.01964   2.08310
   R26        2.05711   0.00874   0.00000   0.02433   0.02433   2.08143
   R27        2.05146   0.00789   0.00000   0.02173   0.02173   2.07319
   R28        2.05508   0.00860   0.00000   0.02384   0.02384   2.07892
   R29        1.90298   0.00948   0.00000   0.01999   0.01999   1.92296
    A1        1.98829  -0.01337   0.00000  -0.07885  -0.07885   1.90944
    A2        1.96927  -0.00163   0.00000  -0.01265  -0.01256   1.95671
    A3        1.73288  -0.00109   0.00000  -0.00162  -0.00168   1.73120
    A4        2.16038   0.00399   0.00000   0.03102   0.03101   2.19140
    A5        1.77938   0.00220   0.00000   0.00346   0.00339   1.78277
    A6        1.78658  -0.00211   0.00000  -0.01654  -0.01650   1.77008
    A7        2.00670  -0.00151   0.00000  -0.00797  -0.00810   1.99861
    A8        2.11009   0.00293   0.00000   0.01078   0.01070   2.12079
    A9        2.06311  -0.00386   0.00000  -0.01540  -0.01546   2.04765
   A10        2.10908   0.00091   0.00000   0.00380   0.00375   2.11283
   A11        2.08324  -0.00144   0.00000  -0.00571  -0.00570   2.07754
   A12        2.06938   0.00063   0.00000   0.00233   0.00232   2.07170
   A13        2.13054   0.00081   0.00000   0.00340   0.00339   2.13393
   A14        2.10807   0.00171   0.00000   0.00728   0.00729   2.11536
   A15        2.08900  -0.00108   0.00000  -0.00500  -0.00500   2.08400
   A16        2.08611  -0.00062   0.00000  -0.00228  -0.00228   2.08383
   A17        2.10606   0.00091   0.00000   0.00380   0.00380   2.10985
   A18        2.07492  -0.00190   0.00000  -0.00802  -0.00802   2.06690
   A19        2.10189   0.00099   0.00000   0.00413   0.00413   2.10602
   A20        1.91679   0.00186   0.00000   0.01127   0.01122   1.92802
   A21        1.93630   0.00138   0.00000   0.00803   0.00799   1.94429
   A22        1.93662   0.00133   0.00000   0.00764   0.00761   1.94422
   A23        1.88361  -0.00158   0.00000  -0.00892  -0.00897   1.87464
   A24        1.88537  -0.00159   0.00000  -0.00911  -0.00916   1.87621
   A25        1.90365  -0.00158   0.00000  -0.00993  -0.00995   1.89370
   A26        2.10532   0.00165   0.00000   0.00654   0.00653   2.11185
   A27        2.08660  -0.00045   0.00000  -0.00107  -0.00108   2.08551
   A28        2.09126  -0.00120   0.00000  -0.00549  -0.00549   2.08577
   A29        2.08539  -0.00094   0.00000  -0.00404  -0.00403   2.08136
   A30        2.08005   0.00131   0.00000   0.00696   0.00695   2.08700
   A31        2.11764  -0.00038   0.00000  -0.00300  -0.00301   2.11463
   A32        1.95493   0.00475   0.00000   0.02230   0.02215   1.97707
   A33        1.81042  -0.00464   0.00000  -0.03994  -0.03989   1.77053
   A34        1.86053  -0.00037   0.00000   0.00896   0.00861   1.86914
   A35        1.96464   0.00094   0.00000   0.00673   0.00697   1.97160
   A36        1.95339  -0.00123   0.00000   0.00630   0.00597   1.95936
   A37        1.91200   0.00027   0.00000  -0.00751  -0.00755   1.90445
   A38        1.95478   0.01085   0.00000   0.05377   0.05343   2.00821
   A39        1.90176  -0.00517   0.00000  -0.03689  -0.03683   1.86493
   A40        1.89854  -0.00275   0.00000  -0.00159  -0.00279   1.89575
   A41        1.91933  -0.00223   0.00000  -0.00950  -0.00882   1.91051
   A42        1.90258  -0.00188   0.00000   0.01018   0.00949   1.91207
   A43        1.88548   0.00087   0.00000  -0.01829  -0.01857   1.86690
   A44        1.93449   0.00090   0.00000   0.00607   0.00602   1.94051
   A45        1.91545   0.00221   0.00000   0.01336   0.01330   1.92875
   A46        1.92598   0.00172   0.00000   0.00904   0.00901   1.93499
   A47        1.89884  -0.00131   0.00000  -0.00558  -0.00565   1.89319
   A48        1.89342  -0.00146   0.00000  -0.00927  -0.00929   1.88412
   A49        1.89493  -0.00221   0.00000  -0.01450  -0.01454   1.88038
   A50        1.98458  -0.01188   0.00000  -0.07002  -0.07002   1.91455
    D1       -1.38956   0.00301   0.00000   0.05155   0.05161  -1.33794
    D2        3.02181   0.00156   0.00000   0.05227   0.05237   3.07417
    D3        0.77699   0.00180   0.00000   0.04208   0.04192   0.81891
    D4        2.41531   0.00089   0.00000   0.00810   0.00819   2.42351
    D5       -0.68103   0.00138   0.00000   0.02864   0.02869  -0.65234
    D6       -2.02567   0.00019   0.00000   0.00371   0.00373  -2.02194
    D7        1.16117   0.00068   0.00000   0.02426   0.02423   1.18540
    D8        0.05518  -0.00141   0.00000  -0.00971  -0.00976   0.04542
    D9       -3.04116  -0.00091   0.00000   0.01083   0.01074  -3.03042
   D10       -2.59472  -0.00172   0.00000  -0.02690  -0.02672  -2.62144
   D11       -0.47141  -0.00093   0.00000  -0.03182  -0.03187  -0.50328
   D12        1.54641  -0.00286   0.00000  -0.05443  -0.05442   1.49198
   D13        1.66598  -0.00026   0.00000  -0.01395  -0.01382   1.65216
   D14       -2.49390   0.00052   0.00000  -0.01888  -0.01897  -2.51287
   D15       -0.47608  -0.00141   0.00000  -0.04148  -0.04153  -0.51761
   D16       -0.25176   0.00155   0.00000   0.00658   0.00667  -0.24509
   D17        1.87156   0.00233   0.00000   0.00165   0.00152   1.87307
   D18       -2.39381   0.00040   0.00000  -0.02096  -0.02104  -2.41485
   D19        0.58871   0.00199   0.00000   0.04111   0.04123   0.62994
   D20        2.83405   0.00068   0.00000   0.03096   0.03083   2.86488
   D21       -1.53572   0.00145   0.00000   0.02237   0.02239  -1.51333
   D22       -3.12113   0.00051   0.00000   0.01585   0.01600  -3.10513
   D23        0.01299   0.00056   0.00000   0.01799   0.01812   0.03110
   D24       -0.02598  -0.00012   0.00000  -0.00573  -0.00575  -0.03173
   D25        3.10814  -0.00007   0.00000  -0.00358  -0.00363   3.10451
   D26        3.12265  -0.00022   0.00000  -0.01126  -0.01114   3.11151
   D27       -0.00336  -0.00003   0.00000  -0.00556  -0.00545  -0.00881
   D28        0.02628   0.00022   0.00000   0.00908   0.00907   0.03535
   D29       -3.09973   0.00041   0.00000   0.01478   0.01476  -3.08497
   D30        0.00735   0.00002   0.00000   0.00128   0.00131   0.00866
   D31       -3.13667   0.00006   0.00000   0.00253   0.00254  -3.13413
   D32       -3.12650  -0.00003   0.00000  -0.00094  -0.00089  -3.12738
   D33        0.01267   0.00001   0.00000   0.00032   0.00034   0.01302
   D34        3.12511  -0.00011   0.00000  -0.00406  -0.00407   3.12104
   D35        0.01052  -0.00005   0.00000  -0.00040  -0.00042   0.01011
   D36       -0.01407  -0.00015   0.00000  -0.00531  -0.00529  -0.01936
   D37       -3.12865  -0.00009   0.00000  -0.00165  -0.00164  -3.13029
   D38       -1.60223   0.00006   0.00000   0.00201   0.00202  -1.60021
   D39        2.60010  -0.00003   0.00000   0.00083   0.00083   2.60093
   D40        0.48100   0.00012   0.00000   0.00274   0.00276   0.48376
   D41        1.51193  -0.00004   0.00000  -0.00190  -0.00190   1.51003
   D42       -0.56892  -0.00014   0.00000  -0.00308  -0.00309  -0.57201
   D43       -2.68802   0.00002   0.00000  -0.00117  -0.00116  -2.68918
   D44       -0.01024   0.00015   0.00000   0.00379   0.00379  -0.00645
   D45        3.12731  -0.00004   0.00000  -0.00280  -0.00279   3.12453
   D46       -3.12488   0.00021   0.00000   0.00744   0.00743  -3.11745
   D47        0.01267   0.00002   0.00000   0.00085   0.00086   0.01353
   D48       -0.00789  -0.00021   0.00000  -0.00800  -0.00798  -0.01587
   D49        3.11777  -0.00040   0.00000  -0.01373  -0.01367   3.10410
   D50        3.13775  -0.00003   0.00000  -0.00140  -0.00141   3.13634
   D51       -0.01977  -0.00021   0.00000  -0.00714  -0.00711  -0.02687
   D52       -1.18147  -0.00254   0.00000  -0.07214  -0.07241  -1.25389
   D53        2.97431  -0.00328   0.00000  -0.06998  -0.06970   2.90460
   D54        0.92270   0.00014   0.00000  -0.02641  -0.02651   0.89619
   D55        3.06954  -0.00044   0.00000  -0.04078  -0.04104   3.02849
   D56        0.94213  -0.00118   0.00000  -0.03862  -0.03833   0.90380
   D57       -1.10948   0.00224   0.00000   0.00495   0.00486  -1.10462
   D58        0.90696  -0.00058   0.00000  -0.04082  -0.04101   0.86596
   D59       -1.22044  -0.00132   0.00000  -0.03866  -0.03830  -1.25874
   D60        3.01114   0.00210   0.00000   0.00490   0.00489   3.01603
   D61       -0.96265   0.00094   0.00000   0.02266   0.02283  -0.93982
   D62        1.13512   0.00131   0.00000   0.02824   0.02843   1.16355
   D63       -3.06052   0.00105   0.00000   0.02439   0.02458  -3.03593
   D64        1.15466   0.00011   0.00000   0.00529   0.00536   1.16002
   D65       -3.03076   0.00048   0.00000   0.01087   0.01096  -3.01979
   D66       -0.94321   0.00022   0.00000   0.00702   0.00711  -0.93610
   D67       -3.06447  -0.00127   0.00000  -0.01643  -0.01671  -3.08118
   D68       -0.96670  -0.00089   0.00000  -0.01084  -0.01110  -0.97780
   D69        1.12084  -0.00115   0.00000  -0.01469  -0.01495   1.10589
         Item               Value     Threshold  Converged?
 Maximum Force            0.013374     0.000450     NO 
 RMS     Force            0.004171     0.000300     NO 
 Maximum Displacement     0.331235     0.001800     NO 
 RMS     Displacement     0.066144     0.001200     NO 
 Predicted change in Energy=-5.168180D-03
 GradGradGradGradGradGradGradGradGradGradGradGradGradGradGradGradGradGrad

                          Input orientation:                          
 ---------------------------------------------------------------------
 Center     Atomic      Atomic             Coordinates (Angstroms)
 Number     Number       Type             X           Y           Z
 ---------------------------------------------------------------------
      1          7           0       -1.664370   -1.742415    1.470938
      2         16           0       -1.424283   -0.840559    0.240843
      3          6           0        0.309885   -0.375258    0.068213
      4          6           0        0.936185   -0.350777   -1.174197
      5          6           0        2.289886   -0.025995   -1.243072
      6          6           0        3.026720    0.264104   -0.086645
      7          6           0        4.493560    0.588089   -0.166631
      8          6           0        2.372786    0.208834    1.153157
      9          6           0        1.022448   -0.118223    1.237492
     10          6           0       -2.181639    0.714103    0.864289
     11          6           0       -2.770434    1.579580   -0.237922
     12          6           0       -1.745324    2.272296   -1.134029
     13          7           0       -1.792469   -1.192803   -1.215564
     14          1           0       -1.349477   -2.690249    1.262907
     15          1           0        0.348482   -0.592530   -2.062829
     16          1           0        2.786476    0.001930   -2.217040
     17          1           0        5.097426   -0.327065   -0.050358
     18          1           0        4.794570    1.284074    0.629208
     19          1           0        4.753249    1.034302   -1.136746
     20          1           0        2.934846    0.416217    2.067950
     21          1           0        0.518174   -0.196105    2.205409
     22          1           0       -2.941154    0.324691    1.555069
     23          1           0       -1.407879    1.242279    1.440288
     24          1           0       -3.400516    2.338304    0.253819
     25          1           0       -3.438966    0.957093   -0.854938
     26          1           0       -1.024303    2.853872   -0.538142
     27          1           0       -1.191052    1.533614   -1.726254
     28          1           0       -2.239638    2.961165   -1.835004
     29          1           0       -2.662970   -1.719546   -1.231439
 ---------------------------------------------------------------------
                    Distance matrix (angstroms):
                    1          2          3          4          5
     1  N    0.000000
     2  S    1.544059   0.000000
     3  C    2.781086   1.803787   0.000000
     4  C    3.961853   2.795359   1.391558   0.000000
     5  C    5.093927   4.081736   2.400387   1.393820   0.000000
     6  C    5.334652   4.597713   2.795346   2.435403   1.401572
     7  C    6.784762   6.101470   4.299573   3.814653   2.528241
     8  C    4.495219   4.043672   2.402880   2.791696   2.409135
     9  C    3.148251   2.738899   1.393207   2.424410   2.787131
    10  C    2.582648   1.838273   2.833397   3.874303   4.998325
    11  C    3.896053   2.810411   3.661076   4.282746   5.403244
    12  C    4.786472   3.418071   3.560732   3.751349   4.645100
    13  N    2.745137   1.542970   2.595449   2.855919   4.245918
    14  H    1.020208   2.114607   3.088683   4.078830   5.159762
    15  H    4.226266   2.917383   2.142437   1.092477   2.182204
    16  H    6.037711   4.947876   3.390893   2.153022   1.093616
    17  H    7.073857   6.548372   4.789252   4.310395   3.065207
    18  H    7.182343   6.583238   4.814613   4.562033   3.390450
    19  H    7.462976   6.601118   4.814797   4.060767   2.683970
    20  H    5.115555   4.890788   3.393494   3.885157   3.402115
    21  H    2.773810   2.836896   2.154783   3.408870   3.880712
    22  H    2.431087   2.320753   3.642791   4.789458   5.942756
    23  H    2.995851   2.403571   2.729419   3.855904   4.741561
    24  H    4.598679   3.743105   4.600537   5.298808   6.341236
    25  H    3.980733   2.913973   4.084269   4.577597   5.825535
    26  H    5.056871   3.796791   3.546125   3.810230   4.446842
    27  H    4.602003   3.092016   3.019390   2.894967   3.844838
    28  H    5.777876   4.407613   4.610208   4.635890   5.458031
    29  H    2.881071   2.115320   3.511990   3.851068   5.234409
                    6          7          8          9         10
     6  C    0.000000
     7  C    1.504321   0.000000
     8  C    1.402781   2.526531   0.000000
     9  C    2.432411   3.810388   1.391939   0.000000
    10  C    5.313547   6.755513   4.591463   3.331399   0.000000
    11  C    5.946458   7.331695   5.501524   4.409687   1.520065
    12  C    5.282259   6.534224   5.142755   4.358814   2.571305
    13  N    5.159614   6.617099   4.992472   3.885352   2.848426
    14  H    5.449825   6.850705   4.719319   3.498855   3.527181
    15  H    3.436872   4.708620   3.883628   3.401664   4.083727
    16  H    2.159869   2.731647   3.401791   3.880725   5.889308
    17  H    2.153746   1.102579   3.026434   4.278741   7.409818
    18  H    2.162886   1.099255   2.701055   4.070055   7.003401
    19  H    2.162595   1.098939   3.404652   4.569923   7.224911
    20  H    2.161911   2.729924   1.093510   2.152337   5.264594
    21  H    3.429010   4.695235   2.170437   1.094176   3.148979
    22  H    6.189864   7.636007   5.330377   4.000896   1.098035
    23  H    4.791035   6.151189   3.929870   2.792593   1.099750
    24  H    6.762218   8.096695   6.218880   5.154100   2.120463
    25  H    6.547947   7.970878   6.194256   5.043688   2.143749
    26  H    4.829237   5.976504   4.625682   4.021866   2.807997
    27  H    4.699955   5.970030   4.769381   4.051165   2.892019
    28  H    6.169718   7.331501   6.146453   5.437285   3.512667
    29  H    6.133352   7.594401   5.896083   4.716160   3.247523
                   11         12         13         14         15
    11  C    0.000000
    12  C    1.527650   0.000000
    13  N    3.098113   3.466379   0.000000
    14  H    4.743738   5.525292   2.929404   0.000000
    15  H    4.216158   3.667959   2.379466   4.282991   0.000000
    16  H    6.106156   5.183116   4.837053   6.038540   2.514156
    17  H    8.097759   7.399612   7.041155   6.990842   5.164590
    18  H    7.620271   6.845130   7.275107   7.344803   5.525976
    19  H    7.596777   6.615444   6.914668   7.541478   4.786041
    20  H    6.262641   5.966715   5.976446   5.352910   4.976966
    21  H    4.465184   4.729511   4.246826   3.255331   4.289966
    22  H    2.195155   3.529082   3.361349   3.421792   4.975157
    23  H    2.187857   2.793191   3.623683   3.936960   4.327027
    24  H    1.102032   2.161050   4.148929   5.523710   5.292602
    25  H    1.102331   2.162423   2.731859   4.706839   4.266743
    26  H    2.182413   1.101446   4.174273   5.838389   4.010847
    27  H    2.170643   1.097087   2.838283   5.176988   2.646495
    28  H    2.177428   1.100115   4.223638   6.505991   4.402161
    29  H    3.447152   4.097117   1.017587   2.981492   3.321178
                   16         17         18         19         20
    16  H    0.000000
    17  H    3.184845   0.000000
    18  H    3.711801   1.774627   0.000000
    19  H    2.470025   1.775392   1.784009   0.000000
    20  H    4.307527   3.117123   2.506337   3.736134   0.000000
    21  H    4.974181   5.106387   4.791962   5.533513   2.496826
    22  H    6.865765   8.223196   7.849781   8.182497   5.899050
    23  H    5.701503   6.855936   6.255395   6.681606   4.464929
    24  H    7.059934   8.911327   8.271140   8.373648   6.864568
    25  H    6.443896   8.669857   8.372618   8.197425   7.032873
    26  H    5.047208   6.916058   6.138913   6.086811   5.329984
    27  H    4.290415   6.768731   6.437247   5.994293   5.715557
    28  H    5.845071   8.235893   7.639703   7.287032   6.963123
    29  H    5.799255   7.972309   8.252191   7.911571   6.839810
                   21         22         23         24         25
    21  H    0.000000
    22  H    3.558247   0.000000
    23  H    2.522704   1.790552   0.000000
    24  H    5.058464   2.441086   2.565070   0.000000
    25  H    5.133668   2.540843   3.078102   1.771600   0.000000
    26  H    4.382769   3.801658   2.580416   2.557225   3.086864
    27  H    4.622916   3.910426   3.187300   3.074076   2.478847
    28  H    5.822269   4.351518   3.791297   2.469570   2.532829
    29  H    4.924680   3.467119   4.181601   4.383619   2.812173
                   26         27         28         29
    26  H    0.000000
    27  H    1.783956   0.000000
    28  H    1.780562   1.774616   0.000000
    29  H    4.907346   3.604779   4.738414   0.000000
 Stoichiometry    C10H16N2S
 Framework group  C1[X(C10H16N2S)]
 Deg. of freedom    81
 Full point group                 C1      NOp   1
 Largest Abelian subgroup         C1      NOp   1
 Largest concise Abelian subgroup C1      NOp   1
                         Standard orientation:                         
 ---------------------------------------------------------------------
 Center     Atomic      Atomic             Coordinates (Angstroms)
 Number     Number       Type             X           Y           Z
 ---------------------------------------------------------------------
      1          7           0        1.735372   -2.252060   -0.280849
      2         16           0        1.456305   -0.836102    0.268063
      3          6           0       -0.289602   -0.396697    0.156813
      4          6           0       -0.937185    0.277084    1.187875
      5          6           0       -2.298158    0.552221    1.066271
      6          6           0       -3.021059    0.153961   -0.066516
      7          6           0       -4.495302    0.431454   -0.178708
      8          6           0       -2.345272   -0.543615   -1.078690
      9          6           0       -0.987353   -0.829087   -0.968890
     10          6           0        2.192451    0.156678   -1.092718
     11          6           0        2.744877    1.494782   -0.629141
     12          6           0        1.690943    2.534115   -0.251352
     13          7           0        1.806874   -0.338147    1.685772
     14          1           0        1.436269   -2.946218    0.404356
     15          1           0       -0.359815    0.567826    2.068567
     16          1           0       -2.811608    1.087627    1.869829
     17          1           0       -5.078457   -0.417527    0.214793
     18          1           0       -4.796848    0.580663   -1.225211
     19          1           0       -4.780341    1.323161    0.396859
     20          1           0       -2.895869   -0.876721   -1.962797
     21          1           0       -0.465312   -1.403093   -1.740390
     22          1           0        2.971268   -0.523584   -1.461999
     23          1           0        1.418001    0.270705   -1.865165
     24          1           0        3.367686    1.885070   -1.450273
     25          1           0        3.415352    1.320701    0.228352
     26          1           0        0.968468    2.683763   -1.069166
     27          1           0        1.141812    2.216837    0.643852
     28          1           0        2.159280    3.504816   -0.030782
[...]
    19  H    0.000000  -0.000000   0.000185   0.001488  -0.002328  -0.045818
    20  H   -0.000002  -0.000312   0.012696  -0.002041   0.012706  -0.062704
    21  H    0.021528   0.000237  -0.073111   0.007684  -0.003107   0.013299
    22  H    0.011030  -0.018775   0.009080  -0.001047  -0.000004   0.000013
    23  H    0.004623  -0.016646   0.009314   0.000312   0.000073  -0.000088
    24  H   -0.000312   0.003494  -0.000363   0.000125   0.000032  -0.000018
    25  H    0.002234   0.005349  -0.009750   0.005363   0.000360   0.000044
    26  H   -0.000049  -0.000424  -0.000828   0.000644   0.000018   0.000043
    27  H   -0.000167   0.000887   0.003520  -0.005853   0.001862  -0.000284
    28  H    0.000008  -0.000113  -0.000378   0.000465  -0.000236   0.000071
    29  H   -0.000635  -0.018475   0.018161  -0.003183   0.000004  -0.000013
               7          8          9         10         11         12
     1  N    0.000005  -0.001327   0.003696  -0.093052   0.003748   0.000931
     2  S    0.000046   0.005128  -0.052665   0.274185  -0.024071   0.005215
     3  C   -0.004076   0.104289   0.263449  -0.090529   0.032362  -0.004215
     4  C    0.013806  -0.086550  -0.048782   0.019672  -0.008803  -0.005197
     5  C   -0.077000   0.017562  -0.100821   0.001724  -0.001384   0.000209
     6  C    0.335262   0.407964   0.069387  -0.001159   0.000780  -0.000211
     7  C    4.988558  -0.077117   0.017641  -0.000019   0.000007  -0.000010
     8  C   -0.077117   5.126722   0.319272   0.003102  -0.001805   0.001766
     9  C    0.017641   0.319272   5.264375  -0.012669   0.014707  -0.009635
    10  C   -0.000019   0.003102  -0.012669   5.291417   0.212140  -0.029562
    11  C    0.000007  -0.001805   0.014707   0.212140   5.063018   0.299220
    12  C   -0.000010   0.001766  -0.009635  -0.029562   0.299220   4.964509
    13  N    0.000000  -0.002135   0.024181  -0.048120  -0.034557   0.004614
    14  H   -0.000001   0.000390  -0.007178   0.014713  -0.001091  -0.000001
    15  H   -0.000299  -0.002979   0.011596   0.001729  -0.001400   0.000396
    16  H   -0.006996   0.013656  -0.002897   0.000011  -0.000040   0.000063
    17  H    0.392744  -0.004721  -0.000277   0.000000  -0.000001   0.000003
    18  H    0.418804  -0.002681   0.002044   0.000001   0.000000  -0.000004
    19  H    0.414377   0.003215  -0.000706  -0.000000   0.000001  -0.000009
    20  H   -0.008997   0.432638  -0.051785   0.000107  -0.000051   0.000050
    21  H   -0.000184  -0.062869   0.448441  -0.005662   0.002036  -0.000326
    22  H   -0.000000  -0.000018   0.000356   0.370637  -0.018740   0.004198
    23  H    0.000004   0.000862  -0.007633   0.368268  -0.036544   0.003829
    24  H   -0.000000   0.000024  -0.000272  -0.020845   0.385998  -0.034062
    25  H    0.000001   0.000133  -0.002050  -0.030923   0.372960  -0.016776
    26  H    0.000002  -0.000183   0.000624  -0.003729  -0.034197   0.397305
    27  H   -0.000121   0.001656  -0.003998  -0.000800  -0.040350   0.419027
    28  H    0.000002  -0.000137   0.000582   0.008289  -0.033489   0.400213
    29  H    0.000000   0.000080  -0.001132  -0.010855   0.002581  -0.000103
              13         14         15         16         17         18
     1  N   -0.084358   0.311375   0.000844   0.000009  -0.000000   0.000000
     2  S    0.500211  -0.024268  -0.004647  -0.000292  -0.000003  -0.000000
     3  C   -0.123323   0.000085  -0.045063   0.011615  -0.000143   0.000088
     4  C    0.011411   0.002409   0.436495  -0.055262  -0.000058  -0.000470
     5  C   -0.001647   0.000165  -0.066434   0.439574  -0.003458   0.005318
     6  C    0.000970  -0.000191   0.010845  -0.066959  -0.025230  -0.051888
     7  C    0.000000  -0.000001  -0.000299  -0.006996   0.392744   0.418804
     8  C   -0.002135   0.000390  -0.002979   0.013656  -0.004721  -0.002681
     9  C    0.024181  -0.007178   0.011596  -0.002897  -0.000277   0.002044
    10  C   -0.048120   0.014713   0.001729   0.000011   0.000000   0.000001
    11  C   -0.034557  -0.001091  -0.001400  -0.000040  -0.000001   0.000000
    12  C    0.004614  -0.000001   0.000396   0.000063   0.000003  -0.000004
    13  N    6.952802  -0.002626   0.022347  -0.000142  -0.000000   0.000000
    14  H   -0.002626   0.498111   0.000017   0.000001   0.000000  -0.000000
    15  H    0.022347   0.000017   0.484301  -0.007440   0.000009   0.000010
    16  H   -0.000142   0.000001  -0.007440   0.555274   0.000516   0.000043
    17  H   -0.000000   0.000000   0.000009   0.000516   0.547918  -0.023676
    18  H    0.000000  -0.000000   0.000010   0.000043  -0.023676   0.537000
    19  H    0.000000   0.000000  -0.000010   0.001598  -0.026890  -0.021610
    20  H   -0.000003   0.000020   0.000063  -0.000219   0.000325   0.002664
    21  H    0.002155  -0.002910  -0.000257   0.000074   0.000009  -0.000020
    22  H   -0.002300  -0.000944  -0.000063  -0.000001  -0.000000   0.000000
    23  H    0.004710  -0.000885  -0.000160   0.000004   0.000000  -0.000000
    24  H   -0.000125   0.000036   0.000041   0.000000  -0.000000   0.000000
    25  H    0.025491  -0.000063   0.000628  -0.000016   0.000000  -0.000000
    26  H   -0.000116   0.000002  -0.000024  -0.000002  -0.000000   0.000000
    27  H   -0.000330   0.000023  -0.000072  -0.000067   0.000004   0.000001
    28  H    0.000064  -0.000002   0.000018  -0.000004  -0.000000   0.000000
    29  H    0.310185  -0.000352  -0.001445  -0.000004   0.000000  -0.000000
              19         20         21         22         23         24
     1  N    0.000000  -0.000002   0.021528   0.011030   0.004623  -0.000312
     2  S   -0.000000  -0.000312   0.000237  -0.018775  -0.016646   0.003494
     3  C    0.000185   0.012696  -0.073111   0.009080   0.009314  -0.000363
     4  C    0.001488  -0.002041   0.007684  -0.001047   0.000312   0.000125
     5  C   -0.002328   0.012706  -0.003107  -0.000004   0.000073   0.000032
     6  C   -0.045818  -0.062704   0.013299   0.000013  -0.000088  -0.000018
     7  C    0.414377  -0.008997  -0.000184  -0.000000   0.000004  -0.000000
     8  C    0.003215   0.432638  -0.062869  -0.000018   0.000862   0.000024
     9  C   -0.000706  -0.051785   0.448441   0.000356  -0.007633  -0.000272
    10  C   -0.000000   0.000107  -0.005662   0.370637   0.368268  -0.020845
    11  C    0.000001  -0.000051   0.002036  -0.018740  -0.036544   0.385998
    12  C   -0.000009   0.000050  -0.000326   0.004198   0.003829  -0.034062
    13  N    0.000000  -0.000003   0.002155  -0.002300   0.004710  -0.000125
    14  H    0.000000   0.000020  -0.002910  -0.000944  -0.000885   0.000036
    15  H   -0.000010   0.000063  -0.000257  -0.000063  -0.000160   0.000041
    16  H    0.001598  -0.000219   0.000074  -0.000001   0.000004   0.000000
    17  H   -0.026890   0.000325   0.000009  -0.000000   0.000000  -0.000000
    18  H   -0.021610   0.002664  -0.000020   0.000000  -0.000000   0.000000
    19  H    0.539862   0.000026   0.000010   0.000000  -0.000000   0.000000
    20  H    0.000026   0.553982  -0.007632  -0.000003   0.000007   0.000000
    21  H    0.000010  -0.007632   0.506419  -0.000023   0.000154  -0.000037
    22  H    0.000000  -0.000003  -0.000023   0.519370  -0.012896  -0.011668
    23  H   -0.000000   0.000007   0.000154  -0.012896   0.534022  -0.001305
    24  H    0.000000   0.000000  -0.000037  -0.011668  -0.001305   0.597053
    25  H   -0.000000   0.000002  -0.000194   0.001661   0.006582  -0.025499
    26  H    0.000000  -0.000005   0.000023   0.000448   0.002491  -0.005485
    27  H   -0.000006  -0.000036  -0.000021  -0.000329  -0.000559   0.007151
    28  H    0.000000  -0.000001   0.000012  -0.000220   0.000025  -0.005301
    29  H   -0.000000  -0.000001  -0.000073   0.002501   0.000235  -0.000185
              25         26         27         28         29
     1  N    0.002234  -0.000049  -0.000167   0.000008  -0.000635
     2  S    0.005349  -0.000424   0.000887  -0.000113  -0.018475
     3  C   -0.009750  -0.000828   0.003520  -0.000378   0.018161
     4  C    0.005363   0.000644  -0.005853   0.000465  -0.003183
     5  C    0.000360   0.000018   0.001862  -0.000236   0.000004
     6  C    0.000044   0.000043  -0.000284   0.000071  -0.000013
     7  C    0.000001   0.000002  -0.000121   0.000002   0.000000
     8  C    0.000133  -0.000183   0.001656  -0.000137   0.000080
     9  C   -0.002050   0.000624  -0.003998   0.000582  -0.001132
    10  C   -0.030923  -0.003729  -0.000800   0.008289  -0.010855
    11  C    0.372960  -0.034197  -0.040350  -0.033489   0.002581
    12  C   -0.016776   0.397305   0.419027   0.400213  -0.000103
    13  N    0.025491  -0.000116  -0.000330   0.000064   0.310185
    14  H   -0.000063   0.000002   0.000023  -0.000002  -0.000352
    15  H    0.000628  -0.000024  -0.000072   0.000018  -0.001445
    16  H   -0.000016  -0.000002  -0.000067  -0.000004  -0.000004
    17  H    0.000000  -0.000000   0.000004  -0.000000   0.000000
    18  H   -0.000000   0.000000   0.000001   0.000000  -0.000000
    19  H   -0.000000   0.000000  -0.000006   0.000000  -0.000000
    20  H    0.000002  -0.000005  -0.000036  -0.000001  -0.000001
    21  H   -0.000194   0.000023  -0.000021   0.000012  -0.000073
    22  H    0.001661   0.000448  -0.000329  -0.000220   0.002501
    23  H    0.006582   0.002491  -0.000559   0.000025   0.000235
    24  H   -0.025499  -0.005485   0.007151  -0.005301  -0.000185
    25  H    0.544069   0.006376  -0.004700  -0.004832  -0.000716
    26  H    0.006376   0.569827  -0.024111  -0.022593   0.000005
    27  H   -0.004700  -0.024111   0.520285  -0.020623  -0.000015
    28  H   -0.004832  -0.022593  -0.020623   0.552872   0.000001
    29  H   -0.000716   0.000005  -0.000015   0.000001   0.491119
 Mulliken charges:
               1
     1  N   -0.559529
     2  S    0.450324
     3  C    0.018689
     4  C   -0.148686
     5  C   -0.176036
     6  C    0.184283
     7  C   -0.406441
     8  C   -0.195937
     9  C   -0.137850
    10  C   -0.218073
    11  C   -0.153036
    12  C   -0.401438
    13  N   -0.559359
    14  H    0.213163
    15  H    0.160952
    16  H    0.117902
    17  H    0.142929
    18  H    0.134375
    19  H    0.136615
    20  H    0.118506
    21  H    0.154342
    22  H    0.147738
    23  H    0.141199
    24  H    0.111520
    25  H    0.124267
    26  H    0.113936
    27  H    0.148027
    28  H    0.125305
    29  H    0.212313
 Sum of Mulliken charges =  -0.00000
 Mulliken charges with hydrogens summed into heavy atoms:
               1
     1  N   -0.346366
     2  S    0.450324
     3  C    0.018689
     4  C    0.012266
     5  C   -0.058134
     6  C    0.184283
     7  C    0.007478
     8  C   -0.077430
     9  C    0.016493
    10  C    0.070864
    11  C    0.082751
    12  C   -0.014170
    13  N   -0.347046
 Electronic spatial extent (au):  <R**2>=           2948.5823
 Charge=              0.0000 electrons
 Dipole moment (field-independent basis, Debye):
    X=             -2.1951    Y=              1.9734    Z=             -0.5721  Tot=              3.0066
 Quadrupole moment (field-independent basis, Debye-Ang):
   XX=            -77.9569   YY=            -88.6542   ZZ=            -88.8979
   XY=              4.5365   XZ=              1.3228   YZ=             -0.6303
 Traceless Quadrupole moment (field-independent basis, Debye-Ang):
   XX=              7.2128   YY=             -3.4845   ZZ=             -3.7283
   XY=              4.5365   XZ=              1.3228   YZ=             -0.6303
 Octapole moment (field-independent basis, Debye-Ang**2):
  XXX=            -10.9181  YYY=             -7.6742  ZZZ=             -5.7300  XYY=              5.3995
  XXY=             12.4797  XXZ=             10.3163  XZZ=            -13.1419  YZZ=              7.6328
  YYZ=              4.2301  XYZ=            -12.0163
 Hexadecapole moment (field-independent basis, Debye-Ang**3):
 XXXX=          -2422.1415 YYYY=           -863.6826 ZZZZ=           -534.2119 XXXY=             15.8394
 XXXZ=             43.5839 YYYX=             -8.1820 YYYZ=              0.9345 ZZZX=              3.7587
 ZZZY=              5.2526 XXYY=           -600.8736 XXZZ=           -511.4992 YYZZ=           -256.5939
 XXYZ=            -25.0141 YYXZ=             11.9757 ZZXY=              9.5358
 N-N= 9.423630813148D+02 E-N=-3.990762172423D+03  KE= 8.942916939655D+02
 Breneman (CHELPG) radii used.
 Read replacement radii for each type of atom:
 Atom Element Radius
    1     7    1.70
    2    16    2.00
    3     6    1.50
    4     6    1.50
    5     6    1.50
    6     6    1.50
    7     6    1.50
    8     6    1.50
    9     6    1.50
   10     6    1.50
   11     6    1.50
   12     6    1.50
   13     7    1.70
   14     1    1.45
   15     1    1.45
   16     1    1.45
   17     1    1.45
   18     1    1.45
   19     1    1.45
   20     1    1.45
   21     1    1.45
   22     1    1.45
   23     1    1.45
   24     1    1.45
   25     1    1.45
   26     1    1.45
   27     1    1.45
   28     1    1.45
   29     1    1.45
 Generate Potential Derived Charges using the Breneman model, NDens= 1.
 Grid spacing= 0.300 Box extension= 2.800
 NStep X,Y,Z=   48     42     34   Total possible points=       68544
 Number of Points to Fit=   17387

 **********************************************************************

            Electrostatic Properties Using The SCF Density.

 **********************************************************************

       Atomic Center    1 is at   2.032314 -1.920253 -0.904239
       Atomic Center    2 is at   1.612111 -0.818524  0.106426
       Atomic Center    3 is at  -0.154842 -0.512425  0.108771
       Atomic Center    4 is at  -0.830252 -0.126299  1.263609
       Atomic Center    5 is at  -2.199490  0.109367  1.192996
       Atomic Center    6 is at  -2.903733 -0.038350 -0.010333
       Atomic Center    7 is at  -4.384415  0.196884 -0.063872
       Atomic Center    8 is at  -2.197720 -0.444789 -1.149738
       Atomic Center    9 is at  -0.829216 -0.691558 -1.095436
       Atomic Center   10 is at   2.292578  0.637663 -0.748988
       Atomic Center   11 is at   2.104190  1.939479  0.009226
       Atomic Center   12 is at   0.839554  2.711199 -0.340307
       Atomic Center   13 is at   1.915574 -0.832151  1.630468
       Atomic Center   14 is at   1.724251 -2.819526 -0.521979
       Atomic Center   15 is at  -0.264632 -0.020816  2.190718
       Atomic Center   16 is at  -2.737144  0.417358  2.094110
       Atomic Center   17 is at  -4.933584 -0.696760  0.276744
       Atomic Center   18 is at  -4.721972  0.420714 -1.085632
       Atomic Center   19 is at  -4.683426  1.029849  0.589020
       Atomic Center   20 is at  -2.731803 -0.576556 -2.094565
       Atomic Center   21 is at  -0.275036 -1.035889 -1.972788
       Atomic Center   22 is at   3.349633  0.344197 -0.838482
       Atomic Center   23 is at   1.864807  0.640131 -1.762077
       Atomic Center   24 is at   2.983495  2.573381 -0.189865
       Atomic Center   25 is at   2.138111  1.708202  1.088949
       Atomic Center   26 is at   0.819151  2.973163 -1.410314
       Atomic Center   27 is at  -0.070623  2.135149 -0.122036
       Atomic Center   28 is at   0.784542  3.649113  0.232340
       Atomic Center   29 is at   2.905314 -1.065536  1.743868
   17387 points will be used for fitting atomic charges
 Fitting point charges to electrostatic potential
 Charges from ESP fit, RMS=   0.00277 RRMS=   0.21387:
 ESP charges:
               1
     1  N   -0.759697
     2  S    0.553757
     3  C    0.097533
     4  C   -0.045245
     5  C   -0.245185
     6  C    0.256559
     7  C   -0.283889
     8  C   -0.235793
     9  C   -0.102594
    10  C   -0.066562
    11  C    0.154655
    12  C   -0.171098
    13  N   -0.784614
    14  H    0.324749
    15  H    0.126271
    16  H    0.126914
    17  H    0.081040
    18  H    0.082209
    19  H    0.086260
    20  H    0.130163
    21  H    0.119678
    22  H    0.076489
    23  H    0.067996
    24  H   -0.023787
    25  H   -0.005857
    26  H    0.029850
    27  H    0.006177
    28  H    0.047205
    29  H    0.356814
 Sum of ESP charges =  -0.00000
 ESP charges with hydrogens summed into heavy atoms:
               1
     1  N   -0.434949
     2  S    0.553757
     3  C    0.097533
     4  C    0.081027
     5  C   -0.118270
     6  C    0.256559
     7  C   -0.034380
     8  C   -0.105629
     9  C    0.017084
    10  C    0.077922
    11  C    0.125011
    12  C   -0.087866
    13  N   -0.427799
 Charge=  -0.00000 Dipole=    -2.2307     1.8558    -0.5347 Tot=     2.9506
 -----------------------------------------------------------------

              Electrostatic Properties (Atomic Units)

 -----------------------------------------------------------------
    Center     Electric         -------- Electric Field --------
               Potential          X             Y             Z
 -----------------------------------------------------------------
    1 Atom    -18.432865
    2 Atom    -59.084111
    3 Atom    -14.736226
    4 Atom    -14.751728
    5 Atom    -14.753954
    6 Atom    -14.737536
    7 Atom    -14.755206
    8 Atom    -14.752629
    9 Atom    -14.748187
   10 Atom    -14.737703
   11 Atom    -14.755870
   12 Atom    -14.773410
   13 Atom    -18.430161
   14 Atom     -1.059112
   15 Atom     -1.098150
   16 Atom     -1.094361
   17 Atom     -1.097943
   18 Atom     -1.101479
   19 Atom     -1.100547
   20 Atom     -1.092887
   21 Atom     -1.089911
   22 Atom     -1.090335
   23 Atom     -1.090756
   24 Atom     -1.116108
   25 Atom     -1.118460
   26 Atom     -1.120769
   27 Atom     -1.123206
   28 Atom     -1.120295
   29 Atom     -1.054643
 -----------------------------------------------------------------
 Unable to Open any file for archive entry.
 1\1\GINC-NOTCH334\SP\RPBE1PBE\def2TZVP\C10H16N2S1\U1414944\10-Feb-2025
 \0\\#N Guess=Read Geom=Check Integral(Ultrafine) Density Pop=(ChelpG,R
 eadRadii) NMR pbe1pbe EmpiricalDispersion=GD3BJ def2TZVP\\SDI0432_7\\0
 ,1\N,0,-1.7140656932,-1.6667209432,1.7407044718\S,0,-1.4996980026,-0.9
 906796566,0.3590978527\C,0,0.2017723763,-0.496978657,0.081461521\C,0,0
 .7677840046,-0.5009259798,-1.1907566541\C,0,2.0893207798,-0.0921778238
 ,-1.3384164356\C,0,2.853877182,0.3158708214,-0.236268381\C,0,4.2849652
 841,0.731217849,-0.409740904\C,0,2.2599966222,0.2916144793,1.032041601
 4\C,0,0.9414491466,-0.1210125622,1.1988291752\C,0,-2.3526821788,0.5875
 163312,0.6704900174\C,0,-2.3869844679,1.5150261702,-0.5310302547\C,0,-
 1.2366464513,2.5087135736,-0.6106484036\N,0,-1.8569174418,-1.620209546
 8,-1.0160625867\H,0,-1.2924861778,-2.5993333011,1.6935554173\H,0,0.157
 1846834,-0.8257299054,-2.0347075337\H,0,2.5405063912,-0.0878285977,-2.
 3345835681\H,0,4.9456495699,-0.1511777751,-0.442575077\H,0,4.625505119
 ,1.3663263119,0.4201445591\H,0,4.4328959146,1.2824273141,-1.3498423743
 \H,0,2.8439704482,0.5952509856,1.9050162174\H,0,0.4783377702,-0.169724
 23,2.1880617363\H,0,-3.3509451279,0.2245511117,0.9589748589\H,0,-1.890
 8292907,1.0273227074,1.5663728742\H,0,-3.3413705041,2.0654466392,-0.50
 22017617\H,0,-2.4285677832,0.8877952711,-1.4394860959\H,0,-1.213303826
 4,3.1587397467,0.2786646043\H,0,-0.2609805931,2.0077632347,-0.68152198
 42\H,0,-1.3421660075,3.1571340778,-1.4932865666\H,0,-2.8053529705,-1.9
 971984738,-0.9435123818\\Version=ES64L-G16RevC.01\State=1-A\HF=-897.79
 42834\RMSD=1.819e-09\Dipole=0.7484305,0.9020025,-0.1596257\Quadrupole=
 6.2275628,-2.8313539,-3.3962088,-1.6814631,1.2919229,0.6891863\PG=C01 
 [X(C10H16N2S1)]\\@
 The archive entry for this job was punched.


 TIMES HAVE CHANGED. IN THE BIBLE WHEN AN ASS
 SPOKE IT WAS CONSIDERED A MIRACLE.
 Job cpu time:       0 days  0 hours 38 minutes 44.9 seconds.
 Elapsed time:       0 days  0 hours  2 minutes 38.5 seconds.
 File lengths (MBytes):  RWF=    160 Int=      0 D2E=      0 Chk=     25 Scr=      2
 Normal termination of Gaussian 16 at Mon Feb 10 20:01:57 2025.
