 Entering Gaussian System, Link 0=g16
 Input=SDI0054_3.com
 Output=SDI0054_3.log
 Initial command:
 /uufs/chpc.utah.edu/sys/installdir/gaussian16/C01/AVX/g16/l1.exe "/scratch/general/vast/u1414944/4689571-notchpeak.peaks/Gau-352194.inp" -scrdir="/scratch/general/vast/u1414944/4689571-notchpeak.peaks/"
 Entering Link 1 = /uufs/chpc.utah.edu/sys/installdir/gaussian16/C01/AVX/g16/l1.exe PID=    352195.
  
 Copyright (c) 1988-2019, Gaussian, Inc.  All Rights Reserved.
  
 This is part of the Gaussian(R) 16 program.  It is based on
 the Gaussian(R) 09 system (copyright 2009, Gaussian, Inc.),
 the Gaussian(R) 03 system (copyright 2003, Gaussian, Inc.),
 the Gaussian(R) 98 system (copyright 1998, Gaussian, Inc.),
 the Gaussian(R) 94 system (copyright 1995, Gaussian, Inc.),
 the Gaussian 92(TM) system (copyright 1992, Gaussian, Inc.),
 the Gaussian 90(TM) system (copyright 1990, Gaussian, Inc.),
 the Gaussian 88(TM) system (copyright 1988, Gaussian, Inc.),
 the Gaussian 86(TM) system (copyright 1986, Carnegie Mellon
 University), and the Gaussian 82(TM) system (copyright 1983,
 Carnegie Mellon University). Gaussian is a federally registered
 trademark of Gaussian, Inc.
  
 This software contains proprietary and confidential information,
 including trade secrets, belonging to Gaussian, Inc.
  
 This software is provided under written license and may be
 used, copied, transmitted, or stored only in accord with that
 written license.
  
 The following legend is applicable only to US Government
 contracts under FAR:
  
                    RESTRICTED RIGHTS LEGEND
  
 Use, reproduction and disclosure by the US Government is
 subject to restrictions as set forth in subparagraphs (a)
 and (c) of the Commercial Computer Software - Restricted
 Rights clause in FAR 52.227-19.
  
 Gaussian, Inc.
 340 Quinnipiac St., Bldg. 40, Wallingford CT 06492
  
  
 ---------------------------------------------------------------
 Warning -- This program may not be used in any manner that
 competes with the business of Gaussian, Inc. or will provide
 assistance to any competitor of Gaussian, Inc.  The licensee
 of this program is prohibited from giving any competitor of
 Gaussian, Inc. access to this program.  By using this program,
 the user acknowledges that Gaussian, Inc. is engaged in the
 business of creating and licensing software in the field of
 computational chemistry and represents and warrants to the
 licensee that it is not a competitor of Gaussian, Inc. and that
 it will not use this program in any manner prohibited above.
 ---------------------------------------------------------------
  

 Cite this work as:
 Gaussian 16, Revision C.01,
 M. J. Frisch, G. W. Trucks, H. B. Schlegel, G. E. Scuseria, 
 M. A. Robb, J. R. Cheeseman, G. Scalmani, V. Barone, 
 G. A. Petersson, H. Nakatsuji, X. Li, M. Caricato, A. V. Marenich, 
 J. Bloino, B. G. Janesko, R. Gomperts, B. Mennucci, H. P. Hratchian, 
 J. V. Ortiz, A. F. Izmaylov, J. L. Sonnenberg, D. Williams-Young, 
 F. Ding, F. Lipparini, F. Egidi, J. Goings, B. Peng, A. Petrone, 
 T. Henderson, D. Ranasinghe, V. G. Zakrzewski, J. Gao, N. Rega, 
 G. Zheng, W. Liang, M. Hada, M. Ehara, K. Toyota, R. Fukuda, 
 J. Hasegawa, M. Ishida, T. Nakajima, Y. Honda, O. Kitao, H. Nakai, 
 T. Vreven, K. Throssell, J. A. Montgomery, Jr., J. E. Peralta, 
 F. Ogliaro, M. J. Bearpark, J. J. Heyd, E. N. Brothers, K. N. Kudin, 
 V. N. Staroverov, T. A. Keith, R. Kobayashi, J. Normand, 
 K. Raghavachari, A. P. Rendell, J. C. Burant, S. S. Iyengar, 
 J. Tomasi, M. Cossi, J. M. Millam, M. Klene, C. Adamo, R. Cammi, 
 J. W. Ochterski, R. L. Martin, K. Morokuma, O. Farkas, 
 J. B. Foresman, and D. J. Fox, Gaussian, Inc., Wallingford CT, 2019.
 
 ******************************************
 Gaussian 16:  ES64L-G16RevC.01  3-Jul-2019
                 6-Jun-2025 
 ******************************************
 %NProcShared=16
 Will use up to   16 processors via shared memory.
 %Mem=40GB
 %chk=SDI0054_3.chk
 ----------------------------------------------------------------------
 #N OPT FREQ=NORAMAN Integral(Ultrafine) pbe1pbe EmpiricalDispersion=GD
 3BJ def2SVP
 ----------------------------------------------------------------------
 1/18=20,19=15,26=4,38=1/1,3;
 2/9=110,12=2,17=6,18=5,40=1/2;
 3/5=43,7=101,11=2,25=1,30=1,71=1,74=-13,75=-5,124=41/1,2,3;
 4//1;
 5/5=2,38=5/2;
 6/7=2,8=2,9=2,10=2,28=1/1;
 7//1,2,3,16;
 1/18=20,19=15,26=4/3(2);
 2/9=110/2;
 99//99;
 2/9=110/2;
 3/5=43,7=101,11=2,25=1,30=1,71=1,74=-13,75=-5,124=41/1,2,3;
 4/5=5,16=3,69=1/1;
 5/5=2,38=5/2;
 7//1,2,3,16;
 1/18=20,19=15,26=4/3(-5);
 2/9=110/2;
 6/7=2,8=2,9=2,10=2,19=2,28=1/1;
 99/9=1/99;
 ---------
 SDI0054_3
 ---------
 Symbolic Z-matrix:
 Charge =  0 Multiplicity = 1
 N                    -0.90239   0.82967  -1.86849 
 S                    -0.7922   -0.05107  -0.61632 
 C                     0.96481   0.05825  -0.2138 
 C                     1.49505  -0.88325   0.64859 
 C                     2.83679  -0.81418   0.98244 
 C                     3.62811   0.19176   0.44959 
 C                     3.08591   1.12504  -0.42017 
 C                     1.74408   1.06028  -0.75709 
 C                    -1.50371   0.71255   0.90521 
 C                    -3.00634   0.45841   0.95289 
 O                    -3.3073   -0.86596   1.27088 
 N                    -1.35141  -1.48961  -0.52625 
 H                    -1.75237   0.70944  -2.39357 
 H                     0.85337  -1.66145   1.03479 
 H                     3.26472  -1.54335   1.65382 
 H                     4.67479   0.24484   0.7102 
 H                     3.70886   1.90213  -0.83684 
 H                     1.28579   1.75684  -1.43995 
 H                    -1.26685   1.77214   0.8502 
 H                    -1.00951   0.24913   1.75511 
 H                    -3.44066   0.74222  -0.02076 
 H                    -3.4701    1.07859   1.72707 
 H                    -2.76738  -1.42475   0.67577 
 H                    -1.22843  -2.03161  -1.36619 
 

 GradGradGradGradGradGradGradGradGradGradGradGradGradGradGradGradGradGrad
 Berny optimization.
 Initialization pass.
                           ----------------------------
                           !    Initial Parameters    !
                           ! (Angstroms and Degrees)  !
 --------------------------                            --------------------------
 ! Name  Definition              Value          Derivative Info.                !
 --------------------------------------------------------------------------------
 ! R1    R(1,2)                  1.5349         estimate D2E/DX2                !
 ! R2    R(1,13)                 1.0063         estimate D2E/DX2                !
 ! R3    R(2,3)                  1.8058         estimate D2E/DX2                !
 ! R4    R(2,9)                  1.8451         estimate D2E/DX2                !
 ! R5    R(2,12)                 1.546          estimate D2E/DX2                !
 ! R6    R(3,4)                  1.3825         estimate D2E/DX2                !
 ! R7    R(3,8)                  1.3808         estimate D2E/DX2                !
 ! R8    R(4,5)                  1.3844         estimate D2E/DX2                !
 ! R9    R(4,14)                 1.08           estimate D2E/DX2                !
 ! R10   R(5,6)                  1.3864         estimate D2E/DX2                !
 ! R11   R(5,15)                 1.0796         estimate D2E/DX2                !
 ! R12   R(6,7)                  1.3862         estimate D2E/DX2                !
 ! R13   R(6,16)                 1.0799         estimate D2E/DX2                !
 ! R14   R(7,8)                  1.385          estimate D2E/DX2                !
 ! R15   R(7,17)                 1.0796         estimate D2E/DX2                !
 ! R16   R(8,18)                 1.0777         estimate D2E/DX2                !
 ! R17   R(9,10)                 1.5247         estimate D2E/DX2                !
 ! R18   R(9,19)                 1.0871         estimate D2E/DX2                !
 ! R19   R(9,20)                 1.0869         estimate D2E/DX2                !
 ! R20   R(10,11)                1.3949         estimate D2E/DX2                !
 ! R21   R(10,21)                1.1033         estimate D2E/DX2                !
 ! R22   R(10,22)                1.095          estimate D2E/DX2                !
 ! R23   R(11,23)                0.9787         estimate D2E/DX2                !
 ! R24   R(12,24)                1.0072         estimate D2E/DX2                !
 ! A1    A(2,1,13)             114.6938         estimate D2E/DX2                !
 ! A2    A(1,2,3)              102.5304         estimate D2E/DX2                !
 ! A3    A(1,2,9)              114.0529         estimate D2E/DX2                !
 ! A4    A(1,2,12)             123.7442         estimate D2E/DX2                !
 ! A5    A(3,2,9)               99.5744         estimate D2E/DX2                !
 ! A6    A(3,2,12)             113.2829         estimate D2E/DX2                !
 ! A7    A(9,2,12)             101.395          estimate D2E/DX2                !
 ! A8    A(2,3,4)              118.098          estimate D2E/DX2                !
 ! A9    A(2,3,8)              120.3543         estimate D2E/DX2                !
 ! A10   A(4,3,8)              121.5476         estimate D2E/DX2                !
 ! A11   A(3,4,5)              119.2208         estimate D2E/DX2                !
 ! A12   A(3,4,14)             119.0697         estimate D2E/DX2                !
 ! A13   A(5,4,14)             121.705          estimate D2E/DX2                !
 ! A14   A(4,5,6)              119.7834         estimate D2E/DX2                !
 ! A15   A(4,5,15)             120.0289         estimate D2E/DX2                !
 ! A16   A(6,5,15)             120.1876         estimate D2E/DX2                !
 ! A17   A(5,6,7)              120.426          estimate D2E/DX2                !
 ! A18   A(5,6,16)             119.7436         estimate D2E/DX2                !
 ! A19   A(7,6,16)             119.8297         estimate D2E/DX2                !
 ! A20   A(6,7,8)              120.0072         estimate D2E/DX2                !
 ! A21   A(6,7,17)             120.072          estimate D2E/DX2                !
 ! A22   A(8,7,17)             119.9208         estimate D2E/DX2                !
 ! A23   A(3,8,7)              119.0128         estimate D2E/DX2                !
 ! A24   A(3,8,18)             118.5782         estimate D2E/DX2                !
 ! A25   A(7,8,18)             122.4039         estimate D2E/DX2                !
 ! A26   A(2,9,10)             109.6842         estimate D2E/DX2                !
 ! A27   A(2,9,19)             106.1193         estimate D2E/DX2                !
 ! A28   A(2,9,20)             107.0392         estimate D2E/DX2                !
 ! A29   A(10,9,19)            112.2568         estimate D2E/DX2                !
 ! A30   A(10,9,20)            110.6456         estimate D2E/DX2                !
 ! A31   A(19,9,20)            110.8591         estimate D2E/DX2                !
 ! A32   A(9,10,11)            112.2112         estimate D2E/DX2                !
 ! A33   A(9,10,21)            108.5113         estimate D2E/DX2                !
 ! A34   A(9,10,22)            110.1873         estimate D2E/DX2                !
 ! A35   A(11,10,21)           111.131          estimate D2E/DX2                !
 ! A36   A(11,10,22)           106.5697         estimate D2E/DX2                !
 ! A37   A(21,10,22)           108.1515         estimate D2E/DX2                !
 ! A38   A(10,11,23)           106.5249         estimate D2E/DX2                !
 ! A39   A(2,12,24)            114.0781         estimate D2E/DX2                !
 ! D1    D(13,1,2,3)           164.5166         estimate D2E/DX2                !
 ! D2    D(13,1,2,9)           -88.8776         estimate D2E/DX2                !
 ! D3    D(13,1,2,12)           35.065          estimate D2E/DX2                !
 ! D4    D(1,2,3,4)           -163.3534         estimate D2E/DX2                !
 ! D5    D(1,2,3,8)             16.7649         estimate D2E/DX2                !
 ! D6    D(9,2,3,4)             79.2007         estimate D2E/DX2                !
 ! D7    D(9,2,3,8)           -100.6811         estimate D2E/DX2                !
 ! D8    D(12,2,3,4)           -27.6998         estimate D2E/DX2                !
 ! D9    D(12,2,3,8)           152.4184         estimate D2E/DX2                !
 ! D10   D(1,2,9,10)            84.2004         estimate D2E/DX2                !
 ! D11   D(1,2,9,19)           -37.2738         estimate D2E/DX2                !
 ! D12   D(1,2,9,20)          -155.7135         estimate D2E/DX2                !
 ! D13   D(3,2,9,10)          -167.3646         estimate D2E/DX2                !
 ! D14   D(3,2,9,19)            71.1612         estimate D2E/DX2                !
 ! D15   D(3,2,9,20)           -47.2784         estimate D2E/DX2                !
 ! D16   D(12,2,9,10)          -51.0748         estimate D2E/DX2                !
 ! D17   D(12,2,9,19)         -172.549          estimate D2E/DX2                !
 ! D18   D(12,2,9,20)           69.0114         estimate D2E/DX2                !
 ! D19   D(1,2,12,24)           39.0682         estimate D2E/DX2                !
 ! D20   D(3,2,12,24)          -85.7874         estimate D2E/DX2                !
 ! D21   D(9,2,12,24)          168.4625         estimate D2E/DX2                !
 ! D22   D(2,3,4,5)           -179.4281         estimate D2E/DX2                !
 ! D23   D(2,3,4,14)             1.3266         estimate D2E/DX2                !
 ! D24   D(8,3,4,5)              0.4522         estimate D2E/DX2                !
 ! D25   D(8,3,4,14)          -178.7932         estimate D2E/DX2                !
 ! D26   D(2,3,8,7)            179.4349         estimate D2E/DX2                !
 ! D27   D(2,3,8,18)            -1.3668         estimate D2E/DX2                !
 ! D28   D(4,3,8,7)             -0.4427         estimate D2E/DX2                !
 ! D29   D(4,3,8,18)           178.7556         estimate D2E/DX2                !
 ! D30   D(3,4,5,6)             -0.0746         estimate D2E/DX2                !
 ! D31   D(3,4,5,15)          -179.9288         estimate D2E/DX2                !
 ! D32   D(14,4,5,6)           179.1501         estimate D2E/DX2                !
 ! D33   D(14,4,5,15)           -0.7041         estimate D2E/DX2                !
 ! D34   D(4,5,6,7)             -0.3027         estimate D2E/DX2                !
 ! D35   D(4,5,6,16)          -179.9793         estimate D2E/DX2                !
 ! D36   D(15,5,6,7)           179.5512         estimate D2E/DX2                !
 ! D37   D(15,5,6,16)           -0.1254         estimate D2E/DX2                !
 ! D38   D(5,6,7,8)              0.3121         estimate D2E/DX2                !
 ! D39   D(5,6,7,17)          -179.5978         estimate D2E/DX2                !
 ! D40   D(16,6,7,8)           179.9884         estimate D2E/DX2                !
 ! D41   D(16,6,7,17)            0.0784         estimate D2E/DX2                !
 ! D42   D(6,7,8,3)              0.0569         estimate D2E/DX2                !
 ! D43   D(6,7,8,18)          -179.1092         estimate D2E/DX2                !
 ! D44   D(17,7,8,3)           179.967          estimate D2E/DX2                !
 ! D45   D(17,7,8,18)            0.8009         estimate D2E/DX2                !
 ! D46   D(2,9,10,11)           73.3966         estimate D2E/DX2                !
 ! D47   D(2,9,10,21)          -49.7891         estimate D2E/DX2                !
 ! D48   D(2,9,10,22)         -168.0271         estimate D2E/DX2                !
 ! D49   D(19,9,10,11)        -168.8924         estimate D2E/DX2                !
 ! D50   D(19,9,10,21)          67.9219         estimate D2E/DX2                !
 ! D51   D(19,9,10,22)         -50.316          estimate D2E/DX2                !
 ! D52   D(20,9,10,11)         -44.4666         estimate D2E/DX2                !
 ! D53   D(20,9,10,21)        -167.6523         estimate D2E/DX2                !
 ! D54   D(20,9,10,22)          74.1097         estimate D2E/DX2                !
 ! D55   D(9,10,11,23)         -49.6174         estimate D2E/DX2                !
 ! D56   D(21,10,11,23)         72.0826         estimate D2E/DX2                !
 ! D57   D(22,10,11,23)       -170.3071         estimate D2E/DX2                !
 --------------------------------------------------------------------------------
 Trust Radius=3.00D-01 FncErr=1.00D-07 GrdErr=1.00D-06 EigMax=2.50D+02 EigMin=1.00D-04
 Number of steps in this run=    130 maximum allowed number of steps=    144.
 GradGradGradGradGradGradGradGradGradGradGradGradGradGradGradGradGradGrad

                          Input orientation:                          
 ---------------------------------------------------------------------
 Center     Atomic      Atomic             Coordinates (Angstroms)
 Number     Number       Type             X           Y           Z
 ---------------------------------------------------------------------
      1          7           0       -0.902394    0.829675   -1.868494
      2         16           0       -0.792203   -0.051072   -0.616316
      3          6           0        0.964812    0.058252   -0.213797
      4          6           0        1.495053   -0.883252    0.648594
      5          6           0        2.836788   -0.814177    0.982444
      6          6           0        3.628109    0.191757    0.449590
      7          6           0        3.085909    1.125042   -0.420171
      8          6           0        1.744078    1.060276   -0.757090
      9          6           0       -1.503707    0.712553    0.905208
     10          6           0       -3.006340    0.458414    0.952887
     11          8           0       -3.307301   -0.865961    1.270884
     12          7           0       -1.351414   -1.489608   -0.526254
     13          1           0       -1.752375    0.709437   -2.393575
     14          1           0        0.853373   -1.661452    1.034793
     15          1           0        3.264721   -1.543350    1.653820
     16          1           0        4.674785    0.244836    0.710197
     17          1           0        3.708855    1.902133   -0.836843
     18          1           0        1.285792    1.756838   -1.439948
     19          1           0       -1.266847    1.772139    0.850200
     20          1           0       -1.009509    0.249134    1.755106
     21          1           0       -3.440655    0.742224   -0.020758
     22          1           0       -3.470098    1.078593    1.727074
     23          1           0       -2.767376   -1.424753    0.675774
     24          1           0       -1.228428   -2.031612   -1.366189
 ---------------------------------------------------------------------
                    Distance matrix (angstroms):
                    1          2          3          4          5
     1  N    0.000000
     2  S    1.534864   0.000000
     3  C    2.611431   1.805845   0.000000
     4  C    3.875255   2.743003   1.382499   0.000000
     5  C    4.981121   4.038309   2.386716   1.384369   0.000000
     6  C    5.128928   4.553491   2.747918   2.396909   1.386372
     7  C    4.253403   4.057274   2.383209   2.776028   2.406234
     8  C    2.879619   2.772658   1.380751   2.411486   2.780929
     9  C    2.840548   1.845100   2.788166   3.406612   4.601822
    10  C    3.539013   2.761227   4.158285   4.706932   5.980176
    11  O    4.302843   3.248274   4.616211   4.842536   6.151074
    12  N    2.717039   1.546031   2.803284   3.138520   4.502600
    13  H    1.006298   2.158461   3.543809   4.726229   5.897399
    14  H    4.209217   2.833268   2.128092   1.080045   2.157440
    15  H    5.950024   4.882524   3.367893   2.139610   1.079614
    16  H    6.172245   5.633397   3.827855   3.374474   2.138659
    17  H    4.845419   4.911534   3.364202   3.855621   3.383585
    18  H    2.414838   2.874887   2.119356   3.372815   3.857939
    19  H    2.900407   2.387479   3.008289   3.836645   4.852457
    20  H    3.671373   2.400205   2.794809   2.963022   4.064681
    21  H    3.140788   2.828128   4.462424   5.239411   6.544852
    22  H    4.425288   3.733462   4.947373   5.446529   6.626753
    23  H    3.877357   2.730897   4.113376   4.296773   5.645662
    24  H    2.923281   2.162208   3.241272   3.577070   4.850175
                    6          7          8          9         10
     6  C    0.000000
     7  C    1.386177   0.000000
     8  C    2.399995   1.384998   0.000000
     9  C    5.178257   4.794930   3.665004   0.000000
    10  C    6.658853   6.280540   5.084558   1.524718   0.000000
    11  O    7.063512   6.906294   5.774037   2.424537   1.394873
    12  N    5.345550   5.151454   4.017121   2.630929   2.953207
    13  H    6.107470   5.241759   3.876384   3.308144   3.582492
    14  H    3.387625   3.855604   3.378165   3.347913   4.404308
    15  H    2.143086   3.384336   3.860532   5.327985   6.620013
    16  H    1.079937   2.139398   3.377413   6.199238   7.687925
    17  H    2.141685   1.079605   2.139026   5.623224   7.097979
    18  H    3.392091   2.163222   1.077738   3.790989   5.082712
    19  H    5.159331   4.580291   3.486517   1.087130   2.182259
    20  H    4.818212   4.719269   3.814619   1.086883   2.162102
    21  H    7.105749   6.549971   5.246408   2.147106   1.103251
    22  H    7.266566   6.898844   5.775728   2.162439   1.095016
    23  H    6.600491   6.477923   5.346184   2.493506   1.918388
    24  H    5.641487   5.428897   4.332040   3.572879   3.839182
                   11         12         13         14         15
    11  O    0.000000
    12  N    2.728394   0.000000
    13  H    4.281114   2.912638   0.000000
    14  H    4.242612   2.706932   4.915765   0.000000
    15  H    6.617928   5.105322   6.828448   2.492336   0.000000
    16  H    8.078487   6.391571   7.152457   4.282813   2.465018
    17  H    7.831431   6.099729   5.802670   4.935173   4.274577
    18  H    5.943417   4.281251   3.352151   4.242174   4.937489
    19  H    3.361548   3.541295   3.447775   4.039673   5.672159
    20  H    2.599569   2.888723   4.239727   2.763968   4.635979
    21  H    2.066974   3.098634   2.912323   5.032944   7.279432
    22  H    2.003972   4.020195   4.479576   5.165221   7.227568
    23  H    0.978735   1.858501   3.873744   3.646196   6.112023
    24  H    3.554519   1.007167   2.973785   3.199317   5.435738
                   16         17         18         19         20
    16  H    0.000000
    17  H    2.464342   0.000000
    18  H    4.288886   2.501216   0.000000
    19  H    6.136387   5.255533   3.429429   0.000000
    20  H    5.779538   5.631480   4.213069   1.790146   0.000000
    21  H    8.163459   7.288819   5.038140   2.558268   3.050787
    22  H    8.250352   7.667415   5.754002   2.470673   2.596784
    23  H    7.627219   7.436245   5.570186   3.535835   2.656491
    24  H    6.658943   6.334929   4.547429   4.402543   3.871977
                   21         22         23         24
    21  H    0.000000
    22  H    1.780149   0.000000
    23  H    2.373658   2.804602   0.000000
    24  H    3.794509   4.926128   2.627974   0.000000
 Stoichiometry    C8H12N2OS
 Framework group  C1[X(C8H12N2OS)]
 Deg. of freedom    66
 Full point group                 C1      NOp   1
 Largest Abelian subgroup         C1      NOp   1
 Largest concise Abelian subgroup C1      NOp   1
                         Standard orientation:                         
 ---------------------------------------------------------------------
 Center     Atomic      Atomic             Coordinates (Angstroms)
 Number     Number       Type             X           Y           Z
 ---------------------------------------------------------------------
      1          7           0        0.726935    2.076201    0.417471
      2         16           0        0.754438    0.541793    0.392163
      3          6           0       -0.982124    0.123128    0.127302
      4          6           0       -1.388207   -1.170844    0.395697
      5          6           0       -2.711764   -1.520313    0.189429
      6          6           0       -3.609009   -0.573239   -0.279642
      7          6           0       -3.190741    0.722934   -0.537473
      8          6           0       -1.867599    1.077408   -0.332871
      9          6           0        1.480370   -0.172065   -1.146611
     10          6           0        2.999105   -0.223774   -1.021963
     11          8           0        3.422881   -1.228605   -0.152251
     12          7           0        1.432574   -0.323042    1.479548
     13          1           0        1.555170    2.505345    0.794960
     14          1           0       -0.666087   -1.879890    0.772914
     15          1           0       -3.043277   -2.526821    0.395842
     16          1           0       -4.641430   -0.846468   -0.440003
     17          1           0       -3.895724    1.457562   -0.896454
     18          1           0       -1.503830    2.076797   -0.507262
     19          1           0        1.155687    0.471617   -1.960310
     20          1           0        1.070681   -1.172641   -1.257592
     21          1           0        3.357290    0.765841   -0.691014
     22          1           0        3.450917   -0.442126   -1.995230
     23          1           0        2.899661   -1.125389    0.668426
     24          1           0        1.310143    0.024807    2.416776
 ---------------------------------------------------------------------
 Rotational constants (GHZ):           1.7680725           0.5050581           0.4599029
 Standard basis: def2SVP (5D, 7F)
 There are   244 symmetry adapted cartesian basis functions of A   symmetry.
 There are   232 symmetry adapted basis functions of A   symmetry.
   232 basis functions,   396 primitive gaussians,   244 cartesian basis functions
    49 alpha electrons       49 beta electrons
       nuclear repulsion energy       833.5560909672 Hartrees.
 NAtoms=   24 NActive=   24 NUniq=   24 SFac= 1.00D+00 NAtFMM=   60 NAOKFM=F Big=F
 Integral buffers will be    131072 words long.
 Raffenetti 2 integral format.
 Two-electron integral symmetry is turned on.
 Nuclear repulsion after empirical dispersion term =      833.5293278877 Hartrees.
 One-electron integrals computed using PRISM.
   1 Symmetry operations used in ECPInt.
 ECPInt:  NShTT=    6105 NPrTT=   22357 LenC2=    5874 LenP2D=   16171.
 LDataN:  DoStor=T MaxTD1= 4 Len=   56
 NBasis=   232 RedAO= T EigKep=  2.69D-04  NBF=   232
 NBsUse=   232 1.00D-06 EigRej= -1.00D+00 NBFU=   232
 ExpMin= 1.22D-01 ExpMax= 9.18D+03 ExpMxC= 1.38D+03 IAcc=3 IRadAn=         5 AccDes= 0.00D+00
 Harris functional with IExCor= 1009 and IRadAn=       5 diagonalized for initial guess.
 HarFok:  IExCor= 1009 AccDes= 0.00D+00 IRadAn=         5 IDoV= 1 UseB2=F ITyADJ=14
 ICtDFT=  3500011 ScaDFX=  1.000000  1.000000  1.000000  1.000000
 FoFCou: FMM=F IPFlag=           0 FMFlag=      100000 FMFlg1=           0
         NFxFlg=           0 DoJE=T BraDBF=F KetDBF=T FulRan=T
         wScrn=  0.000000 ICntrl=       500 IOpCl=  0 I1Cent=   200000004 NGrid=           0
         NMat0=    1 NMatS0=      1 NMatT0=    0 NMatD0=    1 NMtDS0=    0 NMtDT0=    0
 Petite list used in FoFCou.
 Requested convergence on RMS density matrix=1.00D-08 within 128 cycles.
 Requested convergence on MAX density matrix=1.00D-06.
 Requested convergence on             energy=1.00D-06.
 No special actions if energy rises.
 Integral accuracy reduced to 1.0D-05 until final iterations.
 Initial convergence to 1.0D-05 achieved.  Increase integral accuracy.
 SCF Done:  E(RPBE1PBE) =  -893.684869624     A.U. after   14 cycles
            NFock= 14  Conv=0.62D-08     -V/T= 2.0061

 **********************************************************************

            Population analysis using the SCF Density.

 **********************************************************************

 Orbital symmetries:
       Occupied  (A) (A) (A) (A) (A) (A) (A) (A) (A) (A) (A) (A)
                 (A) (A) (A) (A) (A) (A) (A) (A) (A) (A) (A) (A)
                 (A) (A) (A) (A) (A) (A) (A) (A) (A) (A) (A) (A)
                 (A) (A) (A) (A) (A) (A) (A) (A) (A) (A) (A) (A)
                 (A)
       Virtual   (A) (A) (A) (A) (A) (A) (A) (A) (A) (A) (A) (A)
                 (A) (A) (A) (A) (A) (A) (A) (A) (A) (A) (A) (A)
                 (A) (A) (A) (A) (A) (A) (A) (A) (A) (A) (A) (A)
                 (A) (A) (A) (A) (A) (A) (A) (A) (A) (A) (A) (A)
                 (A) (A) (A) (A) (A) (A) (A) (A) (A) (A) (A) (A)
                 (A) (A) (A) (A) (A) (A) (A) (A) (A) (A) (A) (A)
                 (A) (A) (A) (A) (A) (A) (A) (A) (A) (A) (A) (A)
                 (A) (A) (A) (A) (A) (A) (A) (A) (A) (A) (A) (A)
                 (A) (A) (A) (A) (A) (A) (A) (A) (A) (A) (A) (A)
                 (A) (A) (A) (A) (A) (A) (A) (A) (A) (A) (A) (A)
                 (A) (A) (A) (A) (A) (A) (A) (A) (A) (A) (A) (A)
                 (A) (A) (A) (A) (A) (A) (A) (A) (A) (A) (A) (A)
                 (A) (A) (A) (A) (A) (A) (A) (A) (A) (A) (A) (A)
                 (A) (A) (A) (A) (A) (A) (A) (A) (A) (A) (A) (A)
                 (A) (A) (A) (A) (A) (A) (A) (A) (A) (A) (A) (A)
                 (A) (A) (A)
 The electronic state is 1-A.
 Alpha  occ. eigenvalues --  -89.19133 -19.17209 -14.36323 -14.35498 -10.27932
 Alpha  occ. eigenvalues --  -10.27092 -10.26328 -10.25934 -10.25595 -10.25517
 Alpha  occ. eigenvalues --  -10.25492 -10.25362  -8.16601  -6.10744  -6.10627
 Alpha  occ. eigenvalues --   -6.10589  -1.02496  -1.00633  -0.90136  -0.86505
 Alpha  occ. eigenvalues --   -0.80061  -0.78530  -0.78347  -0.69204  -0.64456
 Alpha  occ. eigenvalues --   -0.63981  -0.60781  -0.56751  -0.54226  -0.52237
 Alpha  occ. eigenvalues --   -0.49349  -0.48393  -0.48256  -0.46801  -0.46483
 Alpha  occ. eigenvalues --   -0.45579  -0.42274  -0.41463  -0.40215  -0.39008
 Alpha  occ. eigenvalues --   -0.37668  -0.36852  -0.33248  -0.29238  -0.28891
 Alpha  occ. eigenvalues --   -0.27808  -0.27134  -0.26195  -0.25357
 Alpha virt. eigenvalues --   -0.03680  -0.02158   0.05524   0.06266   0.07267
 Alpha virt. eigenvalues --    0.08112   0.08832   0.10339   0.10808   0.11339
 Alpha virt. eigenvalues --    0.12594   0.13773   0.14472   0.15296   0.15584
 Alpha virt. eigenvalues --    0.17385   0.17737   0.18650   0.20277   0.21899
 Alpha virt. eigenvalues --    0.26516   0.28181   0.28728   0.30927   0.31131
 Alpha virt. eigenvalues --    0.34879   0.40088   0.40626   0.41364   0.42585
 Alpha virt. eigenvalues --    0.43936   0.45232   0.46916   0.47661   0.48458
 Alpha virt. eigenvalues --    0.49219   0.50208   0.51435   0.51763   0.54036
 Alpha virt. eigenvalues --    0.55645   0.56703   0.57931   0.59230   0.60854
 Alpha virt. eigenvalues --    0.61306   0.62870   0.64298   0.65447   0.65944
 Alpha virt. eigenvalues --    0.66829   0.67086   0.67460   0.68683   0.69073
 Alpha virt. eigenvalues --    0.70349   0.70635   0.72352   0.73158   0.73997
 Alpha virt. eigenvalues --    0.74678   0.75473   0.75698   0.76909   0.78398
 Alpha virt. eigenvalues --    0.81269   0.82119   0.84072   0.86088   0.86534
 Alpha virt. eigenvalues --    0.89509   0.90752   0.91497   0.96283   0.97209
 Alpha virt. eigenvalues --    1.00053   1.01988   1.04126   1.07822   1.11053
 Alpha virt. eigenvalues --    1.13367   1.13533   1.16182   1.16788   1.18482
 Alpha virt. eigenvalues --    1.19007   1.21472   1.22218   1.23394   1.24999
 Alpha virt. eigenvalues --    1.25115   1.27366   1.29833   1.30569   1.32918
 Alpha virt. eigenvalues --    1.37193   1.42106   1.44168   1.48615   1.51015
 Alpha virt. eigenvalues --    1.51828   1.52499   1.54192   1.59068   1.65403
 Alpha virt. eigenvalues --    1.66448   1.67495   1.69889   1.70464   1.71832
 Alpha virt. eigenvalues --    1.74038   1.74912   1.75884   1.76701   1.76898
 Alpha virt. eigenvalues --    1.77681   1.79986   1.81513   1.82489   1.83108
 Alpha virt. eigenvalues --    1.84341   1.86121   1.89697   1.92002   1.92500
 Alpha virt. eigenvalues --    1.94133   1.95241   1.97035   1.98634   1.99787
 Alpha virt. eigenvalues --    2.05350   2.06550   2.10800   2.12072   2.13986
 Alpha virt. eigenvalues --    2.15346   2.16104   2.17879   2.21121   2.23571
 Alpha virt. eigenvalues --    2.26797   2.28683   2.30113   2.30781   2.31300
 Alpha virt. eigenvalues --    2.32569   2.35314   2.36153   2.38125   2.40993
 Alpha virt. eigenvalues --    2.43753   2.50136   2.53960   2.54957   2.56100
 Alpha virt. eigenvalues --    2.58190   2.59532   2.61450   2.63139   2.64594
 Alpha virt. eigenvalues --    2.65969   2.75541   2.75658   2.77148   2.81892
 Alpha virt. eigenvalues --    2.84092   2.85032   2.87956   2.91631   2.92265
 Alpha virt. eigenvalues --    2.93210   2.98233   3.03311   3.06205   3.11124
 Alpha virt. eigenvalues --    3.15751   3.22019   3.23545   3.27984   3.31835
 Alpha virt. eigenvalues --    3.40185   3.65643   3.83089
          Condensed to atoms (all electrons):
               1          2          3          4          5          6
     1  N    6.830529   0.377016  -0.093178   0.006655  -0.000073  -0.000031
     2  S    0.377016  14.718809   0.150145  -0.061892   0.001264   0.000305
     3  C   -0.093178   0.150145   5.809065   0.216690   0.102152  -0.183706
     4  C    0.006655  -0.061892   0.216690   5.151459   0.269941   0.099196
     5  C   -0.000073   0.001264   0.102152   0.269941   5.070179   0.263105
     6  C   -0.000031   0.000305  -0.183706   0.099196   0.263105   5.123375
     7  C    0.001577   0.004780   0.106508  -0.149060   0.090871   0.256814
     8  C   -0.000536  -0.034527   0.258460   0.052434  -0.137814   0.100254
     9  C   -0.039955   0.255454  -0.120764  -0.000651  -0.000566  -0.000102
    10  C   -0.007734  -0.042206   0.009638  -0.000351  -0.000022   0.000002
    11  O   -0.000027  -0.006607  -0.000203  -0.000105  -0.000000  -0.000000
    12  N   -0.042860   0.309462  -0.060590   0.006331   0.001304  -0.000037
    13  H    0.339980  -0.018549   0.010339  -0.000306  -0.000007   0.000006
    14  H    0.000582  -0.010342  -0.075629   0.440299  -0.048654   0.013007
    15  H    0.000002  -0.000175   0.016538  -0.072917   0.456966  -0.071233
    16  H    0.000000   0.000023  -0.001518   0.014538  -0.068088   0.449291
    17  H   -0.000022  -0.000154   0.016582  -0.001833   0.014294  -0.072455
    18  H    0.029939  -0.013700  -0.058401   0.013382  -0.001893   0.012631
    19  H    0.003819  -0.013469  -0.000745  -0.001679   0.000044  -0.000013
    20  H    0.002784  -0.020748   0.005445   0.002796   0.000080   0.000052
    21  H    0.008204  -0.007625   0.001167  -0.000061   0.000001   0.000000
    22  H   -0.000252   0.004850  -0.000247  -0.000011  -0.000000   0.000000
    23  H    0.000732  -0.001843   0.000202   0.000162   0.000014   0.000000
    24  H   -0.000747  -0.008249  -0.003063  -0.000766  -0.000115  -0.000001
               7          8          9         10         11         12
     1  N    0.001577  -0.000536  -0.039955  -0.007734  -0.000027  -0.042860
     2  S    0.004780  -0.034527   0.255454  -0.042206  -0.006607   0.309462
     3  C    0.106508   0.258460  -0.120764   0.009638  -0.000203  -0.060590
     4  C   -0.149060   0.052434  -0.000651  -0.000351  -0.000105   0.006331
     5  C    0.090871  -0.137814  -0.000566  -0.000022  -0.000000   0.001304
     6  C    0.256814   0.100254  -0.000102   0.000002  -0.000000  -0.000037
     7  C    5.131188   0.231298  -0.000286   0.000006  -0.000000   0.000022
     8  C    0.231298   5.097848  -0.004932  -0.000024   0.000006   0.003931
     9  C   -0.000286  -0.004932   5.280908   0.310000  -0.046661  -0.100959
    10  C    0.000006  -0.000024   0.310000   4.481469   0.341002   0.021091
    11  O   -0.000000   0.000006  -0.046661   0.341002   7.794356  -0.028774
    12  N    0.000022   0.003931  -0.100959   0.021091  -0.028774   6.935580
    13  H   -0.000038  -0.000371  -0.005166   0.001130  -0.000082  -0.000794
    14  H   -0.001946   0.012598   0.001570  -0.000617   0.000055   0.021243
    15  H    0.014097  -0.001760   0.000018  -0.000001   0.000000  -0.000006
    16  H   -0.067207   0.013950   0.000000   0.000000  -0.000000  -0.000000
    17  H    0.455102  -0.070824   0.000012  -0.000000   0.000000   0.000001
    18  H   -0.062869   0.446380   0.000632  -0.000018   0.000000   0.000365
    19  H    0.000139   0.003852   0.324753   0.001036   0.004282   0.005832
    20  H   -0.000021   0.000566   0.330724  -0.016222   0.008324   0.001767
    21  H   -0.000000   0.000076  -0.067232   0.361095  -0.032865   0.001633
    22  H    0.000000  -0.000011  -0.015195   0.392816  -0.031755  -0.000157
    23  H   -0.000001  -0.000052  -0.006132  -0.043069   0.351375   0.058647
    24  H   -0.000030  -0.000029   0.008841  -0.000599   0.000787   0.326205
              13         14         15         16         17         18
     1  N    0.339980   0.000582   0.000002   0.000000  -0.000022   0.029939
     2  S   -0.018549  -0.010342  -0.000175   0.000023  -0.000154  -0.013700
     3  C    0.010339  -0.075629   0.016538  -0.001518   0.016582  -0.058401
     4  C   -0.000306   0.440299  -0.072917   0.014538  -0.001833   0.013382
     5  C   -0.000007  -0.048654   0.456966  -0.068088   0.014294  -0.001893
     6  C    0.000006   0.013007  -0.071233   0.449291  -0.072455   0.012631
     7  C   -0.000038  -0.001946   0.014097  -0.067207   0.455102  -0.062869
     8  C   -0.000371   0.012598  -0.001760   0.013950  -0.070824   0.446380
     9  C   -0.005166   0.001570   0.000018   0.000000   0.000012   0.000632
    10  C    0.001130  -0.000617  -0.000001   0.000000  -0.000000  -0.000018
    11  O   -0.000082   0.000055   0.000000  -0.000000   0.000000   0.000000
    12  N   -0.000794   0.021243  -0.000006  -0.000000   0.000001   0.000365
    13  H    0.541985  -0.000042  -0.000000   0.000000  -0.000002  -0.000906
    14  H   -0.000042   0.628171  -0.011183  -0.000229   0.000039  -0.000308
    15  H   -0.000000  -0.011183   0.656870  -0.012106  -0.000256   0.000030
    16  H    0.000000  -0.000229  -0.012106   0.659047  -0.012149  -0.000200
    17  H   -0.000002   0.000039  -0.000256  -0.012149   0.657463  -0.010721
    18  H   -0.000906  -0.000308   0.000030  -0.000200  -0.010721   0.604747
    19  H   -0.000190  -0.000009   0.000000  -0.000000  -0.000006   0.000435
    20  H    0.000036   0.001387  -0.000005  -0.000001  -0.000001  -0.000025
    21  H    0.003086   0.000013  -0.000000  -0.000000  -0.000000  -0.000006
    22  H   -0.000043  -0.000008   0.000000  -0.000000   0.000000   0.000001
    23  H    0.000068   0.000388  -0.000000   0.000000  -0.000000  -0.000006
    24  H    0.001228  -0.000382   0.000003  -0.000000   0.000000  -0.000004
              19         20         21         22         23         24
     1  N    0.003819   0.002784   0.008204  -0.000252   0.000732  -0.000747
     2  S   -0.013469  -0.020748  -0.007625   0.004850  -0.001843  -0.008249
     3  C   -0.000745   0.005445   0.001167  -0.000247   0.000202  -0.003063
     4  C   -0.001679   0.002796  -0.000061  -0.000011   0.000162  -0.000766
     5  C    0.000044   0.000080   0.000001  -0.000000   0.000014  -0.000115
     6  C   -0.000013   0.000052   0.000000   0.000000   0.000000  -0.000001
     7  C    0.000139  -0.000021  -0.000000   0.000000  -0.000001  -0.000030
     8  C    0.003852   0.000566   0.000076  -0.000011  -0.000052  -0.000029
     9  C    0.324753   0.330724  -0.067232  -0.015195  -0.006132   0.008841
    10  C    0.001036  -0.016222   0.361095   0.392816  -0.043069  -0.000599
    11  O    0.004282   0.008324  -0.032865  -0.031755   0.351375   0.000787
    12  N    0.005832   0.001767   0.001633  -0.000157   0.058647   0.326205
    13  H   -0.000190   0.000036   0.003086  -0.000043   0.000068   0.001228
    14  H   -0.000009   0.001387   0.000013  -0.000008   0.000388  -0.000382
    15  H    0.000000  -0.000005  -0.000000   0.000000  -0.000000   0.000003
    16  H   -0.000000  -0.000001  -0.000000  -0.000000   0.000000  -0.000000
    17  H   -0.000006  -0.000001  -0.000000   0.000000  -0.000000   0.000000
    18  H    0.000435  -0.000025  -0.000006   0.000001  -0.000006  -0.000004
    19  H    0.611780  -0.007814   0.003275  -0.005048  -0.000123  -0.000330
    20  H   -0.007814   0.609294   0.013725  -0.010866  -0.001536  -0.000669
    21  H    0.003275   0.013725   0.752535  -0.043190  -0.004264  -0.000814
    22  H   -0.005048  -0.010866  -0.043190   0.655607   0.007292   0.000059
    23  H   -0.000123  -0.001536  -0.004264   0.007292   0.459386  -0.001558
    24  H   -0.000330  -0.000669  -0.000814   0.000059  -0.001558   0.545091
 Mulliken charges:
               1
     1  N   -0.416404
     2  S    0.417976
     3  C   -0.104887
     4  C    0.015747
     5  C   -0.012981
     6  C    0.009538
     7  C   -0.010943
     8  C    0.029228
     9  C   -0.104312
    10  C    0.191578
    11  O   -0.353107
    12  N   -0.459240
    13  H    0.128636
    14  H    0.029997
    15  H    0.025119
    16  H    0.024649
    17  H    0.024929
    18  H    0.040514
    19  H    0.070177
    20  H    0.080928
    21  H    0.011246
    22  H    0.046160
    23  H    0.180315
    24  H    0.135140
 Sum of Mulliken charges =  -0.00000
 Mulliken charges with hydrogens summed into heavy atoms:
               1
     1  N   -0.287769
     2  S    0.417976
     3  C   -0.104887
     4  C    0.045743
     5  C    0.012138
     6  C    0.034187
     7  C    0.013986
     8  C    0.069742
     9  C    0.046793
    10  C    0.248984
    11  O   -0.172792
    12  N   -0.324100
 Electronic spatial extent (au):  <R**2>=           2540.2331
 Charge=             -0.0000 electrons
 Dipole moment (field-independent basis, Debye):
    X=             -3.0751    Y=              0.5282    Z=             -0.6472  Tot=              3.1866
 Quadrupole moment (field-independent basis, Debye-Ang):
   XX=            -80.0709   YY=            -80.8120   ZZ=            -75.0116
   XY=              9.4763   XZ=              0.8404   YZ=             -0.2822
 Traceless Quadrupole moment (field-independent basis, Debye-Ang):
   XX=             -1.4394   YY=             -2.1805   ZZ=              3.6199
   XY=              9.4763   XZ=              0.8404   YZ=             -0.2822
 Octapole moment (field-independent basis, Debye-Ang**2):
  XXX=            -57.0049  YYY=             -8.3470  ZZZ=             10.0964  XYY=             -7.3682
  XXY=             26.7777  XXZ=             -8.7558  XZZ=             23.8917  YZZ=              3.0703
  YYZ=              3.7506  XYZ=              7.6982
 Hexadecapole moment (field-independent basis, Debye-Ang**3):
 XXXX=          -2445.9198 YYYY=           -583.4682 ZZZZ=           -303.2205 XXXY=            104.1256
 XXXZ=             32.2838 YYYX=             27.2146 YYYZ=             -2.7289 ZZZX=              2.7957
 ZZZY=              8.1133 XXYY=           -491.9232 XXZZ=           -451.9704 YYZZ=           -154.4629
 XXYZ=             -9.3546 YYXZ=             14.5381 ZZXY=             -7.1777
 N-N= 8.335293278877D+02 E-N=-3.764728404259D+03  KE= 8.883013531853D+02
   1 Symmetry operations used in ECPInt.
 ECPInt:  NShTT=    6105 NPrTT=   22357 LenC2=    5874 LenP2D=   16171.
 LDataN:  DoStor=T MaxTD1= 5 Len=  102
 Calling FoFJK, ICntrl=      2127 FMM=F ISym2X=0 I1Cent= 0 IOpClX= 0 NMat=1 NMatS=1 NMatT=0.
 ***** Axes restored to original set *****
 -------------------------------------------------------------------
 Center     Atomic                   Forces (Hartrees/Bohr)
 Number     Number              X              Y              Z
 -------------------------------------------------------------------
      1        7           0.015575628    0.006679860    0.000099874
      2       16           0.000449329    0.010729039    0.002184430
      3        6          -0.009021019    0.000050892   -0.003783052
      4        6          -0.002663847   -0.002339886    0.001210871
      5        6          -0.000503404    0.000986240   -0.000442553
      6        6           0.000833626   -0.000099237    0.000149178
      7        6          -0.000568369   -0.000878528    0.000836599
      8        6           0.000820719    0.002802729   -0.001915834
      9        6          -0.009648812   -0.011165464   -0.009668926
     10        6           0.002834626   -0.018618968   -0.000439762
     11        8          -0.000822114    0.001821686    0.004139857
     12        7          -0.008606384   -0.003334767    0.018451559
     13        1          -0.011475674   -0.003387806   -0.000045295
     14        1          -0.005213996   -0.007684419    0.003554760
     15        1           0.003354520   -0.006355420    0.005577884
     16        1           0.008925297    0.000467014    0.002195508
     17        1           0.005101631    0.006695849   -0.003760538
     18        1          -0.003748436    0.006631623   -0.006707973
     19        1           0.005257870    0.007035196   -0.003373685
     20        1           0.003774601   -0.002903007    0.007242324
     21        1          -0.002069780    0.005902658   -0.003938808
     22        1           0.000171403    0.006593270    0.001310449
     23        1           0.000788903    0.002381451   -0.002044206
     24        1           0.006453680   -0.002010006   -0.010832663
 -------------------------------------------------------------------
 Cartesian Forces:  Max     0.018618968 RMS     0.006101758

 GradGradGradGradGradGradGradGradGradGradGradGradGradGradGradGradGradGrad
 Berny optimization.
 FormGI is forming the generalized inverse of G from B-inverse, IUseBI=4.
 Internal  Forces:  Max     0.011682796 RMS     0.004220595
 Search for a local minimum.
 Step number   1 out of a maximum of  130
 All quantities printed in internal units (Hartrees-Bohrs-Radians)
 Mixed Optimization -- RFO/linear search
 Second derivative matrix not updated -- first step.
 ITU=  0
     Eigenvalues ---    0.00230   0.00293   0.00439   0.01534   0.01760
     Eigenvalues ---    0.02270   0.02275   0.02280   0.02283   0.02295
     Eigenvalues ---    0.02308   0.02313   0.02328   0.03333   0.03481
     Eigenvalues ---    0.03965   0.04930   0.04975   0.05929   0.06656
     Eigenvalues ---    0.07747   0.08437   0.09183   0.11694   0.11694
     Eigenvalues ---    0.13980   0.15856   0.15998   0.15999   0.16000
     Eigenvalues ---    0.16000   0.16000   0.16000   0.16000   0.16000
     Eigenvalues ---    0.19161   0.22000   0.22000   0.22006   0.22063
     Eigenvalues ---    0.22863   0.23498   0.25000   0.25662   0.29917
     Eigenvalues ---    0.33325   0.34239   0.35146   0.35175   0.35989
     Eigenvalues ---    0.36002   0.36041   0.36042   0.36269   0.43621
     Eigenvalues ---    0.43744   0.46450   0.46481   0.46598   0.48026
     Eigenvalues ---    0.48258   0.48383   0.48757   0.51631   0.63250
     Eigenvalues ---    0.66200
 RFO step:  Lambda=-8.05454394D-03 EMin= 2.30000000D-03
 Linear search not attempted -- first point.
 Iteration  1 RMS(Cart)=  0.04262296 RMS(Int)=  0.00100684
 Iteration  2 RMS(Cart)=  0.00130066 RMS(Int)=  0.00013792
 Iteration  3 RMS(Cart)=  0.00000146 RMS(Int)=  0.00013791
 Iteration  4 RMS(Cart)=  0.00000000 RMS(Int)=  0.00013791
 Variable       Old X    -DE/DX   Delta X   Delta X   Delta X     New X
                                 (Linear)    (Quad)   (Total)
    R1        2.90047   0.00155   0.00000   0.00231   0.00231   2.90278
    R2        1.90163   0.01012   0.00000   0.02135   0.02135   1.92298
    R3        3.41255  -0.00328   0.00000  -0.01240  -0.01240   3.40015
    R4        3.48673  -0.00940   0.00000  -0.03971  -0.03971   3.44702
    R5        2.92158   0.00620   0.00000   0.00967   0.00967   2.93125
    R6        2.61254   0.00997   0.00000   0.02035   0.02036   2.63290
    R7        2.60924   0.01168   0.00000   0.02373   0.02373   2.63298
    R8        2.61608   0.00879   0.00000   0.01781   0.01781   2.63389
    R9        2.04099   0.00991   0.00000   0.02692   0.02692   2.06791
   R10        2.61986   0.00969   0.00000   0.01962   0.01961   2.63947
   R11        2.04017   0.00909   0.00000   0.02467   0.02467   2.06484
   R12        2.61950   0.00971   0.00000   0.01972   0.01971   2.63921
   R13        2.04079   0.00920   0.00000   0.02500   0.02500   2.06579
   R14        2.61727   0.00897   0.00000   0.01838   0.01838   2.63565
   R15        2.04016   0.00922   0.00000   0.02501   0.02501   2.06517
   R16        2.03663   0.01013   0.00000   0.02733   0.02733   2.06396
   R17        2.88130  -0.00060   0.00000  -0.00196  -0.00196   2.87934
   R18        2.05438   0.00817   0.00000   0.02273   0.02273   2.07711
   R19        2.05391   0.00862   0.00000   0.02395   0.02395   2.07786
   R20        2.63593  -0.00350   0.00000  -0.00741  -0.00741   2.62852
   R21        2.08484   0.00581   0.00000   0.01702   0.01702   2.10186
   R22        2.06928   0.00459   0.00000   0.01309   0.01309   2.08237
   R23        1.84954   0.00032   0.00000   0.00061   0.00061   1.85015
   R24        1.90327   0.01090   0.00000   0.02307   0.02307   1.92634
    A1        2.00178  -0.01112   0.00000  -0.06616  -0.06616   1.93562
    A2        1.78949  -0.00147   0.00000  -0.00408  -0.00407   1.78542
    A3        1.99060  -0.00035   0.00000   0.00062   0.00065   1.99125
    A4        2.15974   0.00353   0.00000   0.02250   0.02250   2.18225
    A5        1.73790   0.00339   0.00000   0.01372   0.01365   1.75155
    A6        1.97716  -0.00186   0.00000  -0.01534  -0.01527   1.96189
    A7        1.76968  -0.00307   0.00000  -0.01856  -0.01853   1.75115
    A8        2.06120  -0.00397   0.00000  -0.01587  -0.01588   2.04532
    A9        2.10058   0.00199   0.00000   0.00721   0.00720   2.10778
   A10        2.12141   0.00198   0.00000   0.00867   0.00867   2.13008
   A11        2.08080  -0.00165   0.00000  -0.00684  -0.00684   2.07396
   A12        2.07816   0.00157   0.00000   0.00784   0.00783   2.08599
   A13        2.12415   0.00008   0.00000  -0.00106  -0.00107   2.12308
   A14        2.09061   0.00082   0.00000   0.00305   0.00304   2.09365
   A15        2.09490  -0.00073   0.00000  -0.00341  -0.00342   2.09148
   A16        2.09767  -0.00009   0.00000   0.00036   0.00036   2.09803
   A17        2.10183   0.00015   0.00000  -0.00014  -0.00014   2.10169
   A18        2.08992  -0.00004   0.00000   0.00024   0.00024   2.09016
   A19        2.09142  -0.00010   0.00000  -0.00011  -0.00011   2.09131
   A20        2.09452   0.00070   0.00000   0.00301   0.00301   2.09753
   A21        2.09565  -0.00005   0.00000   0.00028   0.00028   2.09593
   A22        2.09301  -0.00065   0.00000  -0.00330  -0.00331   2.08971
   A23        2.07717  -0.00199   0.00000  -0.00780  -0.00779   2.06937
   A24        2.06958   0.00156   0.00000   0.00728   0.00727   2.07685
   A25        2.13635   0.00042   0.00000   0.00049   0.00048   2.13683
   A26        1.91435   0.00408   0.00000   0.01855   0.01841   1.93276
   A27        1.85213  -0.00511   0.00000  -0.04811  -0.04804   1.80409
   A28        1.86819   0.00031   0.00000   0.01306   0.01274   1.88093
   A29        1.95925   0.00144   0.00000   0.01089   0.01104   1.97029
   A30        1.93113  -0.00123   0.00000   0.00775   0.00739   1.93852
   A31        1.93486   0.00042   0.00000  -0.00373  -0.00380   1.93105
   A32        1.95845   0.00142   0.00000   0.01318   0.01308   1.97154
   A33        1.89388  -0.00080   0.00000  -0.00425  -0.00493   1.88895
   A34        1.92313  -0.00441   0.00000  -0.03970  -0.03995   1.88318
   A35        1.93960   0.00213   0.00000   0.03419   0.03396   1.97356
   A36        1.85999   0.00240   0.00000   0.02007   0.02025   1.88024
   A37        1.88760  -0.00086   0.00000  -0.02557  -0.02642   1.86118
   A38        1.85921  -0.00576   0.00000  -0.03429  -0.03429   1.82492
   A39        1.99104  -0.01156   0.00000  -0.06876  -0.06876   1.92228
    D1        2.87136   0.00004   0.00000   0.02711   0.02714   2.89849
    D2       -1.55121   0.00303   0.00000   0.04100   0.04097  -1.51024
    D3        0.61200   0.00135   0.00000   0.03503   0.03504   0.64704
    D4       -2.85105  -0.00043   0.00000   0.00494   0.00492  -2.84614
    D5        0.29260  -0.00060   0.00000  -0.00201  -0.00201   0.29060
    D6        1.38231  -0.00075   0.00000   0.00089   0.00085   1.38316
    D7       -1.75722  -0.00092   0.00000  -0.00606  -0.00607  -1.76329
    D8       -0.48345   0.00160   0.00000   0.01971   0.01973  -0.46372
    D9        2.66020   0.00143   0.00000   0.01276   0.01281   2.67301
   D10        1.46957   0.00019   0.00000  -0.04642  -0.04654   1.42304
   D11       -0.65055  -0.00076   0.00000  -0.04113  -0.04108  -0.69163
   D12       -2.71771   0.00118   0.00000  -0.01897  -0.01892  -2.73663
   D13       -2.92106   0.00018   0.00000  -0.04365  -0.04374  -2.96480
   D14        1.24200  -0.00077   0.00000  -0.03837  -0.03828   1.20372
   D15       -0.82516   0.00117   0.00000  -0.01621  -0.01612  -0.84129
   D16       -0.89142  -0.00163   0.00000  -0.06103  -0.06117  -0.95259
   D17       -3.01155  -0.00259   0.00000  -0.05574  -0.05571  -3.06726
   D18        1.20448  -0.00064   0.00000  -0.03358  -0.03355   1.17093
   D19        0.68187   0.00154   0.00000   0.03737   0.03737   0.71924
   D20       -1.49727   0.00242   0.00000   0.03855   0.03869  -1.45859
   D21        2.94023   0.00073   0.00000   0.03737   0.03723   2.97745
   D22       -3.13161  -0.00002   0.00000  -0.00143  -0.00141  -3.13302
   D23        0.02315   0.00016   0.00000   0.00407   0.00411   0.02726
   D24        0.00789   0.00015   0.00000   0.00560   0.00561   0.01350
   D25       -3.12053   0.00033   0.00000   0.01111   0.01113  -3.10940
   D26        3.13173   0.00001   0.00000   0.00134   0.00140   3.13313
   D27       -0.02386  -0.00008   0.00000  -0.00125  -0.00121  -0.02507
   D28       -0.00773  -0.00015   0.00000  -0.00583  -0.00584  -0.01357
   D29        3.11987  -0.00024   0.00000  -0.00842  -0.00845   3.11142
   D30       -0.00130  -0.00006   0.00000  -0.00248  -0.00247  -0.00377
   D31       -3.14035   0.00009   0.00000   0.00252   0.00252  -3.13783
   D32        3.12676  -0.00024   0.00000  -0.00807  -0.00804   3.11872
   D33       -0.01229  -0.00009   0.00000  -0.00307  -0.00305  -0.01534
   D34       -0.00528   0.00000   0.00000  -0.00020  -0.00020  -0.00548
   D35       -3.14123   0.00007   0.00000   0.00227   0.00226  -3.13897
   D36        3.13376  -0.00015   0.00000  -0.00522  -0.00521   3.12855
   D37       -0.00219  -0.00008   0.00000  -0.00275  -0.00275  -0.00493
   D38        0.00545  -0.00001   0.00000  -0.00004  -0.00005   0.00540
   D39       -3.13457   0.00010   0.00000   0.00379   0.00378  -3.13079
   D40        3.14139  -0.00008   0.00000  -0.00251  -0.00252   3.13887
   D41        0.00137   0.00004   0.00000   0.00131   0.00131   0.00268
   D42        0.00099   0.00008   0.00000   0.00295   0.00295   0.00394
   D43       -3.12605   0.00016   0.00000   0.00560   0.00560  -3.12044
   D44        3.14102  -0.00004   0.00000  -0.00086  -0.00087   3.14015
   D45        0.01398   0.00005   0.00000   0.00178   0.00179   0.01577
   D46        1.28101   0.00249   0.00000   0.04967   0.04977   1.33078
   D47       -0.86898  -0.00059   0.00000   0.00047   0.00074  -0.86824
   D48       -2.93263   0.00349   0.00000   0.05692   0.05668  -2.87595
   D49       -2.94773  -0.00034   0.00000   0.00855   0.00860  -2.93912
   D50        1.18546  -0.00341   0.00000  -0.04064  -0.04042   1.14504
   D51       -0.87818   0.00066   0.00000   0.01581   0.01552  -0.86267
   D52       -0.77609   0.00035   0.00000   0.01755   0.01757  -0.75852
   D53       -2.92608  -0.00273   0.00000  -0.03165  -0.03146  -2.95754
   D54        1.29346   0.00134   0.00000   0.02480   0.02448   1.31794
   D55       -0.86599  -0.00198   0.00000  -0.03746  -0.03770  -0.90369
   D56        1.25808  -0.00049   0.00000  -0.00907  -0.00887   1.24921
   D57       -2.97242   0.00104   0.00000  -0.00947  -0.00943  -2.98185
         Item               Value     Threshold  Converged?
 Maximum Force            0.011683     0.000450     NO 
 RMS     Force            0.004221     0.000300     NO 
 Maximum Displacement     0.193802     0.001800     NO 
 RMS     Displacement     0.042804     0.001200     NO 
 Predicted change in Energy=-4.288119D-03
 GradGradGradGradGradGradGradGradGradGradGradGradGradGradGradGradGradGrad

                          Input orientation:                          
 ---------------------------------------------------------------------
 Center     Atomic      Atomic             Coordinates (Angstroms)
 Number     Number       Type             X           Y           Z
 ---------------------------------------------------------------------
      1          7           0       -0.912695    0.828018   -1.852958
      2         16           0       -0.790000   -0.059008   -0.604882
      3          6           0        0.962215    0.066999   -0.215932
      4          6           0        1.494527   -0.893107    0.641999
      5          6           0        2.846182   -0.821819    0.974582
      6          6           0        3.641774    0.197163    0.445792
      7          6           0        3.093356    1.144497   -0.421568
      8          6           0        1.742229    1.084067   -0.762254
      9          6           0       -1.513701    0.671440    0.901766
     10          6           0       -3.022051    0.458214    0.933850
     11          8           0       -3.379183   -0.840782    1.279986
     12          7           0       -1.318016   -1.513027   -0.490439
     13          1           0       -1.802705    0.674128   -2.321683
     14          1           0        0.850795   -1.691620    1.023388
     15          1           0        3.281553   -1.568337    1.643230
     16          1           0        4.702062    0.248524    0.706883
     17          1           0        3.723070    1.933526   -0.840126
     18          1           0        1.279707    1.793693   -1.451747
     19          1           0       -1.233259    1.731798    0.830035
     20          1           0       -1.029332    0.200216    1.769153
     21          1           0       -3.439670    0.778784   -0.045918
     22          1           0       -3.443802    1.135928    1.693528
     23          1           0       -2.863552   -1.408308    0.671224
     24          1           0       -1.125873   -2.024921   -1.350772
 ---------------------------------------------------------------------
                    Distance matrix (angstroms):
                    1          2          3          4          5
     1  N    0.000000
     2  S    1.536088   0.000000
     3  C    2.602747   1.799282   0.000000
     4  C    3.870633   2.733038   1.393271   0.000000
     5  C    4.984587   4.037129   2.399303   1.393796   0.000000
     6  C    5.140566   4.561815   2.763125   2.416165   1.396750
     7  C    4.265850   4.069703   2.396884   2.799867   2.424197
     8  C    2.881634   2.782727   1.393311   2.437724   2.804944
     9  C    2.823868   1.824085   2.782940   3.400694   4.609090
    10  C    3.514603   2.759939   4.165263   4.723422   6.006355
    11  O    4.322476   3.296629   4.680766   4.915568   6.232881
    12  N    2.738839   1.551150   2.787703   3.094691   4.468177
    13  H    1.017597   2.123786   3.528112   4.702273   5.891976
    14  H    4.210919   2.829999   2.154314   1.094291   2.177270
    15  H    5.963016   4.889746   3.392659   2.156817   1.092669
    16  H    6.197910   5.654914   3.856293   3.405262   2.159071
    17  H    4.872196   4.938961   3.390555   3.892679   3.413799
    18  H    2.429017   2.904027   2.146978   3.413036   3.896386
    19  H    2.849216   2.337189   2.947152   3.790290   4.814945
    20  H    3.677966   2.400109   2.815061   2.972490   4.086014
    21  H    3.106996   2.834623   4.462301   5.254973   6.566223
    22  H    4.367937   3.708534   4.919515   5.441487   6.626730
    23  H    3.895959   2.783644   4.195244   4.388524   5.747788
    24  H    2.904634   2.129313   3.166086   3.481183   4.757305
                    6          7          8          9         10
     6  C    0.000000
     7  C    1.396609   0.000000
     8  C    2.419554   1.394727   0.000000
     9  C    5.197285   4.816635   3.679715   0.000000
    10  C    6.686771   6.301297   5.095764   1.523684   0.000000
    11  O    7.146121   6.980715   5.839918   2.431026   1.390951
    12  N    5.329240   5.150474   4.022919   2.597772   2.969532
    13  H    6.126073   5.272864   3.894410   3.236380   3.483090
    14  H    3.419164   3.893654   3.418714   3.345100   4.430433
    15  H    2.163471   3.414421   3.897578   5.344233   6.659245
    16  H    1.093168   2.159654   3.408387   6.233181   7.730291
    17  H    2.162210   1.092839   2.156705   5.661344   7.128828
    18  H    3.424751   2.184502   1.092199   3.821204   5.097028
    19  H    5.125298   4.542139   3.436345   1.099160   2.198311
    20  H    4.854948   4.763138   3.856263   1.099557   2.176056
    21  H    7.122282   6.554028   5.240077   2.149182   1.112257
    22  H    7.255584   6.870818   5.738333   2.137270   1.101944
    23  H    6.704299   6.572348   5.429550   2.490101   1.891560
    24  H    5.558395   5.358220   4.270616   3.534784   3.870523
                   11         12         13         14         15
    11  O    0.000000
    12  N    2.799058   0.000000
    13  H    4.213343   2.893445   0.000000
    14  H    4.322324   2.650907   4.881324   0.000000
    15  H    6.710192   5.070664   6.826336   2.511570   0.000000
    16  H    8.174445   6.385764   7.187861   4.323956   2.489091
    17  H    7.914143   6.116662   5.857925   4.986415   4.315673
    18  H    6.009000   4.313546   3.392857   4.296239   4.988939
    19  H    3.380180   3.504243   3.372872   4.012538   5.651168
    20  H    2.616249   2.850315   4.190184   2.769493   4.661262
    21  H    2.093961   3.154585   2.805301   5.065017   7.316900
    22  H    2.020538   4.038023   4.362153   5.185333   7.248860
    23  H    0.979057   1.936261   3.797293   3.741746   6.223561
    24  H    3.660667   1.019377   2.947140   3.107240   5.347702
                   16         17         18         19         20
    16  H    0.000000
    17  H    2.488151   0.000000
    18  H    4.331252   2.522629   0.000000
    19  H    6.119093   5.234054   3.394901   0.000000
    20  H    5.829205   5.691926   4.271420   1.808113   0.000000
    21  H    8.193637   7.298564   5.027814   2.558082   3.072288
    22  H    8.253245   7.643272   5.712875   2.446872   2.590548
    23  H    7.744991   7.538941   5.650347   3.541659   2.675287
    24  H    6.585387   6.280311   4.514291   4.345157   3.833339
                   21         22         23         24
    21  H    0.000000
    22  H    1.775737   0.000000
    23  H    2.372673   2.802665   0.000000
    24  H    3.862261   4.963015   2.736460   0.000000
 Stoichiometry    C8H12N2OS
 Framework group  C1[X(C8H12N2OS)]
 Deg. of freedom    66
 Full point group                 C1      NOp   1
 Largest Abelian subgroup         C1      NOp   1
 Largest concise Abelian subgroup C1      NOp   1
                         Standard orientation:                         
 ---------------------------------------------------------------------
 Center     Atomic      Atomic             Coordinates (Angstroms)
 Number     Number       Type             X           Y           Z
 ---------------------------------------------------------------------
      1          7           0        0.728386    2.057086    0.464400
      2         16           0        0.747843    0.522170    0.407663
      3          6           0       -0.984519    0.127178    0.124253
      4          6           0       -1.388379   -1.182254    0.376224
      5          6           0       -2.720801   -1.528366    0.158225
      6          6           0       -3.624907   -0.567623   -0.300554
      7          6           0       -3.204502    0.743024   -0.537155
      8          6           0       -1.873939    1.102066   -0.322781
      9          6           0        1.492099   -0.157311   -1.112756
     10          6           0        3.012256   -0.170580   -1.010008
     11          8           0        3.492723   -1.197851   -0.204646
     12          7           0        1.398137   -0.400052    1.471943
     13          1           0        1.600590    2.417412    0.845097
     14          1           0       -0.661542   -1.907172    0.755268
     15          1           0       -3.056104   -2.549753    0.353840
     16          1           0       -4.669725   -0.842048   -0.468075
     17          1           0       -3.918679    1.492863   -0.886423
     18          1           0       -1.509768    2.120102   -0.477310
     19          1           0        1.122624    0.515767   -1.899272
     20          1           0        1.096629   -1.173403   -1.254835
     21          1           0        3.347343    0.836709   -0.678040
     22          1           0        3.418878   -0.320324   -2.023180
     23          1           0        2.992074   -1.109317    0.632053
     24          1           0        1.200904   -0.048790    2.408342
 ---------------------------------------------------------------------
 Rotational constants (GHZ):           1.7779898           0.4997098           0.4555001
 Standard basis: def2SVP (5D, 7F)
 There are   244 symmetry adapted cartesian basis functions of A   symmetry.
 There are   232 symmetry adapted basis functions of A   symmetry.
   232 basis functions,   396 primitive gaussians,   244 cartesian basis functions
    49 alpha electrons       49 beta electrons
       nuclear repulsion energy       831.2926053802 Hartrees.
 NAtoms=   24 NActive=   24 NUniq=   24 SFac= 1.00D+00 NAtFMM=   60 NAOKFM=F Big=F
 Integral buffers will be    131072 words long.
 Raffenetti 2 integral format.
 Two-electron integral symmetry is turned on.
 Nuclear repulsion after empirical dispersion term =      831.2658573682 Hartrees.
 One-electron integrals computed using PRISM.
   1 Symmetry operations used in ECPInt.
 ECPInt:  NShTT=    6105 NPrTT=   22357 LenC2=    5872 LenP2D=   16156.
 LDataN:  DoStor=T MaxTD1= 4 Len=   56
 NBasis=   232 RedAO= T EigKep=  2.91D-04  NBF=   232
 NBsUse=   232 1.00D-06 EigRej= -1.00D+00 NBFU=   232
 Initial guess from the checkpoint file:  "SDI0054_3.chk"
 B after Tr=    -0.000000    0.000000    0.000000
         Rot=    0.999902   -0.013947    0.001096   -0.001067 Ang=  -1.61 deg.
 ExpMin= 1.22D-01 ExpMax= 9.18D+03 ExpMxC= 1.38D+03 IAcc=3 IRadAn=         5 AccDes= 0.00D+00
 Harris functional with IExCor= 1009 and IRadAn=       5 diagonalized for initial guess.
 HarFok:  IExCor= 1009 AccDes= 0.00D+00 IRadAn=         5 IDoV= 1 UseB2=F ITyADJ=14
 ICtDFT=  3500011 ScaDFX=  1.000000  1.000000  1.000000  1.000000
 FoFCou: FMM=F IPFlag=           0 FMFlag=      100000 FMFlg1=           0
         NFxFlg=           0 DoJE=T BraDBF=F KetDBF=T FulRan=T
         wScrn=  0.000000 ICntrl=       500 IOpCl=  0 I1Cent=   200000004 NGrid=           0
         NMat0=    1 NMatS0=      1 NMatT0=    0 NMatD0=    1 NMtDS0=    0 NMtDT0=    0
 Petite list used in FoFCou.
 Requested convergence on RMS density matrix=1.00D-08 within 128 cycles.
 Requested convergence on MAX density matrix=1.00D-06.
 Requested convergence on             energy=1.00D-06.
 No special actions if energy rises.
 Integral accuracy reduced to 1.0D-05 until final iterations.
 Initial convergence to 1.0D-05 achieved.  Increase integral accuracy.
 SCF Done:  E(RPBE1PBE) =  -893.689148131     A.U. after   12 cycles
            NFock= 12  Conv=0.54D-08     -V/T= 2.0064
   1 Symmetry operations used in ECPInt.
 ECPInt:  NShTT=    6105 NPrTT=   22357 LenC2=    5872 LenP2D=   16156.
 LDataN:  DoStor=T MaxTD1= 5 Len=  102
 Calling FoFJK, ICntrl=      2127 FMM=F ISym2X=0 I1Cent= 0 IOpClX= 0 NMat=1 NMatS=1 NMatT=0.
 ***** Axes restored to original set *****
 -------------------------------------------------------------------
 Center     Atomic                   Forces (Hartrees/Bohr)
 Number     Number              X              Y              Z
 -------------------------------------------------------------------
      1        7           0.002921707    0.003016921   -0.007101564
      2       16           0.004081757    0.005116033    0.009629202
      3        6          -0.000302264    0.000777117   -0.001505447
      4        6           0.000222560    0.000043758    0.000151310
      5        6           0.000113777    0.001007073   -0.000738877
      6        6          -0.000663840   -0.000244384   -0.000073474
      7        6          -0.000539462   -0.000956824    0.000467934
      8        6           0.000731956   -0.000206442    0.000517750
      9        6          -0.000243721   -0.002002092   -0.003339178
     10        6          -0.000024897   -0.003214485    0.002120970
     11        8           0.003063718    0.002029042   -0.003782855
     12        7          -0.008029643   -0.006760354    0.002854667
     13        1          -0.003392556    0.000121981    0.001605964
     14        1           0.000204165    0.000534271   -0.000483632
     15        1          -0.000046598    0.000197173   -0.000171002
     16        1          -0.000391988    0.000032544   -0.000081778
     17        1          -0.000129430   -0.000218989    0.000098106
     18        1           0.000232714   -0.000510457    0.000401977
     19        1           0.000327758    0.000370821    0.000803207
     20        1          -0.000276504    0.000530562    0.000220510
     21        1          -0.000481536    0.000588744    0.000004755
     22        1          -0.000254574    0.001293098   -0.000578009
     23        1           0.000001243   -0.000873752    0.000787245
     24        1           0.002875661   -0.000671360   -0.001807779
 -------------------------------------------------------------------
 Cartesian Forces:  Max     0.009629202 RMS     0.002415136

 GradGradGradGradGradGradGradGradGradGradGradGradGradGradGradGradGradGrad
 Berny optimization.
 Using GEDIIS/GDIIS optimizer.
 FormGI is forming the generalized inverse of G from B-inverse, IUseBI=4.
 Internal  Forces:  Max     0.008798736 RMS     0.001586222
 Search for a local minimum.
 Step number   2 out of a maximum of  130
 All quantities printed in internal units (Hartrees-Bohrs-Radians)
 Mixed Optimization -- RFO/linear search
 Update second derivatives using D2CorX and points    1    2
 DE= -4.28D-03 DEPred=-4.29D-03 R= 9.98D-01
 TightC=F SS=  1.41D+00  RLast= 2.56D-01 DXNew= 5.0454D-01 7.6716D-01
 Trust test= 9.98D-01 RLast= 2.56D-01 DXMaxT set to 5.05D-01
 ITU=  1  0
 Use linear search instead of GDIIS.
     Eigenvalues ---    0.00239   0.00293   0.00444   0.01541   0.01771
     Eigenvalues ---    0.02270   0.02276   0.02280   0.02283   0.02295
     Eigenvalues ---    0.02307   0.02314   0.02329   0.03143   0.03423
     Eigenvalues ---    0.03964   0.04849   0.04996   0.06036   0.06691
     Eigenvalues ---    0.07987   0.08441   0.09307   0.11492   0.11808
     Eigenvalues ---    0.13845   0.14243   0.15935   0.15997   0.15998
     Eigenvalues ---    0.15999   0.16000   0.16000   0.16000   0.16295
     Eigenvalues ---    0.18791   0.21837   0.22000   0.22017   0.22135
     Eigenvalues ---    0.23203   0.23913   0.24974   0.25644   0.29867
     Eigenvalues ---    0.33321   0.34211   0.35123   0.35233   0.35993
     Eigenvalues ---    0.36019   0.36042   0.36186   0.37182   0.43701
     Eigenvalues ---    0.43787   0.45200   0.46499   0.46569   0.48028
     Eigenvalues ---    0.48292   0.48713   0.50415   0.51631   0.63860
     Eigenvalues ---    0.67332
 RFO step:  Lambda=-1.86824687D-03 EMin= 2.39000284D-03
 Quartic linear search produced a step of  0.06859.
 Iteration  1 RMS(Cart)=  0.05043381 RMS(Int)=  0.00114759
 Iteration  2 RMS(Cart)=  0.00165106 RMS(Int)=  0.00004770
 Iteration  3 RMS(Cart)=  0.00000158 RMS(Int)=  0.00004768
 Iteration  4 RMS(Cart)=  0.00000000 RMS(Int)=  0.00004768
 Variable       Old X    -DE/DX   Delta X   Delta X   Delta X     New X
                                 (Linear)    (Quad)   (Total)
    R1        2.90278   0.00631   0.00016   0.01058   0.01074   2.91353
    R2        1.92298   0.00221   0.00146   0.00891   0.01037   1.93335
    R3        3.40015  -0.00083  -0.00085  -0.00565  -0.00650   3.39365
    R4        3.44702  -0.00446  -0.00272  -0.02777  -0.03049   3.41653
    R5        2.93125   0.00880   0.00066   0.01658   0.01724   2.94849
    R6        2.63290  -0.00086   0.00140   0.00186   0.00326   2.63616
    R7        2.63298  -0.00094   0.00163   0.00229   0.00392   2.63689
    R8        2.63389  -0.00071   0.00122   0.00169   0.00291   2.63680
    R9        2.06791  -0.00068   0.00185   0.00285   0.00470   2.07261
   R10        2.63947  -0.00154   0.00135   0.00010   0.00144   2.64091
   R11        2.06484  -0.00026   0.00169   0.00369   0.00538   2.07022
   R12        2.63921  -0.00130   0.00135   0.00063   0.00198   2.64119
   R13        2.06579  -0.00040   0.00172   0.00333   0.00505   2.07084
   R14        2.63565  -0.00103   0.00126   0.00103   0.00229   2.63795
   R15        2.06517  -0.00027   0.00172   0.00371   0.00543   2.07060
   R16        2.06396  -0.00068   0.00187   0.00293   0.00480   2.06876
   R17        2.87934  -0.00229  -0.00013  -0.00847  -0.00860   2.87074
   R18        2.07711   0.00039   0.00156   0.00527   0.00683   2.08395
   R19        2.07786  -0.00017   0.00164   0.00379   0.00543   2.08330
   R20        2.62852  -0.00261  -0.00051  -0.00732  -0.00783   2.62069
   R21        2.10186   0.00035   0.00117   0.00417   0.00534   2.10720
   R22        2.08237   0.00049   0.00090   0.00389   0.00479   2.08716
   R23        1.85015   0.00002   0.00004   0.00015   0.00019   1.85034
   R24        1.92634   0.00240   0.00158   0.00968   0.01127   1.93761
    A1        1.93562  -0.00361  -0.00454  -0.03555  -0.04009   1.89553
    A2        1.78542  -0.00044  -0.00028   0.00367   0.00335   1.78877
    A3        1.99125   0.00031   0.00004   0.00004  -0.00008   1.99117
    A4        2.18225  -0.00034   0.00154  -0.00610  -0.00467   2.17758
    A5        1.75155   0.00190   0.00094   0.01894   0.01988   1.77144
    A6        1.96189   0.00076  -0.00105   0.00623   0.00531   1.96720
    A7        1.75115  -0.00157  -0.00127  -0.01636  -0.01771   1.73344
    A8        2.04532  -0.00064  -0.00109  -0.00566  -0.00675   2.03857
    A9        2.10778   0.00104   0.00049   0.00564   0.00613   2.11391
   A10        2.13008  -0.00040   0.00059  -0.00000   0.00059   2.13067
   A11        2.07396   0.00011  -0.00047  -0.00057  -0.00104   2.07291
   A12        2.08599  -0.00035   0.00054  -0.00093  -0.00040   2.08559
   A13        2.12308   0.00024  -0.00007   0.00144   0.00137   2.12445
   A14        2.09365   0.00011   0.00021   0.00098   0.00119   2.09484
   A15        2.09148   0.00001  -0.00023  -0.00041  -0.00065   2.09084
   A16        2.09803  -0.00012   0.00002  -0.00058  -0.00056   2.09747
   A17        2.10169  -0.00014  -0.00001  -0.00092  -0.00093   2.10075
   A18        2.09016   0.00010   0.00002   0.00073   0.00074   2.09090
   A19        2.09131   0.00003  -0.00001   0.00019   0.00019   2.09150
   A20        2.09753   0.00025   0.00021   0.00153   0.00174   2.09927
   A21        2.09593  -0.00015   0.00002  -0.00062  -0.00060   2.09533
   A22        2.08971  -0.00010  -0.00023  -0.00091  -0.00114   2.08857
   A23        2.06937   0.00008  -0.00053  -0.00103  -0.00156   2.06781
   A24        2.07685  -0.00012   0.00050   0.00056   0.00106   2.07791
   A25        2.13683   0.00004   0.00003   0.00042   0.00046   2.13729
   A26        1.93276  -0.00588   0.00126  -0.02633  -0.02509   1.90766
   A27        1.80409   0.00259  -0.00330   0.01262   0.00947   1.81356
   A28        1.88093   0.00176   0.00087   0.00225   0.00293   1.88386
   A29        1.97029   0.00159   0.00076   0.01666   0.01751   1.98780
   A30        1.93852   0.00113   0.00051  -0.00317  -0.00281   1.93571
   A31        1.93105  -0.00119  -0.00026  -0.00203  -0.00233   1.92872
   A32        1.97154  -0.00371   0.00090  -0.01524  -0.01436   1.95717
   A33        1.88895   0.00091  -0.00034  -0.00369  -0.00413   1.88482
   A34        1.88318   0.00096  -0.00274   0.00278   0.00008   1.88326
   A35        1.97356   0.00070   0.00233   0.00054   0.00275   1.97631
   A36        1.88024   0.00224   0.00139   0.02684   0.02826   1.90850
   A37        1.86118  -0.00092  -0.00181  -0.01071  -0.01265   1.84853
   A38        1.82492   0.00193  -0.00235   0.00663   0.00428   1.82919
   A39        1.92228  -0.00269  -0.00472  -0.02995  -0.03467   1.88761
    D1        2.89849   0.00087   0.00186   0.04189   0.04376   2.94226
    D2       -1.51024   0.00294   0.00281   0.06577   0.06858  -1.44165
    D3        0.64704   0.00048   0.00240   0.03385   0.03623   0.68327
    D4       -2.84614   0.00042   0.00034   0.01244   0.01281  -2.83333
    D5        0.29060   0.00037  -0.00014   0.00844   0.00833   0.29893
    D6        1.38316  -0.00043   0.00006   0.00475   0.00480   1.38796
    D7       -1.76329  -0.00048  -0.00042   0.00075   0.00032  -1.76296
    D8       -0.46372   0.00019   0.00135   0.01213   0.01346  -0.45026
    D9        2.67301   0.00014   0.00088   0.00813   0.00898   2.68200
   D10        1.42304  -0.00010  -0.00319   0.03007   0.02687   1.44990
   D11       -0.69163  -0.00052  -0.00282   0.01630   0.01351  -0.67811
   D12       -2.73663  -0.00117  -0.00130   0.01154   0.01027  -2.72636
   D13       -2.96480   0.00052  -0.00300   0.04439   0.04142  -2.92339
   D14        1.20372   0.00010  -0.00263   0.03062   0.02806   1.23178
   D15       -0.84129  -0.00055  -0.00111   0.02586   0.02482  -0.81647
   D16       -0.95259   0.00142  -0.00420   0.05171   0.04742  -0.90517
   D17       -3.06726   0.00101  -0.00382   0.03794   0.03407  -3.03319
   D18        1.17093   0.00035  -0.00230   0.03319   0.03083   1.20175
   D19        0.71924   0.00168   0.00256   0.05341   0.05592   0.77516
   D20       -1.45859   0.00183   0.00265   0.04659   0.04924  -1.40935
   D21        2.97745   0.00022   0.00255   0.03124   0.03385   3.01130
   D22       -3.13302  -0.00005  -0.00010  -0.00274  -0.00282  -3.13584
   D23        0.02726   0.00002   0.00028   0.00105   0.00134   0.02861
   D24        0.01350   0.00000   0.00038   0.00130   0.00169   0.01519
   D25       -3.10940   0.00007   0.00076   0.00509   0.00585  -3.10355
   D26        3.13313   0.00007   0.00010   0.00354   0.00365   3.13678
   D27       -0.02507   0.00001  -0.00008   0.00087   0.00080  -0.02427
   D28       -0.01357   0.00001  -0.00040  -0.00067  -0.00108  -0.01464
   D29        3.11142  -0.00004  -0.00058  -0.00335  -0.00393   3.10749
   D30       -0.00377  -0.00000  -0.00017  -0.00069  -0.00086  -0.00462
   D31       -3.13783   0.00002   0.00017   0.00102   0.00119  -3.13664
   D32        3.11872  -0.00008  -0.00055  -0.00459  -0.00514   3.11359
   D33       -0.01534  -0.00006  -0.00021  -0.00288  -0.00309  -0.01843
   D34       -0.00548  -0.00001  -0.00001  -0.00051  -0.00052  -0.00600
   D35       -3.13897  -0.00000   0.00016   0.00014   0.00029  -3.13868
   D36        3.12855  -0.00003  -0.00036  -0.00222  -0.00258   3.12597
   D37       -0.00493  -0.00003  -0.00019  -0.00158  -0.00177  -0.00670
   D38        0.00540   0.00003  -0.00000   0.00114   0.00114   0.00653
   D39       -3.13079   0.00003   0.00026   0.00177   0.00203  -3.12876
   D40        3.13887   0.00002  -0.00017   0.00050   0.00033   3.13920
   D41        0.00268   0.00002   0.00009   0.00114   0.00123   0.00391
   D42        0.00394  -0.00003   0.00020  -0.00056  -0.00035   0.00359
   D43       -3.12044   0.00003   0.00038   0.00221   0.00260  -3.11784
[...]
 Alpha virt. eigenvalues --    2.50742   2.51214   2.51754   2.52860   2.54815
 Alpha virt. eigenvalues --    2.55686   2.56797   2.59247   2.60973   2.61900
 Alpha virt. eigenvalues --    2.62409   2.63786   2.64680   2.65573   2.66244
 Alpha virt. eigenvalues --    2.67443   2.67720   2.70064   2.70291   2.71357
 Alpha virt. eigenvalues --    2.72750   2.73094   2.75413   2.76565   2.76863
 Alpha virt. eigenvalues --    2.78361   2.78881   2.79851   2.82171   2.82928
 Alpha virt. eigenvalues --    2.83776   2.84578   2.85847   2.89067   2.90140
 Alpha virt. eigenvalues --    2.91834   2.92291   2.95318   2.96383   2.98324
 Alpha virt. eigenvalues --    2.98965   3.01945   3.04549   3.05958   3.09598
 Alpha virt. eigenvalues --    3.10181   3.11209   3.11924   3.12936   3.13258
 Alpha virt. eigenvalues --    3.14219   3.15235   3.16505   3.17500   3.19327
 Alpha virt. eigenvalues --    3.20260   3.21877   3.23439   3.24717   3.26027
 Alpha virt. eigenvalues --    3.26380   3.27931   3.29092   3.30719   3.31896
 Alpha virt. eigenvalues --    3.34196   3.35412   3.35607   3.36029   3.37969
 Alpha virt. eigenvalues --    3.39606   3.41038   3.42608   3.44061   3.44916
 Alpha virt. eigenvalues --    3.46527   3.47791   3.49448   3.50727   3.52125
 Alpha virt. eigenvalues --    3.53714   3.54787   3.56053   3.57270   3.61202
 Alpha virt. eigenvalues --    3.65108   3.68394   3.69086   3.72433   3.74391
 Alpha virt. eigenvalues --    3.76652   3.78280   3.81437   3.84385   3.84955
 Alpha virt. eigenvalues --    3.91170   3.93718   3.94823   3.96306   3.99919
 Alpha virt. eigenvalues --    4.01638   4.02465   4.04103   4.07238   4.08261
 Alpha virt. eigenvalues --    4.09667   4.11551   4.12473   4.15608   4.18376
 Alpha virt. eigenvalues --    4.18884   4.19422   4.20959   4.21505   4.23898
 Alpha virt. eigenvalues --    4.24476   4.25566   4.26040   4.27554   4.30610
 Alpha virt. eigenvalues --    4.32491   4.33698   4.34956   4.36656   4.40745
 Alpha virt. eigenvalues --    4.43001   4.47865   4.53729   4.57237   4.60705
 Alpha virt. eigenvalues --    4.61328   4.63030   4.63643   4.66833   4.69324
 Alpha virt. eigenvalues --    4.71403   4.71901   4.75140   4.77369   4.81831
 Alpha virt. eigenvalues --    4.83885   4.88709   4.91280   4.93497   4.95523
 Alpha virt. eigenvalues --    5.05303   5.08108   5.12902   5.16339   5.16856
 Alpha virt. eigenvalues --    5.18320   5.23138   5.23979   5.27451   5.32209
 Alpha virt. eigenvalues --    5.34599   5.38822   5.41829   5.50050   5.55533
 Alpha virt. eigenvalues --    5.57258   5.59500   5.78725   5.85452   6.01753
 Alpha virt. eigenvalues --    6.32403   6.51135   6.76438   6.82378   7.02748
 Alpha virt. eigenvalues --    7.21247   9.44404   9.53950   9.63829  21.67045
 Alpha virt. eigenvalues --   22.04720  22.43587  22.54747  22.61898  22.63491
 Alpha virt. eigenvalues --   22.73967  22.82093  23.15235  31.92766  31.97227
 Alpha virt. eigenvalues --   43.95153
          Condensed to atoms (all electrons):
               1          2          3          4          5          6
     1  N    6.896771   0.526121  -0.143510   0.015032  -0.001464   0.000878
     2  S    0.526121  14.155265   0.219749  -0.036153   0.002621   0.002458
     3  C   -0.143510   0.219749   5.254822   0.417618   0.025609  -0.075798
     4  C    0.015032  -0.036153   0.417618   5.105378   0.420501   0.018271
     5  C   -0.001464   0.002621   0.025609   0.420501   4.919191   0.474167
     6  C    0.000878   0.002458  -0.075798   0.018271   0.474167   4.849123
     7  C   -0.001297   0.002572   0.014840  -0.073990   0.016420   0.470047
     8  C    0.029208   0.006692   0.354951  -0.061918  -0.072918   0.019931
     9  C   -0.040234   0.301921  -0.073491  -0.005614  -0.000670   0.000115
    10  C   -0.007821  -0.016747   0.002753  -0.000359   0.000086  -0.000007
    11  O   -0.000311  -0.021095   0.000319  -0.000955  -0.000034   0.000001
    12  N   -0.076637   0.460032  -0.097233   0.009041  -0.003545   0.000465
    13  H    0.318706  -0.020850   0.017961  -0.000818   0.000089  -0.000026
    14  H    0.001573  -0.003774  -0.052004   0.431274  -0.054919   0.008154
    15  H   -0.000001  -0.000347   0.010028  -0.049707   0.423589  -0.046975
    16  H    0.000001   0.000063  -0.001892   0.009697  -0.047764   0.421408
    17  H   -0.000188  -0.000499   0.010188  -0.000577   0.009109  -0.048885
    18  H    0.020389   0.000312  -0.048231   0.007555  -0.002129   0.008739
    19  H   -0.001243  -0.023093   0.001250   0.000393  -0.000281   0.000082
    20  H    0.005116  -0.016039   0.009793  -0.006184   0.000103  -0.000096
    21  H    0.004951   0.006067   0.002809  -0.000484  -0.000004  -0.000001
    22  H   -0.000177   0.003449  -0.000611  -0.000004   0.000002   0.000001
    23  H    0.001288  -0.001954   0.000414   0.000331   0.000016  -0.000000
    24  H   -0.001743  -0.025998   0.000968  -0.004335   0.000156  -0.000045
               7          8          9         10         11         12
     1  N   -0.001297   0.029208  -0.040234  -0.007821  -0.000311  -0.076637
     2  S    0.002572   0.006692   0.301921  -0.016747  -0.021095   0.460032
     3  C    0.014840   0.354951  -0.073491   0.002753   0.000319  -0.097233
     4  C   -0.073990  -0.061918  -0.005614  -0.000359  -0.000955   0.009041
     5  C    0.016420  -0.072918  -0.000670   0.000086  -0.000034  -0.003545
     6  C    0.470047   0.019931   0.000115  -0.000007   0.000001   0.000465
     7  C    4.921225   0.428925  -0.001181   0.000044  -0.000003  -0.000935
     8  C    0.428925   5.078577   0.015052   0.001222   0.000115   0.012547
     9  C   -0.001181   0.015052   5.227119   0.325414  -0.038912  -0.086691
    10  C    0.000044   0.001222   0.325414   4.667533   0.323622   0.028807
    11  O   -0.000003   0.000115  -0.038912   0.323622   7.983431  -0.038189
    12  N   -0.000935   0.012547  -0.086691   0.028807  -0.038189   7.042151
    13  H    0.000098  -0.003325  -0.006177  -0.002225  -0.000293  -0.001563
    14  H   -0.001938   0.005307  -0.000654  -0.000909   0.000172   0.019504
    15  H    0.008621  -0.000788   0.000050  -0.000001   0.000000  -0.000028
    16  H   -0.047329   0.009207  -0.000000  -0.000000   0.000000   0.000003
    17  H    0.421962  -0.048357   0.000004  -0.000002   0.000000   0.000004
    18  H   -0.054728   0.428369   0.000785   0.000174   0.000002   0.000937
    19  H   -0.000279   0.000013   0.357553  -0.013899   0.006412   0.006394
    20  H    0.000298  -0.000989   0.353081  -0.024363   0.005473  -0.001968
    21  H    0.000008  -0.000103  -0.076555   0.384604  -0.048031  -0.003235
    22  H   -0.000002   0.000053  -0.026883   0.401054  -0.040580   0.000591
    23  H    0.000002  -0.000281  -0.003835  -0.038828   0.311073   0.037636
    24  H   -0.000027   0.002416   0.012293  -0.001162   0.001801   0.317969
              13         14         15         16         17         18
     1  N    0.318706   0.001573  -0.000001   0.000001  -0.000188   0.020389
     2  S   -0.020850  -0.003774  -0.000347   0.000063  -0.000499   0.000312
     3  C    0.017961  -0.052004   0.010028  -0.001892   0.010188  -0.048231
     4  C   -0.000818   0.431274  -0.049707   0.009697  -0.000577   0.007555
     5  C    0.000089  -0.054919   0.423589  -0.047764   0.009109  -0.002129
     6  C   -0.000026   0.008154  -0.046975   0.421408  -0.048885   0.008739
     7  C    0.000098  -0.001938   0.008621  -0.047329   0.421962  -0.054728
     8  C   -0.003325   0.005307  -0.000788   0.009207  -0.048357   0.428369
     9  C   -0.006177  -0.000654   0.000050  -0.000000   0.000004   0.000785
    10  C   -0.002225  -0.000909  -0.000001  -0.000000  -0.000002   0.000174
    11  O   -0.000293   0.000172   0.000000   0.000000   0.000000   0.000002
    12  N   -0.001563   0.019504  -0.000028   0.000003   0.000004   0.000937
    13  H    0.475634  -0.000063  -0.000000   0.000000  -0.000002  -0.001255
    14  H   -0.000063   0.492003  -0.006135  -0.000163   0.000085  -0.000269
    15  H   -0.000000  -0.006135   0.539436  -0.007186  -0.000237   0.000060
    16  H    0.000000  -0.000163  -0.007186   0.543327  -0.007197  -0.000160
    17  H   -0.000002   0.000085  -0.000237  -0.007197   0.542634  -0.006579
    18  H   -0.001255  -0.000269   0.000060  -0.000160  -0.006579   0.481661
    19  H   -0.000198   0.000260  -0.000001  -0.000000  -0.000006   0.000629
    20  H    0.000107   0.000404   0.000010   0.000000   0.000005  -0.000156
    21  H    0.004268   0.000036  -0.000000   0.000000   0.000000  -0.000050
    22  H   -0.000089  -0.000028   0.000000  -0.000000   0.000000   0.000011
    23  H    0.000252   0.000336  -0.000001   0.000000   0.000000  -0.000011
    24  H   -0.000214  -0.002002   0.000015  -0.000000  -0.000000   0.000050
              19         20         21         22         23         24
     1  N   -0.001243   0.005116   0.004951  -0.000177   0.001288  -0.001743
     2  S   -0.023093  -0.016039   0.006067   0.003449  -0.001954  -0.025998
     3  C    0.001250   0.009793   0.002809  -0.000611   0.000414   0.000968
     4  C    0.000393  -0.006184  -0.000484  -0.000004   0.000331  -0.004335
     5  C   -0.000281   0.000103  -0.000004   0.000002   0.000016   0.000156
     6  C    0.000082  -0.000096  -0.000001   0.000001  -0.000000  -0.000045
     7  C   -0.000279   0.000298   0.000008  -0.000002   0.000002  -0.000027
     8  C    0.000013  -0.000989  -0.000103   0.000053  -0.000281   0.002416
     9  C    0.357553   0.353081  -0.076555  -0.026883  -0.003835   0.012293
    10  C   -0.013899  -0.024363   0.384604   0.401054  -0.038828  -0.001162
    11  O    0.006412   0.005473  -0.048031  -0.040580   0.311073   0.001801
    12  N    0.006394  -0.001968  -0.003235   0.000591   0.037636   0.317969
    13  H   -0.000198   0.000107   0.004268  -0.000089   0.000252  -0.000214
    14  H    0.000260   0.000404   0.000036  -0.000028   0.000336  -0.002002
    15  H   -0.000001   0.000010  -0.000000   0.000000  -0.000001   0.000015
    16  H   -0.000000   0.000000   0.000000  -0.000000   0.000000  -0.000000
    17  H   -0.000006   0.000005   0.000000   0.000000   0.000000  -0.000000
    18  H    0.000629  -0.000156  -0.000050   0.000011  -0.000011   0.000050
    19  H    0.542939  -0.016540   0.006925  -0.005306  -0.000295  -0.000376
    20  H   -0.016540   0.549609   0.013470  -0.010377  -0.001945  -0.000944
    21  H    0.006925   0.013470   0.690123  -0.056625  -0.004564  -0.000697
    22  H   -0.005306  -0.010377  -0.056625   0.614506   0.008293   0.000101
    23  H   -0.000295  -0.001945  -0.004564   0.008293   0.355367  -0.000599
    24  H   -0.000376  -0.000944  -0.000697   0.000101  -0.000599   0.483708
 Mulliken charges:
               1
     1  N   -0.545407
     2  S    0.479229
     3  C    0.148699
     4  C   -0.193995
     5  C   -0.107930
     6  C   -0.102006
     7  C   -0.103352
     8  C   -0.203907
     9  C   -0.232488
    10  C   -0.028991
    11  O   -0.444020
    12  N   -0.626054
    13  H    0.219980
    14  H    0.163750
    15  H    0.129598
    16  H    0.127985
    17  H    0.128536
    18  H    0.163895
    19  H    0.138667
    20  H    0.142130
    21  H    0.077089
    22  H    0.112621
    23  H    0.337305
    24  H    0.218668
 Sum of Mulliken charges =  -0.00000
 Mulliken charges with hydrogens summed into heavy atoms:
               1
     1  N   -0.325427
     2  S    0.479229
     3  C    0.148699
     4  C   -0.030245
     5  C    0.021668
     6  C    0.025979
     7  C    0.025184
     8  C   -0.040012
     9  C    0.048308
    10  C    0.160718
    11  O   -0.106715
    12  N   -0.407386
 Electronic spatial extent (au):  <R**2>=           2560.4257
 Charge=             -0.0000 electrons
 Dipole moment (field-independent basis, Debye):
    X=             -3.3876    Y=              0.2550    Z=             -1.2162  Tot=              3.6083
 Quadrupole moment (field-independent basis, Debye-Ang):
   XX=            -79.8984   YY=            -81.1801   ZZ=            -76.8038
   XY=              8.8498   XZ=              0.3217   YZ=             -2.1899
 Traceless Quadrupole moment (field-independent basis, Debye-Ang):
   XX=             -0.6043   YY=             -1.8860   ZZ=              2.4903
   XY=              8.8498   XZ=              0.3217   YZ=             -2.1899
 Octapole moment (field-independent basis, Debye-Ang**2):
  XXX=            -64.7364  YYY=            -10.7775  ZZZ=              7.6010  XYY=             -9.4370
  XXY=             27.0252  XXZ=             -9.6133  XZZ=             22.3796  YZZ=             -0.1353
  YYZ=             -0.4687  XYZ=              4.7140
 Hexadecapole moment (field-independent basis, Debye-Ang**3):
 XXXX=          -2510.9176 YYYY=           -586.6706 ZZZZ=           -309.7605 XXXY=            107.1998
 XXXZ=             38.5703 YYYX=             21.8160 YYYZ=            -11.0791 ZZZX=             -7.2109
 ZZZY=             -0.6430 XXYY=           -494.9693 XXZZ=           -472.1958 YYZZ=           -161.7394
 XXYZ=            -13.4736 YYXZ=             13.3047 ZZXY=             -7.9558
 N-N= 8.320072891318D+02 E-N=-3.765965051539D+03  KE= 8.911559618634D+02
 Breneman (CHELPG) radii used.
 Read replacement radii for each type of atom:
 Atom Element Radius
    1     7    1.70
    2    16    2.00
    3     6    1.50
    4     6    1.50
    5     6    1.50
    6     6    1.50
    7     6    1.50
    8     6    1.50
    9     6    1.50
   10     6    1.50
   11     8    1.70
   12     7    1.70
   13     1    1.45
   14     1    1.45
   15     1    1.45
   16     1    1.45
   17     1    1.45
   18     1    1.45
   19     1    1.45
   20     1    1.45
   21     1    1.45
   22     1    1.45
   23     1    1.45
   24     1    1.45
 Generate Potential Derived Charges using the Breneman model, NDens= 1.
 Grid spacing= 0.300 Box extension= 2.800
 NStep X,Y,Z=   47     36     35   Total possible points=       59220
 Number of Points to Fit=   15159

 **********************************************************************

            Electrostatic Properties Using The SCF Density.

 **********************************************************************

       Atomic Center    1 is at   0.729272  2.010740  0.590305
       Atomic Center    2 is at   0.743754  0.474713  0.411593
       Atomic Center    3 is at  -0.988587  0.119947  0.121913
       Atomic Center    4 is at  -1.406896 -1.192603  0.327080
       Atomic Center    5 is at  -2.743267 -1.515123  0.101906
       Atomic Center    6 is at  -3.637028 -0.529011 -0.316145
       Atomic Center    7 is at  -3.202272  0.783417 -0.505933
       Atomic Center    8 is at  -1.868075  1.119674 -0.287011
       Atomic Center    9 is at   1.512995 -0.096407 -1.127860
       Atomic Center   10 is at   3.031807 -0.099278 -0.995038
       Atomic Center   11 is at   3.502427 -1.142061 -0.216934
       Atomic Center   12 is at   1.399023 -0.523159  1.423276
       Atomic Center   13 is at   1.678597  2.318512  0.813689
       Atomic Center   14 is at  -0.684756 -1.935192  0.677004
       Atomic Center   15 is at  -3.089477 -2.538844  0.260702
       Atomic Center   16 is at  -4.685163 -0.784271 -0.489286
       Atomic Center   17 is at  -3.909188  1.553627 -0.822906
       Atomic Center   18 is at  -1.493511  2.137597 -0.405529
       Atomic Center   19 is at   1.149109  0.609981 -1.888095
       Atomic Center   20 is at   1.138854 -1.108481 -1.340002
       Atomic Center   21 is at   3.351821  0.902885 -0.628308
       Atomic Center   22 is at   3.456586 -0.197597 -2.008451
       Atomic Center   23 is at   2.965137 -1.116281  0.603488
       Atomic Center   24 is at   1.112385 -0.257622  2.369139
   15159 points will be used for fitting atomic charges
 Fitting point charges to electrostatic potential
 Charges from ESP fit, RMS=   0.00320 RRMS=   0.21773:
 ESP charges:
               1
     1  N   -0.774416
     2  S    0.591649
     3  C    0.141069
     4  C   -0.137618
     5  C   -0.099991
     6  C   -0.070996
     7  C   -0.109716
     8  C   -0.111626
     9  C   -0.234036
    10  C    0.467945
    11  O   -0.666064
    12  N   -0.748758
    13  H    0.367474
    14  H    0.127744
    15  H    0.106842
    16  H    0.100353
    17  H    0.107477
    18  H    0.138264
    19  H    0.065937
    20  H    0.090398
    21  H   -0.082428
    22  H    0.006641
    23  H    0.401694
    24  H    0.322162
 Sum of ESP charges =  -0.00000
 ESP charges with hydrogens summed into heavy atoms:
               1
     1  N   -0.406942
     2  S    0.591649
     3  C    0.141069
     4  C   -0.009874
     5  C    0.006850
     6  C    0.029357
     7  C   -0.002239
     8  C    0.026638
     9  C   -0.077700
    10  C    0.392157
    11  O   -0.264369
    12  N   -0.426596
 Charge=  -0.00000 Dipole=    -3.4421     0.2960    -1.1829 Tot=     3.6517
 -----------------------------------------------------------------

              Electrostatic Properties (Atomic Units)

 -----------------------------------------------------------------
    Center     Electric         -------- Electric Field --------
               Potential          X             Y             Z
 -----------------------------------------------------------------
    1 Atom    -18.415957
    2 Atom    -59.066946
    3 Atom    -14.722086
    4 Atom    -14.737931
    5 Atom    -14.741200
    6 Atom    -14.740058
    7 Atom    -14.742185
    8 Atom    -14.740247
    9 Atom    -14.729484
   10 Atom    -14.707857
   11 Atom    -22.370104
   12 Atom    -18.410804
   13 Atom     -1.039977
   14 Atom     -1.080554
   15 Atom     -1.084249
   16 Atom     -1.083765
   17 Atom     -1.085417
   18 Atom     -1.086969
   19 Atom     -1.076065
   20 Atom     -1.079019
   21 Atom     -1.116949
   22 Atom     -1.111332
   23 Atom     -1.026704
   24 Atom     -1.040362
 -----------------------------------------------------------------
 Unable to Open any file for archive entry.
 1\1\GINC-NOTCH117\SP\RPBE1PBE\def2TZVP\C8H12N2O1S1\U1414944\06-Jun-202
 5\0\\#N Guess=Read Geom=Check Integral(Ultrafine) Density Pop=(ChelpG,
 ReadRadii) NMR pbe1pbe EmpiricalDispersion=GD3BJ def2TZVP\\SDI0054_3\\
 0,1\N,0,-0.9028183324,0.7885882435,-1.858249958\S,0,-0.7816414476,-0.0
 631564112,-0.5731924163\C,0,0.9681672782,0.0642984221,-0.2089030825\C,
 0,1.5092832607,-0.9029080046,0.634642953\C,0,2.8635382381,-0.834666667
 7,0.95393225\C,0,3.6531445571,0.1870067938,0.4260148063\C,0,3.09604402
 56,1.1411333017,-0.4265008\C,0,1.7425480943,1.086652004,-0.7523161468\
 C,0,-1.5332839478,0.6837851143,0.8981810119\C,0,-3.0417821847,0.462723
 2396,0.8959835109\O,0,-3.3961107978,-0.8369863999,1.2114692537\N,0,-1.
 3181376929,-1.5264231825,-0.43301926\H,0,-1.8704555976,0.7422957256,-2
 .1859337074\H,0,0.8666602251,-1.7028581495,1.0121183045\H,0,3.30541183
 7,-1.5865554721,1.6115753359\H,0,4.7156006956,0.2364077288,0.675949280
 1\H,0,3.7218044898,1.9325247122,-0.8454843726\H,0,1.2739662745,1.80190
 68109,-1.430072977\H,0,-1.2541137757,1.7454559133,0.8328184421\H,0,-1.
 0737950467,0.2243367277,1.7853422719\H,0,-3.4426775983,0.802155778,-0.
 0865126104\H,0,-3.4806455396,1.1391489744,1.6489484869\H,0,-2.84337731
 97,-1.4041507669,0.6324638405\H,0,-1.0337019672,-2.0546474513,-1.26211
 74164\\Version=ES64L-G16RevC.01\State=1-A\HF=-894.4072699\RMSD=4.506e-
 09\Dipole=1.3059037,0.5327308,0.1615741\Quadrupole=0.7337873,1.4611339
 ,-2.1949212,-4.1069903,4.9377955,1.950085\PG=C01 [X(C8H12N2O1S1)]\\@
 The archive entry for this job was punched.


 HE WHO LOVES TO READ, AND KNOWS HOW TO REFLECT,
 HAS LAID BY A PERPETUAL FEAST FOR HIS OLD AGE.
 -- UNCLE ESEK, "SCRIBNER'S MONTHLY", SEPT. 1880
 Job cpu time:       0 days  0 hours 31 minutes 33.3 seconds.
 Elapsed time:       0 days  0 hours  2 minutes  8.9 seconds.
 File lengths (MBytes):  RWF=    130 Int=      0 D2E=      0 Chk=     20 Scr=      2
 Normal termination of Gaussian 16 at Fri Jun  6 18:41:27 2025.
