 Entering Gaussian System, Link 0=g16
 Input=SDI0054_4.com
 Output=SDI0054_4.log
 Initial command:
 /uufs/chpc.utah.edu/sys/installdir/gaussian16/C01/AVX/g16/l1.exe "/scratch/general/vast/u1414944/3119860-notchpeak.peaks/Gau-571050.inp" -scrdir="/scratch/general/vast/u1414944/3119860-notchpeak.peaks/"
 Entering Link 1 = /uufs/chpc.utah.edu/sys/installdir/gaussian16/C01/AVX/g16/l1.exe PID=    571051.
  
 Copyright (c) 1988-2019, Gaussian, Inc.  All Rights Reserved.
  
 This is part of the Gaussian(R) 16 program.  It is based on
 the Gaussian(R) 09 system (copyright 2009, Gaussian, Inc.),
 the Gaussian(R) 03 system (copyright 2003, Gaussian, Inc.),
 the Gaussian(R) 98 system (copyright 1998, Gaussian, Inc.),
 the Gaussian(R) 94 system (copyright 1995, Gaussian, Inc.),
 the Gaussian 92(TM) system (copyright 1992, Gaussian, Inc.),
 the Gaussian 90(TM) system (copyright 1990, Gaussian, Inc.),
 the Gaussian 88(TM) system (copyright 1988, Gaussian, Inc.),
 the Gaussian 86(TM) system (copyright 1986, Carnegie Mellon
 University), and the Gaussian 82(TM) system (copyright 1983,
 Carnegie Mellon University). Gaussian is a federally registered
 trademark of Gaussian, Inc.
  
 This software contains proprietary and confidential information,
 including trade secrets, belonging to Gaussian, Inc.
  
 This software is provided under written license and may be
 used, copied, transmitted, or stored only in accord with that
 written license.
  
 The following legend is applicable only to US Government
 contracts under FAR:
  
                    RESTRICTED RIGHTS LEGEND
  
 Use, reproduction and disclosure by the US Government is
 subject to restrictions as set forth in subparagraphs (a)
 and (c) of the Commercial Computer Software - Restricted
 Rights clause in FAR 52.227-19.
  
 Gaussian, Inc.
 340 Quinnipiac St., Bldg. 40, Wallingford CT 06492
  
  
 ---------------------------------------------------------------
 Warning -- This program may not be used in any manner that
 competes with the business of Gaussian, Inc. or will provide
 assistance to any competitor of Gaussian, Inc.  The licensee
 of this program is prohibited from giving any competitor of
 Gaussian, Inc. access to this program.  By using this program,
 the user acknowledges that Gaussian, Inc. is engaged in the
 business of creating and licensing software in the field of
 computational chemistry and represents and warrants to the
 licensee that it is not a competitor of Gaussian, Inc. and that
 it will not use this program in any manner prohibited above.
 ---------------------------------------------------------------
  

 Cite this work as:
 Gaussian 16, Revision C.01,
 M. J. Frisch, G. W. Trucks, H. B. Schlegel, G. E. Scuseria, 
 M. A. Robb, J. R. Cheeseman, G. Scalmani, V. Barone, 
 G. A. Petersson, H. Nakatsuji, X. Li, M. Caricato, A. V. Marenich, 
 J. Bloino, B. G. Janesko, R. Gomperts, B. Mennucci, H. P. Hratchian, 
 J. V. Ortiz, A. F. Izmaylov, J. L. Sonnenberg, D. Williams-Young, 
 F. Ding, F. Lipparini, F. Egidi, J. Goings, B. Peng, A. Petrone, 
 T. Henderson, D. Ranasinghe, V. G. Zakrzewski, J. Gao, N. Rega, 
 G. Zheng, W. Liang, M. Hada, M. Ehara, K. Toyota, R. Fukuda, 
 J. Hasegawa, M. Ishida, T. Nakajima, Y. Honda, O. Kitao, H. Nakai, 
 T. Vreven, K. Throssell, J. A. Montgomery, Jr., J. E. Peralta, 
 F. Ogliaro, M. J. Bearpark, J. J. Heyd, E. N. Brothers, K. N. Kudin, 
 V. N. Staroverov, T. A. Keith, R. Kobayashi, J. Normand, 
 K. Raghavachari, A. P. Rendell, J. C. Burant, S. S. Iyengar, 
 J. Tomasi, M. Cossi, J. M. Millam, M. Klene, C. Adamo, R. Cammi, 
 J. W. Ochterski, R. L. Martin, K. Morokuma, O. Farkas, 
 J. B. Foresman, and D. J. Fox, Gaussian, Inc., Wallingford CT, 2019.
 
 ******************************************
 Gaussian 16:  ES64L-G16RevC.01  3-Jul-2019
                10-Feb-2025 
 ******************************************
 %NProcShared=16
 Will use up to   16 processors via shared memory.
 %Mem=40GB
 %chk=SDI0054_4.chk
 ----------------------------------------------------------------------
 #N OPT FREQ=NORAMAN Integral(Ultrafine) pbe1pbe EmpiricalDispersion=GD
 3BJ def2SVP
 ----------------------------------------------------------------------
 1/18=20,19=15,26=4,38=1/1,3;
 2/9=110,12=2,17=6,18=5,40=1/2;
 3/5=43,7=101,11=2,25=1,30=1,71=1,74=-13,75=-5,124=41/1,2,3;
 4//1;
 5/5=2,38=5/2;
 6/7=2,8=2,9=2,10=2,28=1/1;
 7//1,2,3,16;
 1/18=20,19=15,26=4/3(2);
 2/9=110/2;
 99//99;
 2/9=110/2;
 3/5=43,7=101,11=2,25=1,30=1,71=1,74=-13,75=-5,124=41/1,2,3;
 4/5=5,16=3,69=1/1;
 5/5=2,38=5/2;
 7//1,2,3,16;
 1/18=20,19=15,26=4/3(-5);
 2/9=110/2;
 6/7=2,8=2,9=2,10=2,19=2,28=1/1;
 99/9=1/99;
 ---------
 SDI0054_4
 ---------
 Symbolic Z-matrix:
 Charge =  0 Multiplicity = 1
 N                    -1.10025   0.38119  -2.27095 
 S                    -0.89748  -0.19374  -0.86159 
 C                     0.78595   0.00377  -0.229 
 C                     1.34164  -0.93843   0.61248 
 C                     2.6319   -0.74506   1.07828 
 C                     3.34682   0.37858   0.69563 
 C                     2.78095   1.31278  -0.15868 
 C                     1.49182   1.12477  -0.62579 
 C                    -1.79017   1.06045   0.15958 
 C                    -2.6857    0.3482    1.16905 
 O                    -1.96448  -0.53747   1.97736 
 N                    -1.24717  -1.64809  -0.4652 
 H                    -0.78905  -0.21987  -3.01702 
 H                     0.76199  -1.8062    0.88153 
 H                     3.07861  -1.47179   1.7398 
 H                     4.35224   0.52639   1.06104 
 H                     3.34337   2.18364  -0.46037 
 H                     1.02344   1.82589  -1.30077 
 H                    -2.35366   1.66691  -0.54241 
 H                    -1.0336    1.65717   0.66307 
 H                    -3.48472  -0.18042   0.62826 
 H                    -3.14843   1.07842   1.83988 
 H                    -1.6067   -1.22423   1.38171 
 H                    -1.97109  -2.06463  -1.02728 
 

 GradGradGradGradGradGradGradGradGradGradGradGradGradGradGradGradGradGrad
 Berny optimization.
 Initialization pass.
                           ----------------------------
                           !    Initial Parameters    !
                           ! (Angstroms and Degrees)  !
 --------------------------                            --------------------------
 ! Name  Definition              Value          Derivative Info.                !
 --------------------------------------------------------------------------------
 ! R1    R(1,2)                  1.5356         estimate D2E/DX2                !
 ! R2    R(1,13)                 1.0073         estimate D2E/DX2                !
 ! R3    R(2,3)                  1.8092         estimate D2E/DX2                !
 ! R4    R(2,9)                  1.8473         estimate D2E/DX2                !
 ! R5    R(2,12)                 1.5474         estimate D2E/DX2                !
 ! R6    R(3,4)                  1.3801         estimate D2E/DX2                !
 ! R7    R(3,8)                  1.3829         estimate D2E/DX2                !
 ! R8    R(4,5)                  1.3853         estimate D2E/DX2                !
 ! R9    R(4,14)                 1.0777         estimate D2E/DX2                !
 ! R10   R(5,6)                  1.3857         estimate D2E/DX2                !
 ! R11   R(5,15)                 1.0795         estimate D2E/DX2                !
 ! R12   R(6,7)                  1.3866         estimate D2E/DX2                !
 ! R13   R(6,16)                 1.0799         estimate D2E/DX2                !
 ! R14   R(7,8)                  1.384          estimate D2E/DX2                !
 ! R15   R(7,17)                 1.0797         estimate D2E/DX2                !
 ! R16   R(8,18)                 1.0801         estimate D2E/DX2                !
 ! R17   R(9,10)                 1.5259         estimate D2E/DX2                !
 ! R18   R(9,19)                 1.0854         estimate D2E/DX2                !
 ! R19   R(9,20)                 1.0872         estimate D2E/DX2                !
 ! R20   R(10,11)                1.3993         estimate D2E/DX2                !
 ! R21   R(10,21)                1.1001         estimate D2E/DX2                !
 ! R22   R(10,22)                1.0942         estimate D2E/DX2                !
 ! R23   R(11,23)                0.977          estimate D2E/DX2                !
 ! R24   R(12,24)                1.0067         estimate D2E/DX2                !
 ! A1    A(2,1,13)             114.5555         estimate D2E/DX2                !
 ! A2    A(1,2,3)              113.7604         estimate D2E/DX2                !
 ! A3    A(1,2,9)              100.9148         estimate D2E/DX2                !
 ! A4    A(1,2,12)             123.8593         estimate D2E/DX2                !
 ! A5    A(3,2,9)              100.5002         estimate D2E/DX2                !
 ! A6    A(3,2,12)             102.9034         estimate D2E/DX2                !
 ! A7    A(9,2,12)             112.7853         estimate D2E/DX2                !
 ! A8    A(2,3,4)              120.8858         estimate D2E/DX2                !
 ! A9    A(2,3,8)              117.5893         estimate D2E/DX2                !
 ! A10   A(4,3,8)              121.5238         estimate D2E/DX2                !
 ! A11   A(3,4,5)              118.9956         estimate D2E/DX2                !
 ! A12   A(3,4,14)             119.038          estimate D2E/DX2                !
 ! A13   A(5,4,14)             121.9647         estimate D2E/DX2                !
 ! A14   A(4,5,6)              120.0572         estimate D2E/DX2                !
 ! A15   A(4,5,15)             119.8349         estimate D2E/DX2                !
 ! A16   A(6,5,15)             120.108          estimate D2E/DX2                !
 ! A17   A(5,6,7)              120.3912         estimate D2E/DX2                !
 ! A18   A(5,6,16)             119.8609         estimate D2E/DX2                !
 ! A19   A(7,6,16)             119.7475         estimate D2E/DX2                !
 ! A20   A(6,7,8)              119.771          estimate D2E/DX2                !
 ! A21   A(6,7,17)             120.1979         estimate D2E/DX2                !
 ! A22   A(8,7,17)             120.031          estimate D2E/DX2                !
 ! A23   A(3,8,7)              119.2574         estimate D2E/DX2                !
 ! A24   A(3,8,18)             118.9584         estimate D2E/DX2                !
 ! A25   A(7,8,18)             121.7816         estimate D2E/DX2                !
 ! A26   A(2,9,10)             109.4144         estimate D2E/DX2                !
 ! A27   A(2,9,19)             105.8246         estimate D2E/DX2                !
 ! A28   A(2,9,20)             106.999          estimate D2E/DX2                !
 ! A29   A(10,9,19)            112.5816         estimate D2E/DX2                !
 ! A30   A(10,9,20)            110.992          estimate D2E/DX2                !
 ! A31   A(19,9,20)            110.7394         estimate D2E/DX2                !
 ! A32   A(9,10,11)            112.0315         estimate D2E/DX2                !
 ! A33   A(9,10,21)            108.986          estimate D2E/DX2                !
 ! A34   A(9,10,22)            110.0152         estimate D2E/DX2                !
 ! A35   A(11,10,21)           110.7427         estimate D2E/DX2                !
 ! A36   A(11,10,22)           106.6311         estimate D2E/DX2                !
 ! A37   A(21,10,22)           108.3535         estimate D2E/DX2                !
 ! A38   A(10,11,23)           106.3492         estimate D2E/DX2                !
 ! A39   A(2,12,24)            114.101          estimate D2E/DX2                !
 ! D1    D(13,1,2,3)            80.9607         estimate D2E/DX2                !
 ! D2    D(13,1,2,9)          -172.3204         estimate D2E/DX2                !
 ! D3    D(13,1,2,12)          -45.1385         estimate D2E/DX2                !
 ! D4    D(1,2,3,4)           -147.3824         estimate D2E/DX2                !
 ! D5    D(1,2,3,8)             32.2458         estimate D2E/DX2                !
 ! D6    D(9,2,3,4)            105.6398         estimate D2E/DX2                !
 ! D7    D(9,2,3,8)            -74.732          estimate D2E/DX2                !
 ! D8    D(12,2,3,4)           -10.8821         estimate D2E/DX2                !
 ! D9    D(12,2,3,8)           168.7462         estimate D2E/DX2                !
 ! D10   D(1,2,9,10)           133.8471         estimate D2E/DX2                !
 ! D11   D(1,2,9,19)            12.3079         estimate D2E/DX2                !
 ! D12   D(1,2,9,20)          -105.8259         estimate D2E/DX2                !
 ! D13   D(3,2,9,10)          -109.2124         estimate D2E/DX2                !
 ! D14   D(3,2,9,19)           129.2484         estimate D2E/DX2                !
 ! D15   D(3,2,9,20)            11.1146         estimate D2E/DX2                !
 ! D16   D(12,2,9,10)           -0.2959         estimate D2E/DX2                !
 ! D17   D(12,2,9,19)         -121.8351         estimate D2E/DX2                !
 ! D18   D(12,2,9,20)          120.031          estimate D2E/DX2                !
 ! D19   D(1,2,12,24)          -26.2264         estimate D2E/DX2                !
 ! D20   D(3,2,12,24)         -156.8795         estimate D2E/DX2                !
 ! D21   D(9,2,12,24)           95.722          estimate D2E/DX2                !
 ! D22   D(2,3,4,5)           -179.726          estimate D2E/DX2                !
 ! D23   D(2,3,4,14)             0.7406         estimate D2E/DX2                !
 ! D24   D(8,3,4,5)              0.6605         estimate D2E/DX2                !
 ! D25   D(8,3,4,14)          -178.8729         estimate D2E/DX2                !
 ! D26   D(2,3,8,7)            179.7711         estimate D2E/DX2                !
 ! D27   D(2,3,8,18)            -0.8046         estimate D2E/DX2                !
 ! D28   D(4,3,8,7)             -0.6032         estimate D2E/DX2                !
 ! D29   D(4,3,8,18)           178.8211         estimate D2E/DX2                !
 ! D30   D(3,4,5,6)             -0.2077         estimate D2E/DX2                !
 ! D31   D(3,4,5,15)           179.7945         estimate D2E/DX2                !
 ! D32   D(14,4,5,6)           179.3114         estimate D2E/DX2                !
 ! D33   D(14,4,5,15)           -0.6864         estimate D2E/DX2                !
 ! D34   D(4,5,6,7)             -0.2913         estimate D2E/DX2                !
 ! D35   D(4,5,6,16)           179.9699         estimate D2E/DX2                !
 ! D36   D(15,5,6,7)           179.7064         estimate D2E/DX2                !
 ! D37   D(15,5,6,16)           -0.0324         estimate D2E/DX2                !
 ! D38   D(5,6,7,8)              0.3499         estimate D2E/DX2                !
 ! D39   D(5,6,7,17)          -179.5666         estimate D2E/DX2                !
 ! D40   D(16,6,7,8)          -179.911          estimate D2E/DX2                !
 ! D41   D(16,6,7,17)            0.1726         estimate D2E/DX2                !
 ! D42   D(6,7,8,3)              0.0908         estimate D2E/DX2                !
 ! D43   D(6,7,8,18)          -179.3167         estimate D2E/DX2                !
 ! D44   D(17,7,8,3)          -179.9926         estimate D2E/DX2                !
 ! D45   D(17,7,8,18)            0.6            estimate D2E/DX2                !
 ! D46   D(2,9,10,11)           56.373          estimate D2E/DX2                !
 ! D47   D(2,9,10,21)          -66.5342         estimate D2E/DX2                !
 ! D48   D(2,9,10,22)          174.7981         estimate D2E/DX2                !
 ! D49   D(19,9,10,11)         173.7417         estimate D2E/DX2                !
 ! D50   D(19,9,10,21)          50.8345         estimate D2E/DX2                !
 ! D51   D(19,9,10,22)         -67.8332         estimate D2E/DX2                !
 ! D52   D(20,9,10,11)         -61.4829         estimate D2E/DX2                !
 ! D53   D(20,9,10,21)         175.6099         estimate D2E/DX2                !
 ! D54   D(20,9,10,22)          56.9422         estimate D2E/DX2                !
 ! D55   D(9,10,11,23)         -63.582          estimate D2E/DX2                !
 ! D56   D(21,10,11,23)         58.3253         estimate D2E/DX2                !
 ! D57   D(22,10,11,23)        176.0051         estimate D2E/DX2                !
 --------------------------------------------------------------------------------
 Trust Radius=3.00D-01 FncErr=1.00D-07 GrdErr=1.00D-06 EigMax=2.50D+02 EigMin=1.00D-04
 Number of steps in this run=    130 maximum allowed number of steps=    144.
 GradGradGradGradGradGradGradGradGradGradGradGradGradGradGradGradGradGrad

                          Input orientation:                          
 ---------------------------------------------------------------------
 Center     Atomic      Atomic             Coordinates (Angstroms)
 Number     Number       Type             X           Y           Z
 ---------------------------------------------------------------------
      1          7           0       -1.100247    0.381186   -2.270949
      2         16           0       -0.897485   -0.193739   -0.861593
      3          6           0        0.785951    0.003773   -0.228997
      4          6           0        1.341640   -0.938426    0.612477
      5          6           0        2.631897   -0.745062    1.078281
      6          6           0        3.346818    0.378578    0.695634
      7          6           0        2.780955    1.312778   -0.158679
      8          6           0        1.491822    1.124773   -0.625788
      9          6           0       -1.790172    1.060452    0.159578
     10          6           0       -2.685701    0.348200    1.169052
     11          8           0       -1.964479   -0.537470    1.977365
     12          7           0       -1.247170   -1.648090   -0.465202
     13          1           0       -0.789048   -0.219866   -3.017020
     14          1           0        0.761995   -1.806195    0.881533
     15          1           0        3.078607   -1.471794    1.739796
     16          1           0        4.352244    0.526391    1.061040
     17          1           0        3.343373    2.183639   -0.460370
     18          1           0        1.023442    1.825889   -1.300770
     19          1           0       -2.353656    1.666914   -0.542411
     20          1           0       -1.033599    1.657173    0.663069
     21          1           0       -3.484719   -0.180424    0.628260
     22          1           0       -3.148435    1.078418    1.839885
     23          1           0       -1.606703   -1.224235    1.381708
     24          1           0       -1.971090   -2.064629   -1.027276
 ---------------------------------------------------------------------
                    Distance matrix (angstroms):
                    1          2          3          4          5
     1  N    0.000000
     2  S    1.535557   0.000000
     3  C    2.805307   1.809184   0.000000
     4  C    4.002291   2.782287   1.380075   0.000000
     5  C    5.139520   4.064924   2.382697   1.385325   0.000000
     6  C    5.345746   4.557039   2.748356   2.400448   1.385676
     7  C    4.515891   4.036657   2.387149   2.781048   2.405617
     8  C    3.158844   2.739136   1.382873   2.410942   2.774870
     9  C    2.616268   1.847343   2.811400   3.742843   4.864009
    10  C    3.787923   2.759517   3.758396   4.264348   5.429577
    11  O    4.431591   3.052263   3.567329   3.599181   4.688082
    12  N    2.720344   1.547431   2.630214   2.892569   4.271412
    13  H    1.007339   2.158311   3.209939   4.269591   5.361920
    14  H    4.265058   2.896960   2.123637   1.077684   2.158992
    15  H    6.081318   4.920362   3.362992   2.138314   1.079487
    16  H    6.391626   5.636911   3.828286   3.377963   2.139272
    17  H    5.125699   4.878297   3.368346   3.860728   3.383923
    18  H    2.745627   2.821654   2.127253   3.376862   3.854452
    19  H    2.492383   2.384185   3.566707   4.666559   5.770616
    20  H    3.200163   2.401874   2.615392   3.518729   4.402158
    21  H    3.795593   2.985569   4.359753   4.885546   6.159085
    22  H    4.645445   3.739404   4.573240   5.072964   6.108793
    23  H    4.021912   2.568523   3.134831   3.060413   4.276377
    24  H    2.878733   2.163402   3.537910   3.864105   5.230881
                    6          7          8          9         10
     6  C    0.000000
     7  C    1.386644   0.000000
     8  C    2.396658   1.383980   0.000000
     9  C    5.209700   4.589135   3.375266   0.000000
    10  C    6.051143   5.707680   4.612615   1.525881   0.000000
    11  O    5.540022   5.523155   4.635242   2.426538   1.399265
    12  N    5.153606   5.008642   3.900851   2.832207   2.953867
    13  H    5.589930   4.823280   3.567690   3.568227   4.630680
    14  H    3.389557   3.858268   3.375683   3.905437   4.075622
    15  H    2.141515   3.383290   3.854353   5.710899   6.071687
    16  H    1.079932   2.138941   3.374235   6.231142   7.041029
    17  H    2.143503   1.079690   2.139346   5.291424   6.509500
    18  H    3.387981   2.157894   1.080067   3.261125   4.694819
    19  H    5.973940   5.161094   3.884401   1.085403   2.185948
    20  H    4.563323   3.917231   2.884849   1.087190   2.167688
    21  H    6.854701   6.489037   5.295483   2.151959   1.100149
    22  H    6.632299   6.261537   5.254872   2.160702   1.094239
    23  H    5.251388   5.297242   4.375926   2.597509   1.918856
    24  H    6.100641   5.894342   4.724959   3.347758   3.340100
                   11         12         13         14         15
    11  O    0.000000
    12  N    2.777434   0.000000
    13  H    5.140661   2.959979   0.000000
    14  H    3.200651   2.423930   4.485632   0.000000
    15  H    5.134405   4.858544   6.257266   2.493017   0.000000
    16  H    6.470892   6.197679   6.604571   4.285215   2.464874
    17  H    6.443623   5.979570   5.421273   4.937914   4.274696
    18  H    5.025863   4.233483   3.227344   4.245331   4.933909
    19  H    3.370466   3.495643   3.483049   4.878256   6.676035
    20  H    2.722200   3.499053   4.138374   3.907276   5.278259
    21  H    2.063661   2.890731   4.533903   4.554323   6.780885
    22  H    2.007922   4.045007   5.553538   4.952867   6.729759
    23  H    0.976962   1.928728   4.585426   2.489896   4.705491
    24  H    3.370478   1.006723   2.959638   3.343665   5.788574
                   16         17         18         19         20
    16  H    0.000000
    17  H    2.465559   0.000000
    18  H    4.283429   2.493258   0.000000
    19  H    6.988629   5.721002   3.464848   0.000000
    20  H    5.517641   4.549414   2.848955   1.787688   0.000000
    21  H    7.880665   7.307308   5.298110   2.462201   3.063653
    22  H    7.561185   6.975403   5.275129   2.579406   2.488450
    23  H    6.219049   6.285706   4.839070   3.552311   3.024467
    24  H    7.145558   6.827348   4.917128   3.782309   4.193801
                   21         22         23         24
    21  H    0.000000
    22  H    1.779271   0.000000
    23  H    2.276877   2.808749   0.000000
    24  H    2.929522   4.414238   2.577255   0.000000
 Stoichiometry    C8H12N2OS
 Framework group  C1[X(C8H12N2OS)]
 Deg. of freedom    66
 Full point group                 C1      NOp   1
 Largest Abelian subgroup         C1      NOp   1
 Largest concise Abelian subgroup C1      NOp   1
                         Standard orientation:                         
 ---------------------------------------------------------------------
 Center     Atomic      Atomic             Coordinates (Angstroms)
 Number     Number       Type             X           Y           Z
 ---------------------------------------------------------------------
      1          7           0        1.134751    2.262834    0.347201
      2         16           0        0.934792    0.741520    0.406817
      3          6           0       -0.781903    0.222092    0.169549
      4          6           0       -1.277749   -0.897465    0.806209
      5          6           0       -2.596718   -1.262913    0.591985
      6          6           0       -3.398924   -0.506523   -0.247322
      7          6           0       -2.891737    0.622200   -0.873043
      8          6           0       -1.574337    0.990765   -0.663234
      9          6           0        1.668115    0.228734   -1.209340
     10          6           0        2.588465   -0.968696   -0.991561
     11          8           0        1.923864   -2.037005   -0.379216
     12          7           0        1.404010   -0.144185    1.585759
     13          1           0        0.908796    2.748508    1.200311
     14          1           0       -0.629858   -1.456907    1.460935
     15          1           0       -2.997639   -2.138085    1.080481
     16          1           0       -4.426547   -0.794582   -0.412444
     17          1           0       -3.521572    1.213236   -1.520896
     18          1           0       -1.148967    1.869443   -1.125328
     19          1           0        2.197949    1.099055   -1.583395
     20          1           0        0.841045   -0.030048   -1.865823
     21          1           0        3.452776   -0.650998   -0.389595
     22          1           0        2.955890   -1.338522   -1.953635
     23          1           0        1.654034   -1.722273    0.505426
     24          1           0        2.183912    0.233174    2.098441
 ---------------------------------------------------------------------
 Rotational constants (GHZ):           1.3739740           0.6122629           0.5351865
 Standard basis: def2SVP (5D, 7F)
 There are   244 symmetry adapted cartesian basis functions of A   symmetry.
 There are   232 symmetry adapted basis functions of A   symmetry.
   232 basis functions,   396 primitive gaussians,   244 cartesian basis functions
    49 alpha electrons       49 beta electrons
       nuclear repulsion energy       845.2947817462 Hartrees.
 NAtoms=   24 NActive=   24 NUniq=   24 SFac= 1.00D+00 NAtFMM=   60 NAOKFM=F Big=F
 Integral buffers will be    131072 words long.
 Raffenetti 2 integral format.
 Two-electron integral symmetry is turned on.
 Nuclear repulsion after empirical dispersion term =      845.2674756183 Hartrees.
 One-electron integrals computed using PRISM.
   1 Symmetry operations used in ECPInt.
 ECPInt:  NShTT=    6105 NPrTT=   22357 LenC2=    5943 LenP2D=   16400.
 LDataN:  DoStor=T MaxTD1= 4 Len=   56
 NBasis=   232 RedAO= T EigKep=  2.68D-04  NBF=   232
 NBsUse=   232 1.00D-06 EigRej= -1.00D+00 NBFU=   232
 ExpMin= 1.22D-01 ExpMax= 9.18D+03 ExpMxC= 1.38D+03 IAcc=3 IRadAn=         5 AccDes= 0.00D+00
 Harris functional with IExCor= 1009 and IRadAn=       5 diagonalized for initial guess.
 HarFok:  IExCor= 1009 AccDes= 0.00D+00 IRadAn=         5 IDoV= 1 UseB2=F ITyADJ=14
 ICtDFT=  3500011 ScaDFX=  1.000000  1.000000  1.000000  1.000000
 FoFCou: FMM=F IPFlag=           0 FMFlag=      100000 FMFlg1=           0
         NFxFlg=           0 DoJE=T BraDBF=F KetDBF=T FulRan=T
         wScrn=  0.000000 ICntrl=       500 IOpCl=  0 I1Cent=   200000004 NGrid=           0
         NMat0=    1 NMatS0=      1 NMatT0=    0 NMatD0=    1 NMtDS0=    0 NMtDT0=    0
 Petite list used in FoFCou.
 Requested convergence on RMS density matrix=1.00D-08 within 128 cycles.
 Requested convergence on MAX density matrix=1.00D-06.
 Requested convergence on             energy=1.00D-06.
 No special actions if energy rises.
 Integral accuracy reduced to 1.0D-05 until final iterations.
 Initial convergence to 1.0D-05 achieved.  Increase integral accuracy.
 SCF Done:  E(RPBE1PBE) =  -893.678818455     A.U. after   15 cycles
            NFock= 15  Conv=0.66D-08     -V/T= 2.0060

 **********************************************************************

            Population analysis using the SCF Density.

 **********************************************************************

 Orbital symmetries:
       Occupied  (A) (A) (A) (A) (A) (A) (A) (A) (A) (A) (A) (A)
                 (A) (A) (A) (A) (A) (A) (A) (A) (A) (A) (A) (A)
                 (A) (A) (A) (A) (A) (A) (A) (A) (A) (A) (A) (A)
                 (A) (A) (A) (A) (A) (A) (A) (A) (A) (A) (A) (A)
                 (A)
       Virtual   (A) (A) (A) (A) (A) (A) (A) (A) (A) (A) (A) (A)
                 (A) (A) (A) (A) (A) (A) (A) (A) (A) (A) (A) (A)
                 (A) (A) (A) (A) (A) (A) (A) (A) (A) (A) (A) (A)
                 (A) (A) (A) (A) (A) (A) (A) (A) (A) (A) (A) (A)
                 (A) (A) (A) (A) (A) (A) (A) (A) (A) (A) (A) (A)
                 (A) (A) (A) (A) (A) (A) (A) (A) (A) (A) (A) (A)
                 (A) (A) (A) (A) (A) (A) (A) (A) (A) (A) (A) (A)
                 (A) (A) (A) (A) (A) (A) (A) (A) (A) (A) (A) (A)
                 (A) (A) (A) (A) (A) (A) (A) (A) (A) (A) (A) (A)
                 (A) (A) (A) (A) (A) (A) (A) (A) (A) (A) (A) (A)
                 (A) (A) (A) (A) (A) (A) (A) (A) (A) (A) (A) (A)
                 (A) (A) (A) (A) (A) (A) (A) (A) (A) (A) (A) (A)
                 (A) (A) (A) (A) (A) (A) (A) (A) (A) (A) (A) (A)
                 (A) (A) (A) (A) (A) (A) (A) (A) (A) (A) (A) (A)
                 (A) (A) (A) (A) (A) (A) (A) (A) (A) (A) (A) (A)
                 (A) (A) (A)
 The electronic state is 1-A.
 Alpha  occ. eigenvalues --  -89.18946 -19.18187 -14.35966 -14.35469 -10.28079
 Alpha  occ. eigenvalues --  -10.26820 -10.25933 -10.25722 -10.25357 -10.25311
 Alpha  occ. eigenvalues --  -10.25285 -10.25109  -8.16439  -6.10578  -6.10458
 Alpha  occ. eigenvalues --   -6.10430  -1.02962  -1.00720  -0.89908  -0.86387
 Alpha  occ. eigenvalues --   -0.79815  -0.78340  -0.78172  -0.69159  -0.64334
 Alpha  occ. eigenvalues --   -0.63995  -0.60470  -0.56251  -0.54089  -0.52584
 Alpha  occ. eigenvalues --   -0.49468  -0.48974  -0.48130  -0.46674  -0.45434
 Alpha  occ. eigenvalues --   -0.45262  -0.42891  -0.41224  -0.39992  -0.38766
 Alpha  occ. eigenvalues --   -0.37558  -0.37143  -0.32445  -0.29334  -0.28649
 Alpha  occ. eigenvalues --   -0.27944  -0.27073  -0.26551  -0.25296
 Alpha virt. eigenvalues --   -0.03473  -0.01950   0.05553   0.06085   0.07031
 Alpha virt. eigenvalues --    0.07620   0.09057   0.10643   0.11097   0.11693
 Alpha virt. eigenvalues --    0.12926   0.13435   0.14625   0.15233   0.16031
 Alpha virt. eigenvalues --    0.16417   0.17070   0.19156   0.20088   0.25152
 Alpha virt. eigenvalues --    0.25971   0.28761   0.28937   0.31011   0.33436
 Alpha virt. eigenvalues --    0.35656   0.39556   0.41011   0.41443   0.42435
 Alpha virt. eigenvalues --    0.43635   0.45189   0.47322   0.48139   0.48995
 Alpha virt. eigenvalues --    0.49233   0.49654   0.51075   0.51651   0.54879
 Alpha virt. eigenvalues --    0.56018   0.57729   0.58233   0.58587   0.59262
 Alpha virt. eigenvalues --    0.61810   0.63640   0.65054   0.65651   0.66150
 Alpha virt. eigenvalues --    0.66352   0.66964   0.67654   0.68822   0.69637
 Alpha virt. eigenvalues --    0.70579   0.70730   0.72460   0.73443   0.74345
 Alpha virt. eigenvalues --    0.75375   0.76135   0.76667   0.77563   0.78186
 Alpha virt. eigenvalues --    0.79644   0.80877   0.82392   0.84833   0.86660
 Alpha virt. eigenvalues --    0.87696   0.91285   0.92157   0.95550   0.98021
 Alpha virt. eigenvalues --    1.00144   1.03371   1.03845   1.06101   1.11267
 Alpha virt. eigenvalues --    1.11697   1.13584   1.13759   1.17591   1.19189
 Alpha virt. eigenvalues --    1.21022   1.21303   1.23429   1.24313   1.25144
 Alpha virt. eigenvalues --    1.27575   1.28829   1.29809   1.30517   1.36073
 Alpha virt. eigenvalues --    1.37664   1.38916   1.42700   1.45743   1.47318
 Alpha virt. eigenvalues --    1.51527   1.53065   1.56668   1.62758   1.63658
 Alpha virt. eigenvalues --    1.66790   1.67691   1.69472   1.71019   1.71909
 Alpha virt. eigenvalues --    1.73469   1.74666   1.75526   1.76633   1.77027
 Alpha virt. eigenvalues --    1.78197   1.80369   1.81145   1.83694   1.84038
 Alpha virt. eigenvalues --    1.85028   1.86724   1.90486   1.91246   1.94153
 Alpha virt. eigenvalues --    1.95448   1.96228   1.97895   1.98970   2.00173
 Alpha virt. eigenvalues --    2.04409   2.08346   2.09554   2.11853   2.14080
 Alpha virt. eigenvalues --    2.14613   2.16125   2.17501   2.19716   2.23669
 Alpha virt. eigenvalues --    2.28152   2.30265   2.31054   2.31827   2.33016
 Alpha virt. eigenvalues --    2.34486   2.36089   2.36221   2.38780   2.40571
 Alpha virt. eigenvalues --    2.43419   2.49186   2.53678   2.55063   2.56292
 Alpha virt. eigenvalues --    2.57108   2.59128   2.60049   2.63508   2.64742
 Alpha virt. eigenvalues --    2.66216   2.75756   2.75954   2.76773   2.81542
 Alpha virt. eigenvalues --    2.84449   2.86078   2.88160   2.90570   2.92418
 Alpha virt. eigenvalues --    2.96110   2.96736   3.04519   3.06528   3.11421
 Alpha virt. eigenvalues --    3.15994   3.21318   3.23779   3.27784   3.32147
 Alpha virt. eigenvalues --    3.38228   3.65843   3.83573
          Condensed to atoms (all electrons):
               1          2          3          4          5          6
     1  N    6.844492   0.372709  -0.061468   0.001692  -0.000002  -0.000032
     2  S    0.372709  14.744143   0.103947  -0.032077   0.005058   0.000044
     3  C   -0.061468   0.103947   5.887503   0.242946   0.123960  -0.190703
     4  C    0.001692  -0.032077   0.242946   5.096095   0.232712   0.105464
     5  C   -0.000002   0.005058   0.123960   0.232712   5.114387   0.255635
     6  C   -0.000032   0.000044  -0.190703   0.105464   0.255635   5.127011
     7  C    0.001226   0.001936   0.107849  -0.141281   0.092938   0.258867
     8  C    0.008911  -0.063393   0.189823   0.055104  -0.151091   0.103008
     9  C   -0.090153   0.233531  -0.117690   0.001563   0.000022  -0.000091
    10  C    0.002575  -0.040554   0.000195   0.000503  -0.000050  -0.000000
    11  O   -0.000002  -0.002624  -0.003755   0.005232  -0.000178   0.000007
    12  N   -0.035041   0.351730  -0.091288  -0.001597   0.001485  -0.000044
    13  H    0.329066  -0.016142  -0.003843   0.000359  -0.000020  -0.000006
    14  H    0.000093  -0.014712  -0.055884   0.448358  -0.064865   0.012878
    15  H    0.000001  -0.000132   0.016834  -0.070420   0.455221  -0.072795
    16  H   -0.000000   0.000022  -0.001512   0.014090  -0.067000   0.449280
    17  H   -0.000008  -0.000172   0.016760  -0.001739   0.014106  -0.071413
    18  H    0.021447  -0.008469  -0.081946   0.013435  -0.002124   0.013579
    19  H    0.016670  -0.007694   0.005239  -0.000071  -0.000005   0.000006
    20  H    0.003412  -0.025691   0.011493   0.001036  -0.000226   0.000156
    21  H    0.001800  -0.008160   0.001337   0.000203  -0.000004   0.000001
    22  H   -0.000253   0.005754  -0.000526  -0.000069   0.000002  -0.000000
    23  H    0.000531   0.004908  -0.003205   0.000117   0.000568  -0.000018
    24  H   -0.000055  -0.016768   0.010697  -0.000400  -0.000041   0.000008
               7          8          9         10         11         12
     1  N    0.001226   0.008911  -0.090153   0.002575  -0.000002  -0.035041
     2  S    0.001936  -0.063393   0.233531  -0.040554  -0.002624   0.351730
     3  C    0.107849   0.189823  -0.117690   0.000195  -0.003755  -0.091288
     4  C   -0.141281   0.055104   0.001563   0.000503   0.005232  -0.001597
     5  C    0.092938  -0.151091   0.000022  -0.000050  -0.000178   0.001485
     6  C    0.258867   0.103008  -0.000091  -0.000000   0.000007  -0.000044
     7  C    5.073186   0.267361  -0.000851   0.000068  -0.000001  -0.000032
     8  C    0.267361   5.178809  -0.005362   0.000613  -0.000185   0.006948
     9  C   -0.000851  -0.005362   5.295531   0.305046  -0.048518  -0.083901
    10  C    0.000068   0.000613   0.305046   4.502440   0.325024   0.030874
    11  O   -0.000001  -0.000185  -0.048518   0.325024   7.818732  -0.028974
    12  N   -0.000032   0.006948  -0.083901   0.030874  -0.028974   6.886647
    13  H   -0.000112  -0.001490   0.009682  -0.000480   0.000014  -0.002337
    14  H   -0.001888   0.013688   0.001642  -0.000511   0.000822   0.021712
    15  H    0.014307  -0.001853   0.000006   0.000001  -0.000005  -0.000010
    16  H   -0.068795   0.014637   0.000000  -0.000000   0.000000   0.000000
    17  H    0.457040  -0.073653   0.000025  -0.000000   0.000000   0.000001
    18  H   -0.049213   0.444207  -0.000040   0.000334  -0.000001   0.000631
    19  H    0.000020   0.000716   0.318351   0.000614   0.004230   0.002325
    20  H   -0.000095  -0.001586   0.342399  -0.006206   0.004733   0.002778
    21  H   -0.000001  -0.000092  -0.060980   0.383092  -0.030840   0.007730
    22  H    0.000000  -0.000014  -0.016654   0.382701  -0.027669   0.000121
    23  H   -0.000025  -0.000203  -0.001787  -0.044165   0.345113   0.048047
    24  H   -0.000010  -0.000287  -0.002255  -0.000531   0.000623   0.336749
              13         14         15         16         17         18
     1  N    0.329066   0.000093   0.000001  -0.000000  -0.000008   0.021447
     2  S   -0.016142  -0.014712  -0.000132   0.000022  -0.000172  -0.008469
     3  C   -0.003843  -0.055884   0.016834  -0.001512   0.016760  -0.081946
     4  C    0.000359   0.448358  -0.070420   0.014090  -0.001739   0.013435
     5  C   -0.000020  -0.064865   0.455221  -0.067000   0.014106  -0.002124
     6  C   -0.000006   0.012878  -0.072795   0.449280  -0.071413   0.013579
     7  C   -0.000112  -0.001888   0.014307  -0.068795   0.457040  -0.049213
     8  C   -0.001490   0.013688  -0.001853   0.014637  -0.073653   0.444207
     9  C    0.009682   0.001642   0.000006   0.000000   0.000025  -0.000040
    10  C   -0.000480  -0.000511   0.000001  -0.000000  -0.000000   0.000334
    11  O    0.000014   0.000822  -0.000005   0.000000   0.000000  -0.000001
    12  N   -0.002337   0.021712  -0.000010   0.000000   0.000001   0.000631
    13  H    0.558912   0.000034   0.000000  -0.000000   0.000004  -0.000701
    14  H    0.000034   0.608897  -0.011063  -0.000211   0.000030  -0.000255
    15  H    0.000000  -0.011063   0.657633  -0.012123  -0.000259   0.000035
    16  H   -0.000000  -0.000211  -0.012123   0.660078  -0.012127  -0.000232
    17  H    0.000004   0.000030  -0.000259  -0.012127   0.658807  -0.011390
    18  H   -0.000701  -0.000255   0.000035  -0.000232  -0.011390   0.634337
    19  H   -0.000745  -0.000025  -0.000000   0.000000  -0.000003   0.000087
    20  H   -0.000480  -0.000009  -0.000005  -0.000002   0.000003   0.000589
    21  H   -0.000145   0.000036  -0.000000   0.000000  -0.000000  -0.000005
    22  H    0.000017  -0.000005   0.000000  -0.000000   0.000000  -0.000006
    23  H   -0.000006   0.002188   0.000003   0.000000   0.000000  -0.000059
    24  H    0.001519  -0.000627  -0.000002   0.000000  -0.000000  -0.000046
              19         20         21         22         23         24
     1  N    0.016670   0.003412   0.001800  -0.000253   0.000531  -0.000055
     2  S   -0.007694  -0.025691  -0.008160   0.005754   0.004908  -0.016768
     3  C    0.005239   0.011493   0.001337  -0.000526  -0.003205   0.010697
     4  C   -0.000071   0.001036   0.000203  -0.000069   0.000117  -0.000400
     5  C   -0.000005  -0.000226  -0.000004   0.000002   0.000568  -0.000041
     6  C    0.000006   0.000156   0.000001  -0.000000  -0.000018   0.000008
     7  C    0.000020  -0.000095  -0.000001   0.000000  -0.000025  -0.000010
     8  C    0.000716  -0.001586  -0.000092  -0.000014  -0.000203  -0.000287
     9  C    0.318351   0.342399  -0.060980  -0.016654  -0.001787  -0.002255
    10  C    0.000614  -0.006206   0.383092   0.382701  -0.044165  -0.000531
    11  O    0.004230   0.004733  -0.030840  -0.027669   0.345113   0.000623
    12  N    0.002325   0.002778   0.007730   0.000121   0.048047   0.336749
    13  H   -0.000745  -0.000480  -0.000145   0.000017  -0.000006   0.001519
    14  H   -0.000025  -0.000009   0.000036  -0.000005   0.002188  -0.000627
    15  H   -0.000000  -0.000005  -0.000000   0.000000   0.000003  -0.000002
    16  H    0.000000  -0.000002   0.000000  -0.000000   0.000000   0.000000
    17  H   -0.000003   0.000003  -0.000000   0.000000   0.000000  -0.000000
    18  H    0.000087   0.000589  -0.000005  -0.000006  -0.000059  -0.000046
    19  H    0.583503  -0.005366   0.000790  -0.000585  -0.000567   0.000383
    20  H   -0.005366   0.587243   0.010708  -0.012583  -0.001100  -0.000062
    21  H    0.000790   0.010708   0.717228  -0.037441  -0.009531   0.001322
    22  H   -0.000585  -0.012583  -0.037441   0.652150   0.007875   0.000017
    23  H   -0.000567  -0.001100  -0.009531   0.007875   0.474212  -0.001627
    24  H    0.000383  -0.000062   0.001322   0.000017  -0.001627   0.537432
 Mulliken charges:
               1
     1  N   -0.417610
     2  S    0.412806
     3  C   -0.106764
     4  C    0.028745
     5  C   -0.010488
     6  C    0.009160
     7  C   -0.012493
     8  C    0.015386
     9  C   -0.079517
    10  C    0.158417
    11  O   -0.361777
    12  N   -0.454554
    13  H    0.126899
    14  H    0.039676
    15  H    0.024628
    16  H    0.023894
    17  H    0.023988
    18  H    0.025805
    19  H    0.082129
    20  H    0.088862
    21  H    0.022950
    22  H    0.047167
    23  H    0.178729
    24  H    0.133962
 Sum of Mulliken charges =  -0.00000
 Mulliken charges with hydrogens summed into heavy atoms:
               1
     1  N   -0.290711
     2  S    0.412806
     3  C   -0.106764
     4  C    0.068421
     5  C    0.014140
     6  C    0.033054
     7  C    0.011495
     8  C    0.041191
     9  C    0.091474
    10  C    0.228534
    11  O   -0.183048
    12  N   -0.320592
 Electronic spatial extent (au):  <R**2>=           2304.5245
 Charge=             -0.0000 electrons
 Dipole moment (field-independent basis, Debye):
    X=             -1.5907    Y=              1.0567    Z=             -0.2861  Tot=              1.9310
 Quadrupole moment (field-independent basis, Debye-Ang):
   XX=            -69.5029   YY=            -86.2382   ZZ=            -75.1743
   XY=              3.4056   XZ=              1.7735   YZ=             -0.4687
 Traceless Quadrupole moment (field-independent basis, Debye-Ang):
   XX=              7.4689   YY=             -9.2664   ZZ=              1.7975
   XY=              3.4056   XZ=              1.7735   YZ=             -0.4687
 Octapole moment (field-independent basis, Debye-Ang**2):
  XXX=             -0.3310  YYY=              1.8616  ZZZ=             -1.2689  XYY=            -19.2280
  XXY=             -4.0727  XXZ=             -5.4212  XZZ=             16.7196  YZZ=              5.7807
  YYZ=             15.5242  XYZ=             10.4771
 Hexadecapole moment (field-independent basis, Debye-Ang**3):
 XXXX=          -1780.7520 YYYY=           -740.0226 ZZZZ=           -417.1373 XXXY=             22.7564
 XXXZ=             40.1675 YYYX=              8.0293 YYYZ=              9.2367 ZZZX=              7.4532
 ZZZY=             16.6588 XXYY=           -461.1050 XXZZ=           -363.6522 YYZZ=           -161.7228
 XXYZ=            -12.8415 YYXZ=              9.3323 ZZXY=             -1.6938
 N-N= 8.452674756183D+02 E-N=-3.788301322537D+03  KE= 8.883220303381D+02
   1 Symmetry operations used in ECPInt.
 ECPInt:  NShTT=    6105 NPrTT=   22357 LenC2=    5943 LenP2D=   16400.
 LDataN:  DoStor=T MaxTD1= 5 Len=  102
 Calling FoFJK, ICntrl=      2127 FMM=F ISym2X=0 I1Cent= 0 IOpClX= 0 NMat=1 NMatS=1 NMatT=0.
 ***** Axes restored to original set *****
 -------------------------------------------------------------------
 Center     Atomic                   Forces (Hartrees/Bohr)
 Number     Number              X              Y              Z
 -------------------------------------------------------------------
      1        7          -0.008857605    0.016202930    0.001381184
      2       16          -0.004769121    0.008296702   -0.004963680
      3        6          -0.008664532   -0.004302593   -0.001185281
      4        6           0.000413864   -0.002249266    0.001685335
      5        6          -0.000325210    0.000918611   -0.000624757
      6        6           0.000826967    0.000061720    0.000141251
      7        6          -0.000855634   -0.000673106    0.000439680
      8        6          -0.002077642    0.001708448   -0.002226852
      9        6          -0.002663151   -0.011505760    0.005129941
     10        6           0.013713577   -0.012231500    0.001524503
     11        8           0.001843405    0.003579138    0.003645100
     12        7           0.013317812   -0.006342128    0.013869329
     13        1           0.008784142   -0.010016386   -0.004015967
     14        1          -0.004626487   -0.008110655    0.002502277
     15        1           0.003687306   -0.006379739    0.005622326
     16        1           0.008538080    0.001202836    0.003148635
     17        1           0.004547462    0.007336991   -0.002797137
     18        1          -0.003273714    0.006655736   -0.006633987
     19        1          -0.002813852    0.004201258   -0.007613195
     20        1           0.005739585    0.004044959    0.003276841
     21        1          -0.005609879    0.000152617   -0.003161487
     22        1          -0.003465468    0.005499613   -0.000796342
     23        1          -0.004256602    0.000051389   -0.001538156
     24        1          -0.009153304    0.001898185   -0.006809562
 -------------------------------------------------------------------
 Cartesian Forces:  Max     0.016202930 RMS     0.005943968

 GradGradGradGradGradGradGradGradGradGradGradGradGradGradGradGradGradGrad
 Berny optimization.
 FormGI is forming the generalized inverse of G from B-inverse, IUseBI=4.
 Internal  Forces:  Max     0.012706964 RMS     0.004197625
 Search for a local minimum.
 Step number   1 out of a maximum of  130
 All quantities printed in internal units (Hartrees-Bohrs-Radians)
 Mixed Optimization -- RFO/linear search
 Second derivative matrix not updated -- first step.
 ITU=  0
     Eigenvalues ---    0.00230   0.00249   0.00424   0.01518   0.01701
     Eigenvalues ---    0.02271   0.02276   0.02281   0.02284   0.02295
     Eigenvalues ---    0.02308   0.02315   0.02332   0.03314   0.03471
     Eigenvalues ---    0.03982   0.04905   0.04978   0.05897   0.06864
     Eigenvalues ---    0.07721   0.08288   0.09035   0.11656   0.11677
     Eigenvalues ---    0.13961   0.15970   0.15999   0.15999   0.16000
     Eigenvalues ---    0.16000   0.16000   0.16000   0.16000   0.16000
     Eigenvalues ---    0.19078   0.21992   0.22000   0.22000   0.22068
     Eigenvalues ---    0.22716   0.23498   0.24999   0.25406   0.29807
     Eigenvalues ---    0.33666   0.34327   0.35139   0.35349   0.35986
     Eigenvalues ---    0.36003   0.36032   0.36056   0.36276   0.43625
     Eigenvalues ---    0.43761   0.45743   0.46421   0.46526   0.48030
     Eigenvalues ---    0.48272   0.48373   0.48829   0.51979   0.62893
     Eigenvalues ---    0.66011
 RFO step:  Lambda=-8.42831387D-03 EMin= 2.30000000D-03
 Linear search not attempted -- first point.
 Iteration  1 RMS(Cart)=  0.05001655 RMS(Int)=  0.00128701
 Iteration  2 RMS(Cart)=  0.00161141 RMS(Int)=  0.00017970
 Iteration  3 RMS(Cart)=  0.00000238 RMS(Int)=  0.00017969
 Iteration  4 RMS(Cart)=  0.00000000 RMS(Int)=  0.00017969
 Variable       Old X    -DE/DX   Delta X   Delta X   Delta X     New X
                                 (Linear)    (Quad)   (Total)
    R1        2.90178   0.00474   0.00000   0.00710   0.00710   2.90888
    R2        1.90359   0.01166   0.00000   0.02468   0.02468   1.92827
    R3        3.41886  -0.00208   0.00000  -0.00791  -0.00791   3.41095
    R4        3.49097  -0.00516   0.00000  -0.02191  -0.02191   3.46906
    R5        2.92422   0.00504   0.00000   0.00791   0.00791   2.93213
    R6        2.60796   0.01135   0.00000   0.02297   0.02297   2.63094
    R7        2.61325   0.00993   0.00000   0.02025   0.02026   2.63351
    R8        2.61788   0.00898   0.00000   0.01840   0.01840   2.63628
    R9        2.03653   0.00964   0.00000   0.02598   0.02598   2.06251
   R10        2.61855   0.00949   0.00000   0.01923   0.01923   2.63778
   R11        2.03993   0.00927   0.00000   0.02511   0.02511   2.06505
   R12        2.62038   0.00962   0.00000   0.01951   0.01950   2.63988
   R13        2.04077   0.00918   0.00000   0.02491   0.02491   2.06569
   R14        2.61534   0.00866   0.00000   0.01752   0.01752   2.63286
   R15        2.04032   0.00907   0.00000   0.02459   0.02459   2.06491
   R16        2.04103   0.00989   0.00000   0.02684   0.02684   2.06787
   R17        2.88350  -0.00015   0.00000  -0.00048  -0.00048   2.88302
   R18        2.05111   0.00873   0.00000   0.02413   0.02413   2.07524
   R19        2.05449   0.00773   0.00000   0.02149   0.02149   2.07598
   R20        2.64423  -0.00233   0.00000  -0.00499  -0.00499   2.63924
   R21        2.07898   0.00556   0.00000   0.01610   0.01610   2.09508
   R22        2.06781   0.00465   0.00000   0.01321   0.01321   2.08102
   R23        1.84619  -0.00066   0.00000  -0.00124  -0.00124   1.84495
   R24        1.90243   0.00960   0.00000   0.02026   0.02026   1.92269
    A1        1.99937  -0.01271   0.00000  -0.07544  -0.07544   1.92393
    A2        1.98549  -0.00168   0.00000  -0.01338  -0.01330   1.97219
    A3        1.76130   0.00044   0.00000   0.01129   0.01120   1.77249
    A4        2.16175   0.00312   0.00000   0.02429   0.02415   2.18590
    A5        1.75406   0.00189   0.00000   0.00418   0.00416   1.75822
    A6        1.79600  -0.00227   0.00000  -0.02213  -0.02210   1.77390
    A7        1.96848  -0.00162   0.00000  -0.00715  -0.00737   1.96111
    A8        2.10986   0.00299   0.00000   0.01108   0.01105   2.12090
    A9        2.05232  -0.00448   0.00000  -0.01781  -0.01784   2.03448
   A10        2.12099   0.00149   0.00000   0.00664   0.00662   2.12762
   A11        2.07687  -0.00155   0.00000  -0.00597  -0.00597   2.07090
   A12        2.07760   0.00138   0.00000   0.00657   0.00656   2.08417
   A13        2.12869   0.00017   0.00000  -0.00062  -0.00063   2.12805
   A14        2.09539   0.00057   0.00000   0.00245   0.00244   2.09784
   A15        2.09151  -0.00049   0.00000  -0.00245  -0.00245   2.08906
   A16        2.09628  -0.00008   0.00000   0.00000   0.00000   2.09628
   A17        2.10122   0.00003   0.00000  -0.00058  -0.00058   2.10064
   A18        2.09197  -0.00009   0.00000  -0.00013  -0.00013   2.09183
   A19        2.08999   0.00005   0.00000   0.00070   0.00070   2.09069
   A20        2.09040   0.00085   0.00000   0.00319   0.00318   2.09358
   A21        2.09785  -0.00013   0.00000   0.00015   0.00014   2.09799
   A22        2.09494  -0.00072   0.00000  -0.00334  -0.00335   2.09159
   A23        2.08143  -0.00140   0.00000  -0.00581  -0.00581   2.07563
   A24        2.07622   0.00169   0.00000   0.00871   0.00870   2.08492
   A25        2.12549  -0.00028   0.00000  -0.00298  -0.00299   2.12250
   A26        1.90964   0.00559   0.00000   0.02547   0.02545   1.93509
   A27        1.84699  -0.00399   0.00000  -0.03061  -0.03069   1.81630
   A28        1.86749  -0.00136   0.00000  -0.00248  -0.00270   1.86478
   A29        1.96492   0.00017   0.00000   0.00635   0.00660   1.97152
   A30        1.93718  -0.00131   0.00000   0.00210   0.00202   1.93919
   A31        1.93277   0.00083   0.00000  -0.00212  -0.00231   1.93045
   A32        1.95532   0.00543   0.00000   0.03076   0.03050   1.98581
   A33        1.90216  -0.00062   0.00000   0.00169   0.00067   1.90283
   A34        1.92013  -0.00595   0.00000  -0.04864  -0.04881   1.87132
   A35        1.93282   0.00005   0.00000   0.02498   0.02439   1.95721
   A36        1.86106   0.00107   0.00000   0.01161   0.01214   1.87320
   A37        1.89113  -0.00020   0.00000  -0.02290  -0.02360   1.86753
   A38        1.85614  -0.00564   0.00000  -0.03347  -0.03347   1.82267
   A39        1.99144  -0.01121   0.00000  -0.06657  -0.06657   1.92487
    D1        1.41303  -0.00346   0.00000  -0.05875  -0.05880   1.35423
    D2       -3.00756  -0.00163   0.00000  -0.05260  -0.05283  -3.06039
    D3       -0.78782  -0.00115   0.00000  -0.03334  -0.03306  -0.82088
    D4       -2.57231  -0.00008   0.00000  -0.01425  -0.01443  -2.58674
    D5        0.56280  -0.00042   0.00000  -0.02853  -0.02867   0.53413
    D6        1.84376  -0.00101   0.00000  -0.02490  -0.02491   1.81885
    D7       -1.30432  -0.00134   0.00000  -0.03918  -0.03914  -1.34346
    D8       -0.18993   0.00080   0.00000  -0.01156  -0.01143  -0.20136
    D9        2.94518   0.00047   0.00000  -0.02583  -0.02567   2.91951
   D10        2.33607   0.00134   0.00000  -0.00275  -0.00291   2.33316
   D11        0.21481   0.00041   0.00000  -0.00633  -0.00626   0.20856
   D12       -1.84701   0.00211   0.00000   0.01257   0.01245  -1.83456
   D13       -1.90612   0.00028   0.00000  -0.01223  -0.01230  -1.91842
   D14        2.25581  -0.00065   0.00000  -0.01581  -0.01565   2.24016
   D15        0.19399   0.00104   0.00000   0.00310   0.00306   0.19705
   D16       -0.00516  -0.00189   0.00000  -0.03769  -0.03773  -0.04290
   D17       -2.12642  -0.00282   0.00000  -0.04127  -0.04107  -2.16750
   D18        2.09494  -0.00113   0.00000  -0.02236  -0.02237   2.07257
   D19       -0.45774  -0.00286   0.00000  -0.05464  -0.05481  -0.51255
   D20       -2.73806  -0.00064   0.00000  -0.03211  -0.03191  -2.76997
   D21        1.67066  -0.00105   0.00000  -0.02291  -0.02294   1.64773
   D22       -3.13681  -0.00019   0.00000  -0.00738  -0.00751   3.13886
   D23        0.01293  -0.00006   0.00000  -0.00386  -0.00396   0.00897
   D24        0.01153   0.00018   0.00000   0.00755   0.00758   0.01910
   D25       -3.12192   0.00031   0.00000   0.01107   0.01113  -3.11079
   D26        3.13760   0.00013   0.00000   0.00632   0.00624  -3.13935
   D27       -0.01404  -0.00012   0.00000  -0.00126  -0.00135  -0.01540
   D28       -0.01053  -0.00020   0.00000  -0.00803  -0.00804  -0.01856
   D29        3.12102  -0.00045   0.00000  -0.01562  -0.01563   3.10539
   D30       -0.00363  -0.00006   0.00000  -0.00275  -0.00276  -0.00639
   D31        3.13801   0.00004   0.00000   0.00053   0.00054   3.13854
   D32        3.12957  -0.00019   0.00000  -0.00635  -0.00637   3.12320
   D33       -0.01198  -0.00009   0.00000  -0.00306  -0.00307  -0.01505
   D34       -0.00508  -0.00003   0.00000  -0.00135  -0.00133  -0.00641
   D35        3.14107   0.00006   0.00000   0.00195   0.00196  -3.14016
   D36        3.13647  -0.00012   0.00000  -0.00465  -0.00464   3.13183
   D37       -0.00057  -0.00004   0.00000  -0.00134  -0.00135  -0.00192
   D38        0.00611   0.00002   0.00000   0.00089   0.00089   0.00700
   D39       -3.13403   0.00019   0.00000   0.00692   0.00690  -3.12713
   D40       -3.14004  -0.00007   0.00000  -0.00241  -0.00240   3.14075
   D41        0.00301   0.00011   0.00000   0.00362   0.00361   0.00662
   D42        0.00159   0.00009   0.00000   0.00368   0.00365   0.00523
   D43       -3.12967   0.00034   0.00000   0.01141   0.01134  -3.11832
   D44       -3.14146  -0.00009   0.00000  -0.00234  -0.00234   3.13939
   D45        0.01047   0.00016   0.00000   0.00540   0.00536   0.01583
   D46        0.98389   0.00180   0.00000   0.04762   0.04785   1.03174
   D47       -1.16124  -0.00147   0.00000  -0.00597  -0.00584  -1.16708
   D48        3.05080   0.00266   0.00000   0.04965   0.04928   3.10008
   D49        3.03236   0.00058   0.00000   0.03000   0.03027   3.06264
   D50        0.88723  -0.00269   0.00000  -0.02359  -0.02341   0.86382
   D51       -1.18391   0.00144   0.00000   0.03203   0.03170  -1.15221
   D52       -1.07308   0.00079   0.00000   0.03362   0.03381  -1.03927
   D53        3.06497  -0.00248   0.00000  -0.01998  -0.01988   3.04509
   D54        0.99383   0.00165   0.00000   0.03564   0.03524   1.02907
   D55       -1.10971  -0.00409   0.00000  -0.10126  -0.10153  -1.21124
   D56        1.01797  -0.00106   0.00000  -0.05981  -0.05939   0.95858
   D57        3.07187  -0.00065   0.00000  -0.06703  -0.06719   3.00468
         Item               Value     Threshold  Converged?
 Maximum Force            0.012707     0.000450     NO 
 RMS     Force            0.004198     0.000300     NO 
 Maximum Displacement     0.274858     0.001800     NO 
 RMS     Displacement     0.050264     0.001200     NO 
 Predicted change in Energy=-4.540991D-03
 GradGradGradGradGradGradGradGradGradGradGradGradGradGradGradGradGradGrad

                          Input orientation:                          
 ---------------------------------------------------------------------
 Center     Atomic      Atomic             Coordinates (Angstroms)
 Number     Number       Type             X           Y           Z
 ---------------------------------------------------------------------
      1          7           0       -1.078407    0.424158   -2.264933
      2         16           0       -0.895881   -0.181776   -0.861718
      3          6           0        0.783593    0.003105   -0.226730
      4          6           0        1.349843   -0.945372    0.620654
      5          6           0        2.653964   -0.744218    1.073424
      6          6           0        3.370094    0.384817    0.672376
      7          6           0        2.791182    1.318287   -0.190759
      8          6           0        1.489180    1.128301   -0.648843
      9          6           0       -1.792158    1.032951    0.182840
     10          6           0       -2.710529    0.324538    1.173946
     11          8           0       -2.042533   -0.547468    2.036468
     12          7           0       -1.218630   -1.648244   -0.470791
     13          1           0       -0.687133   -0.198889   -2.971990
     14          1           0        0.770326   -1.826196    0.902672
     15          1           0        3.114058   -1.476472    1.741464
     16          1           0        4.392085    0.536155    1.029491
     17          1           0        3.358832    2.194290   -0.513858
     18          1           0        1.016917    1.830782   -1.342325
     19          1           0       -2.338862    1.653912   -0.539311
     20          1           0       -1.030011    1.627387    0.704963
     21          1           0       -3.523419   -0.181616    0.615229
     22          1           0       -3.182258    1.102345    1.794588
     23          1           0       -1.752151   -1.282147    1.462798
     24          1           0       -1.971864   -2.010401   -1.051031
 ---------------------------------------------------------------------
                    Distance matrix (angstroms):
                    1          2          3          4          5
     1  N    0.000000
     2  S    1.539312   0.000000
     3  C    2.792597   1.805000   0.000000
     4  C    4.012309   2.797103   1.392232   0.000000
     5  C    5.142016   4.081975   2.397328   1.395061   0.000000
     6  C    5.330900   4.568699   2.764793   2.419399   1.395852
     7  C    4.480556   4.036683   2.400294   2.803569   2.422997
     8  C    3.114493   2.729493   1.393592   2.435397   2.798080
     9  C    2.621385   1.835749   2.804072   3.738665   4.870264
    10  C    3.807838   2.773667   3.778107   4.290154   5.470843
    11  O    4.513939   3.138156   3.662265   3.697441   4.798254
    12  N    2.744714   1.551618   2.606802   2.877905   4.266011
    13  H    1.020399   2.120640   3.120943   4.196856   5.275006
    14  H    4.302979   2.931457   2.149900   1.091433   2.178973
    15  H    6.102489   4.953020   3.390281   2.156557   1.092776
    16  H    6.386866   5.661685   3.857907   3.408417   2.159248
    17  H    5.088096   4.885619   3.393463   3.896233   3.413376
    18  H    2.687039   2.817830   2.153925   3.416308   3.891837
    19  H    2.465525   2.357094   3.545785   4.659221   5.768904
    20  H    3.204744   2.396988   2.606818   3.505695   4.396810
    21  H    3.826274   3.014188   4.392421   4.932751   6.219849
    22  H    4.622318   3.732619   4.584978   5.109912   6.163713
    23  H    4.154683   2.710607   3.307020   3.231872   4.455876
    24  H    2.863372   2.130129   3.510872   3.868146   5.245456
                    6          7          8          9         10
     6  C    0.000000
     7  C    1.396964   0.000000
     8  C    2.415828   1.393250   0.000000
     9  C    5.225760   4.607385   3.386439   0.000000
    10  C    6.101572   5.754892   4.648241   1.525629   0.000000
    11  O    5.659190   5.639715   4.742583   2.448745   1.396624
    12  N    5.147480   4.995730   3.882414   2.818683   2.970318
    13  H    5.484816   4.704864   3.448881   3.562508   4.642940
    14  H    3.420586   3.894513   3.413650   3.906303   4.100682
    15  H    2.161689   3.412977   3.890840   5.726907   6.123032
    16  H    1.093115   2.159544   3.405040   6.261668   7.107233
    17  H    2.163671   1.092703   2.156421   5.326048   6.571285
    18  H    3.418666   2.176413   1.094271   3.294474   4.742809
    19  H    5.972518   5.152813   3.865511   1.098171   2.200140
    20  H    4.572304   3.936925   2.903137   1.098561   2.177498
    21  H    6.916981   6.540146   5.332908   2.158564   1.108669
    22  H    6.686368   6.298430   5.271941   2.129536   1.101230
    23  H    5.444349   5.489844   4.558017   2.645671   1.892976
    24  H    6.102763   5.874252   4.689566   3.288879   3.308789
                   11         12         13         14         15
    11  O    0.000000
    12  N    2.859523   0.000000
    13  H    5.200314   2.939237   0.000000
    14  H    3.291324   2.423637   4.448069   0.000000
    15  H    5.247904   4.867830   6.188531   2.513754   0.000000
    16  H    6.602465   6.205044   6.507733   4.325960   2.488158
    17  H    6.572377   5.976628   5.304673   4.987107   4.315193
    18  H    5.141259   4.226212   3.111135   4.298175   4.984545
    19  H    3.401253   3.487671   3.475487   4.884416   6.688466
    20  H    2.743738   3.485360   4.119810   3.899684   5.280301
    21  H    2.084896   2.939811   4.573068   4.606898   6.855739
    22  H    2.019743   4.068601   5.535262   4.999478   6.804168
    23  H    0.976305   2.038980   4.687756   2.640572   4.878054
    24  H    3.417282   1.017446   2.936357   3.372016   5.826638
                   16         17         18         19         20
    16  H    0.000000
    17  H    2.489769   0.000000
    18  H    4.323578   2.510590   0.000000
    19  H    7.001154   5.723318   3.455049   0.000000
    20  H    5.540327   4.590081   2.902184   1.806104   0.000000
    21  H    7.958769   7.367845   5.338203   2.470890   3.081822
    22  H    7.633912   7.021902   5.291872   2.542169   2.468829
    23  H    6.422275   6.489602   5.022627   3.601821   3.092117
    24  H    7.163335   6.810602   4.875690   3.718028   4.147783
                   21         22         23         24
    21  H    0.000000
    22  H    1.776467   0.000000
    23  H    2.250984   2.800195   0.000000
    24  H    2.920308   4.387685   2.626398   0.000000
 Stoichiometry    C8H12N2OS
 Framework group  C1[X(C8H12N2OS)]
 Deg. of freedom    66
 Full point group                 C1      NOp   1
 Largest Abelian subgroup         C1      NOp   1
 Largest concise Abelian subgroup C1      NOp   1
                         Standard orientation:                         
 ---------------------------------------------------------------------
 Center     Atomic      Atomic             Coordinates (Angstroms)
 Number     Number       Type             X           Y           Z
 ---------------------------------------------------------------------
      1          7           0        1.062910    2.291644    0.335658
      2         16           0        0.914988    0.761256    0.409916
      3          6           0       -0.785000    0.204543    0.168802
      4          6           0       -1.272851   -0.937834    0.797518
      5          6           0       -2.597690   -1.311796    0.571357
      6          6           0       -3.410973   -0.544393   -0.264147
      7          6           0       -2.908825    0.607506   -0.874462
      8          6           0       -1.587066    0.990406   -0.656551
      9          6           0        1.673874    0.240921   -1.178580
     10          6           0        2.638447   -0.921653   -0.965123
     11          8           0        2.041800   -2.052493   -0.403187
     12          7           0        1.368971   -0.125477    1.599506
     13          1           0        0.744695    2.719563    1.205623
     14          1           0       -0.617113   -1.507358    1.458484
     15          1           0       -2.997386   -2.207073    1.053936
     16          1           0       -4.448640   -0.841862   -0.436362
     17          1           0       -3.551594    1.213830   -1.517283
     18          1           0       -1.171995    1.898917   -1.103489
     19          1           0        2.171272    1.148192   -1.546592
     20          1           0        0.849917   -0.046105   -1.846073
     21          1           0        3.505141   -0.567770   -0.371191
     22          1           0        3.023499   -1.211757   -1.955216
     23          1           0        1.832352   -1.787324    0.512775
     24          1           0        2.162966    0.299232    2.073205
 ---------------------------------------------------------------------
 Rotational constants (GHZ):           1.3581320           0.6059018           0.5263534
 Standard basis: def2SVP (5D, 7F)
 There are   244 symmetry adapted cartesian basis functions of A   symmetry.
 There are   232 symmetry adapted basis functions of A   symmetry.
   232 basis functions,   396 primitive gaussians,   244 cartesian basis functions
    49 alpha electrons       49 beta electrons
       nuclear repulsion energy       840.9318354871 Hartrees.
 NAtoms=   24 NActive=   24 NUniq=   24 SFac= 1.00D+00 NAtFMM=   60 NAOKFM=F Big=F
 Integral buffers will be    131072 words long.
 Raffenetti 2 integral format.
 Two-electron integral symmetry is turned on.
 Nuclear repulsion after empirical dispersion term =      840.9046752436 Hartrees.
 One-electron integrals computed using PRISM.
   1 Symmetry operations used in ECPInt.
 ECPInt:  NShTT=    6105 NPrTT=   22357 LenC2=    5938 LenP2D=   16359.
 LDataN:  DoStor=T MaxTD1= 4 Len=   56
 NBasis=   232 RedAO= T EigKep=  2.90D-04  NBF=   232
 NBsUse=   232 1.00D-06 EigRej= -1.00D+00 NBFU=   232
 Initial guess from the checkpoint file:  "SDI0054_4.chk"
 B after Tr=     0.000000   -0.000000   -0.000000
         Rot=    0.999953   -0.002732    0.003006   -0.008859 Ang=  -1.12 deg.
 ExpMin= 1.22D-01 ExpMax= 9.18D+03 ExpMxC= 1.38D+03 IAcc=3 IRadAn=         5 AccDes= 0.00D+00
 Harris functional with IExCor= 1009 and IRadAn=       5 diagonalized for initial guess.
 HarFok:  IExCor= 1009 AccDes= 0.00D+00 IRadAn=         5 IDoV= 1 UseB2=F ITyADJ=14
 ICtDFT=  3500011 ScaDFX=  1.000000  1.000000  1.000000  1.000000
 FoFCou: FMM=F IPFlag=           0 FMFlag=      100000 FMFlg1=           0
         NFxFlg=           0 DoJE=T BraDBF=F KetDBF=T FulRan=T
         wScrn=  0.000000 ICntrl=       500 IOpCl=  0 I1Cent=   200000004 NGrid=           0
         NMat0=    1 NMatS0=      1 NMatT0=    0 NMatD0=    1 NMtDS0=    0 NMtDT0=    0
 Petite list used in FoFCou.
 Requested convergence on RMS density matrix=1.00D-08 within 128 cycles.
 Requested convergence on MAX density matrix=1.00D-06.
 Requested convergence on             energy=1.00D-06.
 No special actions if energy rises.
 Integral accuracy reduced to 1.0D-05 until final iterations.
 Initial convergence to 1.0D-05 achieved.  Increase integral accuracy.
 SCF Done:  E(RPBE1PBE) =  -893.683092848     A.U. after   13 cycles
            NFock= 13  Conv=0.33D-08     -V/T= 2.0064
   1 Symmetry operations used in ECPInt.
 ECPInt:  NShTT=    6105 NPrTT=   22357 LenC2=    5938 LenP2D=   16359.
 LDataN:  DoStor=T MaxTD1= 5 Len=  102
 Calling FoFJK, ICntrl=      2127 FMM=F ISym2X=0 I1Cent= 0 IOpClX= 0 NMat=1 NMatS=1 NMatT=0.
 ***** Axes restored to original set *****
 -------------------------------------------------------------------
 Center     Atomic                   Forces (Hartrees/Bohr)
 Number     Number              X              Y              Z
 -------------------------------------------------------------------
      1        7          -0.005804379    0.004647081   -0.005895531
      2       16           0.002985787    0.006252436    0.007782481
      3        6           0.000264918   -0.001148429    0.000040519
      4        6           0.000704211    0.000586020    0.000317959
      5        6          -0.000486210    0.000971526   -0.000852723
      6        6          -0.000448349    0.000194914   -0.000434554
      7        6           0.000068170   -0.000877644    0.000608376
      8        6           0.000405095   -0.000238009    0.000120717
      9        6           0.000321596   -0.002746467   -0.000332610
     10        6           0.002388564   -0.001372123    0.001858192
     11        8          -0.000141512    0.000226236   -0.005476910
     12        7           0.000282469   -0.009499892    0.003242537
     13        1           0.003855413   -0.001735409    0.000121839
     14        1           0.000078383    0.000732428   -0.000327390
     15        1          -0.000095797    0.000161721   -0.000191179
     16        1          -0.000358895   -0.000046404   -0.000088851
     17        1          -0.000040760   -0.000210308    0.000103600
     18        1           0.000244214   -0.000524310    0.000283908
     19        1          -0.000302755    0.000736773    0.000510302
     20        1          -0.000025168    0.000155367   -0.000260046
     21        1           0.000124168    0.000091166   -0.000041304
     22        1          -0.001758934    0.000825224   -0.000927180
     23        1           0.001281758    0.001091380    0.000705807
     24        1          -0.003541987    0.001726722   -0.000867959
 -------------------------------------------------------------------
 Cartesian Forces:  Max     0.009499892 RMS     0.002353649

 GradGradGradGradGradGradGradGradGradGradGradGradGradGradGradGradGradGrad
 Berny optimization.
 Using GEDIIS/GDIIS optimizer.
 FormGI is forming the generalized inverse of G from B-inverse, IUseBI=4.
 Internal  Forces:  Max     0.008622678 RMS     0.001864681
 Search for a local minimum.
 Step number   2 out of a maximum of  130
 All quantities printed in internal units (Hartrees-Bohrs-Radians)
 Mixed Optimization -- RFO/linear search
 Update second derivatives using D2CorX and points    1    2
 DE= -4.27D-03 DEPred=-4.54D-03 R= 9.41D-01
 TightC=F SS=  1.41D+00  RLast= 2.79D-01 DXNew= 5.0454D-01 8.3677D-01
 Trust test= 9.41D-01 RLast= 2.79D-01 DXMaxT set to 5.05D-01
 ITU=  1  0
 Use linear search instead of GDIIS.
     Eigenvalues ---    0.00232   0.00248   0.00424   0.01524   0.01826
     Eigenvalues ---    0.02271   0.02276   0.02281   0.02284   0.02296
     Eigenvalues ---    0.02308   0.02315   0.02333   0.03082   0.03397
     Eigenvalues ---    0.03855   0.04812   0.04957   0.06045   0.06977
     Eigenvalues ---    0.07989   0.08580   0.09025   0.11402   0.11836
     Eigenvalues ---    0.13338   0.14175   0.15997   0.15999   0.15999
     Eigenvalues ---    0.16000   0.16000   0.16000   0.16016   0.16172
     Eigenvalues ---    0.18964   0.21972   0.21999   0.22045   0.22390
     Eigenvalues ---    0.23404   0.24498   0.25308   0.25738   0.29738
     Eigenvalues ---    0.33722   0.34280   0.35182   0.35376   0.35993
     Eigenvalues ---    0.36018   0.36047   0.36196   0.37502   0.43702
     Eigenvalues ---    0.43806   0.44847   0.46077   0.46482   0.48049
     Eigenvalues ---    0.48302   0.48693   0.50477   0.52029   0.63792
     Eigenvalues ---    0.66522
 RFO step:  Lambda=-2.43491123D-03 EMin= 2.31643001D-03
 Quartic linear search produced a step of  0.03084.
 Iteration  1 RMS(Cart)=  0.07503572 RMS(Int)=  0.00166691
 Iteration  2 RMS(Cart)=  0.00248081 RMS(Int)=  0.00004465
 Iteration  3 RMS(Cart)=  0.00000266 RMS(Int)=  0.00004460
 Iteration  4 RMS(Cart)=  0.00000000 RMS(Int)=  0.00004460
 Variable       Old X    -DE/DX   Delta X   Delta X   Delta X     New X
                                 (Linear)    (Quad)   (Total)
    R1        2.90888   0.00664   0.00022   0.01208   0.01230   2.92118
    R2        1.92827   0.00245   0.00076   0.01171   0.01247   1.94074
    R3        3.41095   0.00012  -0.00024  -0.00153  -0.00177   3.40918
    R4        3.46906  -0.00383  -0.00068  -0.02268  -0.02335   3.44571
    R5        2.93213   0.00862   0.00024   0.01601   0.01625   2.94838
    R6        2.63094  -0.00134   0.00071   0.00314   0.00385   2.63478
    R7        2.63351  -0.00051   0.00062   0.00418   0.00481   2.63832
    R8        2.63628  -0.00095   0.00057   0.00267   0.00324   2.63952
    R9        2.06251  -0.00072   0.00080   0.00464   0.00544   2.06795
   R10        2.63778  -0.00111   0.00059   0.00254   0.00313   2.64091
   R11        2.06505  -0.00027   0.00077   0.00568   0.00646   2.07150
   R12        2.63988  -0.00164   0.00060   0.00150   0.00210   2.64198
   R13        2.06569  -0.00037   0.00077   0.00533   0.00610   2.07179
   R14        2.63286  -0.00058   0.00054   0.00332   0.00386   2.63672
   R15        2.06491  -0.00022   0.00076   0.00568   0.00643   2.07134
   R16        2.06787  -0.00062   0.00083   0.00512   0.00595   2.07382
   R17        2.88302  -0.00406  -0.00001  -0.01394  -0.01396   2.86906
   R18        2.07524   0.00023   0.00074   0.00684   0.00759   2.08283
   R19        2.07598  -0.00006   0.00066   0.00534   0.00600   2.08198
   R20        2.63924  -0.00322  -0.00015  -0.00845  -0.00860   2.63063
   R21        2.09508  -0.00011   0.00050   0.00378   0.00428   2.09936
   R22        2.08102   0.00081   0.00041   0.00579   0.00620   2.08722
   R23        1.84495  -0.00085  -0.00004  -0.00199  -0.00203   1.84292
   R24        1.92269   0.00250   0.00062   0.01067   0.01130   1.93399
    A1        1.92393  -0.00431  -0.00233  -0.04632  -0.04865   1.87528
    A2        1.97219  -0.00072  -0.00041  -0.00361  -0.00408   1.96811
    A3        1.77249   0.00075   0.00035   0.00467   0.00498   1.77747
    A4        2.18590  -0.00034   0.00074  -0.00181  -0.00111   2.18479
    A5        1.75822   0.00133   0.00013   0.01376   0.01393   1.77216
    A6        1.77390   0.00120  -0.00068   0.00683   0.00624   1.78015
    A7        1.96111  -0.00197  -0.00023  -0.01706  -0.01733   1.94378
    A8        2.12090   0.00078   0.00034   0.00591   0.00624   2.12714
    A9        2.03448  -0.00022  -0.00055  -0.00552  -0.00607   2.02840
   A10        2.12762  -0.00056   0.00020  -0.00050  -0.00030   2.12731
   A11        2.07090   0.00008  -0.00018  -0.00124  -0.00142   2.06948
   A12        2.08417  -0.00041   0.00020  -0.00081  -0.00061   2.08356
   A13        2.12805   0.00033  -0.00002   0.00205   0.00203   2.13008
   A14        2.09784   0.00043   0.00008   0.00235   0.00242   2.10026
   A15        2.08906  -0.00021  -0.00008  -0.00146  -0.00154   2.08752
   A16        2.09628  -0.00022   0.00000  -0.00089  -0.00089   2.09539
   A17        2.10064  -0.00024  -0.00002  -0.00144  -0.00146   2.09918
   A18        2.09183   0.00011  -0.00000   0.00053   0.00053   2.09236
   A19        2.09069   0.00013   0.00002   0.00091   0.00093   2.09161
   A20        2.09358  -0.00004   0.00010   0.00065   0.00075   2.09433
   A21        2.09799  -0.00007   0.00000  -0.00047  -0.00046   2.09753
   A22        2.09159   0.00011  -0.00010  -0.00020  -0.00031   2.09128
   A23        2.07563   0.00033  -0.00018   0.00016  -0.00002   2.07561
   A24        2.08492  -0.00026   0.00027   0.00077   0.00103   2.08595
   A25        2.12250  -0.00007  -0.00009  -0.00102  -0.00112   2.12138
   A26        1.93509  -0.00832   0.00078  -0.03454  -0.03375   1.90135
   A27        1.81630   0.00316  -0.00095   0.00732   0.00642   1.82272
   A28        1.86478   0.00264  -0.00008   0.00713   0.00702   1.87181
   A29        1.97152   0.00182   0.00020   0.01024   0.01039   1.98191
   A30        1.93919   0.00209   0.00006   0.00712   0.00710   1.94630
   A31        1.93045  -0.00144  -0.00007   0.00192   0.00173   1.93218
   A32        1.98581  -0.00623   0.00094  -0.02161  -0.02070   1.96512
   A33        1.90283   0.00084   0.00002  -0.00653  -0.00662   1.89621
   A34        1.87132   0.00186  -0.00151   0.00322   0.00183   1.87315
   A35        1.95721   0.00195   0.00075   0.00507   0.00558   1.96279
   A36        1.87320   0.00291   0.00037   0.02973   0.03015   1.90335
   A37        1.86753  -0.00101  -0.00073  -0.00860  -0.00945   1.85808
   A38        1.82267   0.00111  -0.00103  -0.00152  -0.00256   1.82011
   A39        1.92487  -0.00406  -0.00205  -0.04248  -0.04453   1.88034
    D1        1.35423  -0.00188  -0.00181  -0.05907  -0.06087   1.29336
    D2       -3.06039  -0.00024  -0.00163  -0.04226  -0.04387  -3.10426
    D3       -0.82088  -0.00262  -0.00102  -0.06390  -0.06494  -0.88582
    D4       -2.58674   0.00015  -0.00045  -0.05776  -0.05821  -2.64495
    D5        0.53413   0.00010  -0.00088  -0.06362  -0.06451   0.46962
    D6        1.81885  -0.00113  -0.00077  -0.06882  -0.06955   1.74931
    D7       -1.34346  -0.00118  -0.00121  -0.07468  -0.07585  -1.41931
    D8       -0.20136   0.00017  -0.00035  -0.05714  -0.05752  -0.25888
    D9        2.91951   0.00012  -0.00079  -0.06300  -0.06382   2.85569
   D10        2.33316  -0.00011  -0.00009   0.03264   0.03254   2.36570
   D11        0.20856   0.00023  -0.00019   0.03432   0.03411   0.24267
   D12       -1.83456  -0.00077   0.00038   0.02561   0.02597  -1.80859
   D13       -1.91842  -0.00021  -0.00038   0.03469   0.03437  -1.88405
   D14        2.24016   0.00013  -0.00048   0.03637   0.03594   2.27610
   D15        0.19705  -0.00087   0.00009   0.02765   0.02780   0.22484
   D16       -0.04290   0.00116  -0.00116   0.04356   0.04236  -0.00054
   D17       -2.16750   0.00149  -0.00127   0.04524   0.04393  -2.12357
   D18        2.07257   0.00049  -0.00069   0.03653   0.03579   2.10836
   D19       -0.51255  -0.00098  -0.00169  -0.04476  -0.04649  -0.55904
   D20       -2.76997  -0.00092  -0.00098  -0.04525  -0.04624  -2.81621
   D21        1.64773  -0.00235  -0.00071  -0.05841  -0.05907   1.58865
   D22        3.13886  -0.00008  -0.00023  -0.00509  -0.00535   3.13351
   D23        0.00897  -0.00008  -0.00012  -0.00420  -0.00434   0.00463
   D24        0.01910  -0.00003   0.00023   0.00113   0.00137   0.02047
   D25       -3.11079  -0.00003   0.00034   0.00203   0.00237  -3.10842
   D26       -3.13935   0.00005   0.00019   0.00423   0.00440  -3.13495
   D27       -0.01540  -0.00003  -0.00004  -0.00099  -0.00105  -0.01645
   D28       -0.01856   0.00002  -0.00025  -0.00157  -0.00182  -0.02038
   D29        3.10539  -0.00007  -0.00048  -0.00679  -0.00727   3.09812
   D30       -0.00639   0.00001  -0.00009  -0.00018  -0.00026  -0.00665
   D31        3.13854   0.00002   0.00002   0.00097   0.00099   3.13953
   D32        3.12320   0.00001  -0.00020  -0.00112  -0.00132   3.12188
   D33       -0.01505   0.00002  -0.00009   0.00003  -0.00007  -0.01512
   D34       -0.00641  -0.00000  -0.00004  -0.00033  -0.00036  -0.00678
   D35       -3.14016  -0.00001   0.00006   0.00013   0.00019  -3.13997
   D36        3.13183  -0.00001  -0.00014  -0.00148  -0.00162   3.13020
   D37       -0.00192  -0.00002  -0.00004  -0.00102  -0.00107  -0.00299
   D38        0.00700  -0.00001   0.00003  -0.00011  -0.00008   0.00691
   D39       -3.12713   0.00002   0.00021   0.00257   0.00278  -3.12435
   D40        3.14075  -0.00000  -0.00007  -0.00057  -0.00064   3.14011
   D41        0.00662   0.00003   0.00011   0.00211   0.00222   0.00884
   D42        0.00523   0.00000   0.00011   0.00103   0.00114   0.00637
   D43       -3.11832   0.00009   0.00035   0.00634   0.00668  -3.11164
[...]
 Alpha virt. eigenvalues --    2.50884   2.52622   2.53101   2.53521   2.56040
 Alpha virt. eigenvalues --    2.56435   2.58210   2.59501   2.60815   2.61715
 Alpha virt. eigenvalues --    2.62967   2.64185   2.65251   2.65826   2.66585
 Alpha virt. eigenvalues --    2.66795   2.68175   2.69857   2.70859   2.73045
 Alpha virt. eigenvalues --    2.73732   2.74545   2.76179   2.76553   2.77429
 Alpha virt. eigenvalues --    2.78633   2.78849   2.79741   2.81238   2.82272
 Alpha virt. eigenvalues --    2.84108   2.84627   2.84985   2.87564   2.89740
 Alpha virt. eigenvalues --    2.91643   2.92641   2.93772   2.96319   2.98686
 Alpha virt. eigenvalues --    2.99897   3.01943   3.04932   3.05939   3.07400
 Alpha virt. eigenvalues --    3.11210   3.11554   3.12767   3.13461   3.13797
 Alpha virt. eigenvalues --    3.14519   3.15755   3.16944   3.17426   3.19465
 Alpha virt. eigenvalues --    3.20169   3.20986   3.23416   3.24381   3.25582
 Alpha virt. eigenvalues --    3.26464   3.27751   3.27855   3.31356   3.33531
 Alpha virt. eigenvalues --    3.35685   3.36030   3.36899   3.36995   3.38395
 Alpha virt. eigenvalues --    3.41256   3.41314   3.43598   3.44777   3.45720
 Alpha virt. eigenvalues --    3.46079   3.49033   3.50191   3.51527   3.52210
 Alpha virt. eigenvalues --    3.54337   3.55579   3.57255   3.58951   3.59306
 Alpha virt. eigenvalues --    3.65185   3.67123   3.69015   3.72836   3.74546
 Alpha virt. eigenvalues --    3.76926   3.81180   3.83582   3.84988   3.86959
 Alpha virt. eigenvalues --    3.90911   3.92802   3.94125   3.97405   3.98310
 Alpha virt. eigenvalues --    4.00487   4.02046   4.03222   4.05589   4.06798
 Alpha virt. eigenvalues --    4.07297   4.11095   4.12724   4.13806   4.18451
 Alpha virt. eigenvalues --    4.19446   4.20037   4.21381   4.21896   4.23569
 Alpha virt. eigenvalues --    4.24393   4.25689   4.26276   4.28471   4.28789
 Alpha virt. eigenvalues --    4.33136   4.33291   4.34669   4.36960   4.38651
 Alpha virt. eigenvalues --    4.44955   4.48345   4.49851   4.57893   4.61032
 Alpha virt. eigenvalues --    4.62191   4.64591   4.64679   4.67230   4.69227
 Alpha virt. eigenvalues --    4.71360   4.72220   4.73530   4.77219   4.80056
 Alpha virt. eigenvalues --    4.81669   4.88118   4.91580   4.92965   4.95250
 Alpha virt. eigenvalues --    5.05383   5.09549   5.11875   5.16140   5.17127
 Alpha virt. eigenvalues --    5.19126   5.22004   5.22848   5.27777   5.31166
 Alpha virt. eigenvalues --    5.35155   5.39349   5.42180   5.50057   5.54296
 Alpha virt. eigenvalues --    5.57973   5.58796   5.75677   5.84290   5.99678
 Alpha virt. eigenvalues --    6.29172   6.51469   6.75432   6.83370   7.00700
 Alpha virt. eigenvalues --    7.19844   9.48488   9.54049   9.64914  21.59305
 Alpha virt. eigenvalues --   22.03977  22.44207  22.55114  22.62273  22.64162
 Alpha virt. eigenvalues --   22.75167  22.82137  23.15284  31.91906  32.01698
 Alpha virt. eigenvalues --   43.94180
          Condensed to atoms (all electrons):
               1          2          3          4          5          6
     1  N    6.891962   0.512288  -0.082358   0.017519  -0.000414  -0.000094
     2  S    0.512288  14.227835   0.216686   0.013116   0.009072  -0.000632
     3  C   -0.082358   0.216686   5.396695   0.300733   0.002811  -0.088952
     4  C    0.017519   0.013116   0.300733   5.115946   0.464297   0.007770
     5  C   -0.000414   0.009072   0.002811   0.464297   4.898428   0.481275
     6  C   -0.000094  -0.000632  -0.088952   0.007770   0.481275   4.855878
     7  C    0.000559   0.007782   0.032070  -0.059518   0.012185   0.465020
     8  C   -0.001769  -0.053044   0.357117  -0.109285  -0.080550   0.038396
     9  C   -0.070228   0.246526  -0.073159   0.020488   0.002537  -0.000889
    10  C   -0.002850  -0.015189   0.012751  -0.009613  -0.001206   0.000132
    11  O    0.000452   0.012247  -0.033429   0.030589   0.001149  -0.000017
    12  N   -0.061454   0.444457  -0.088100  -0.004386  -0.001941   0.000634
    13  H    0.317242  -0.027985  -0.000194   0.002740   0.000259  -0.000207
    14  H    0.000579  -0.005642  -0.045807   0.419882  -0.043695   0.007170
    15  H    0.000008  -0.000231   0.009351  -0.047065   0.421620  -0.048961
    16  H    0.000000   0.000042  -0.002038   0.009866  -0.046878   0.421597
    17  H    0.000026  -0.000323   0.012470  -0.000954   0.009050  -0.050200
    18  H    0.023207  -0.006980  -0.063030   0.008957  -0.002987   0.010283
    19  H    0.012070  -0.018802   0.004896   0.000327   0.000019   0.000009
    20  H    0.004375  -0.023661   0.008138   0.005379  -0.000841   0.000481
    21  H    0.003107   0.000378  -0.000970   0.002058   0.000012   0.000001
    22  H   -0.000292   0.005575  -0.000180  -0.000334   0.000012  -0.000001
    23  H    0.000742   0.003076  -0.000939  -0.003702   0.000336  -0.000030
    24  H   -0.000839  -0.022545   0.017744  -0.003137  -0.000015   0.000000
               7          8          9         10         11         12
     1  N    0.000559  -0.001769  -0.070228  -0.002850   0.000452  -0.061454
     2  S    0.007782  -0.053044   0.246526  -0.015189   0.012247   0.444457
     3  C    0.032070   0.357117  -0.073159   0.012751  -0.033429  -0.088100
     4  C   -0.059518  -0.109285   0.020488  -0.009613   0.030589  -0.004386
     5  C    0.012185  -0.080550   0.002537  -0.001206   0.001149  -0.001941
     6  C    0.465020   0.038396  -0.000889   0.000132  -0.000017   0.000634
     7  C    4.927526   0.399375   0.000530  -0.000064   0.000140  -0.001500
     8  C    0.399375   5.228904  -0.022854   0.005233  -0.002227   0.019603
     9  C    0.000530  -0.022854   5.383081   0.259958  -0.044701  -0.100568
    10  C   -0.000064   0.005233   0.259958   4.757774   0.294880   0.041870
    11  O    0.000140  -0.002227  -0.044701   0.294880   7.990410  -0.048964
    12  N   -0.001500   0.019603  -0.100568   0.041870  -0.048964   7.028895
    13  H    0.000406  -0.008123   0.014693  -0.001116   0.000071  -0.003598
    14  H   -0.001194   0.007907   0.000588  -0.000445   0.001283   0.008167
    15  H    0.009558  -0.001300  -0.000005   0.000012  -0.000024  -0.000106
    16  H   -0.050330   0.010238  -0.000007   0.000001  -0.000001   0.000001
    17  H    0.426184  -0.052955   0.000067  -0.000003   0.000000  -0.000002
    18  H   -0.055276   0.437250  -0.003427   0.000673   0.000038   0.001686
    19  H    0.000050  -0.000188   0.356190  -0.014082   0.005269   0.002924
    20  H   -0.000397  -0.007446   0.340859  -0.007679   0.003566   0.004741
    21  H    0.000005  -0.000632  -0.083855   0.426315  -0.048956   0.003862
    22  H    0.000003  -0.000062  -0.023331   0.383260  -0.031062   0.001349
    23  H   -0.000021  -0.000261   0.014878  -0.058699   0.309342   0.031765
    24  H    0.000036  -0.000566  -0.009191   0.004109   0.001023   0.321624
              13         14         15         16         17         18
     1  N    0.317242   0.000579   0.000008   0.000000   0.000026   0.023207
     2  S   -0.027985  -0.005642  -0.000231   0.000042  -0.000323  -0.006980
     3  C   -0.000194  -0.045807   0.009351  -0.002038   0.012470  -0.063030
     4  C    0.002740   0.419882  -0.047065   0.009866  -0.000954   0.008957
     5  C    0.000259  -0.043695   0.421620  -0.046878   0.009050  -0.002987
     6  C   -0.000207   0.007170  -0.048961   0.421597  -0.050200   0.010283
     7  C    0.000406  -0.001194   0.009558  -0.050330   0.426184  -0.055276
     8  C   -0.008123   0.007907  -0.001300   0.010238  -0.052955   0.437250
     9  C    0.014693   0.000588  -0.000005  -0.000007   0.000067  -0.003427
    10  C   -0.001116  -0.000445   0.000012   0.000001  -0.000003   0.000673
    11  O    0.000071   0.001283  -0.000024  -0.000001   0.000000   0.000038
    12  N   -0.003598   0.008167  -0.000106   0.000001  -0.000002   0.001686
    13  H    0.490306  -0.000018   0.000000  -0.000001   0.000027  -0.003680
    14  H   -0.000018   0.500877  -0.006280  -0.000211   0.000068  -0.000121
    15  H    0.000000  -0.006280   0.543118  -0.007208  -0.000237   0.000070
    16  H   -0.000001  -0.000211  -0.007208   0.545747  -0.007419  -0.000153
    17  H    0.000027   0.000068  -0.000237  -0.007419   0.543378  -0.006706
    18  H   -0.003680  -0.000121   0.000070  -0.000153  -0.006706   0.498841
    19  H   -0.000735  -0.000061  -0.000001   0.000000  -0.000006   0.000385
    20  H   -0.000723   0.000334  -0.000006  -0.000000   0.000024   0.000752
    21  H   -0.000139   0.000166  -0.000001  -0.000000   0.000000  -0.000006
    22  H    0.000032  -0.000036   0.000001   0.000000   0.000000  -0.000013
    23  H    0.000062   0.000478  -0.000009  -0.000000   0.000000  -0.000075
    24  H   -0.000154  -0.000703  -0.000004   0.000000  -0.000001  -0.000050
              19         20         21         22         23         24
     1  N    0.012070   0.004375   0.003107  -0.000292   0.000742  -0.000839
     2  S   -0.018802  -0.023661   0.000378   0.005575   0.003076  -0.022545
     3  C    0.004896   0.008138  -0.000970  -0.000180  -0.000939   0.017744
     4  C    0.000327   0.005379   0.002058  -0.000334  -0.003702  -0.003137
     5  C    0.000019  -0.000841   0.000012   0.000012   0.000336  -0.000015
     6  C    0.000009   0.000481   0.000001  -0.000001  -0.000030   0.000000
     7  C    0.000050  -0.000397   0.000005   0.000003  -0.000021   0.000036
     8  C   -0.000188  -0.007446  -0.000632  -0.000062  -0.000261  -0.000566
     9  C    0.356190   0.340859  -0.083855  -0.023331   0.014878  -0.009191
    10  C   -0.014082  -0.007679   0.426315   0.383260  -0.058699   0.004109
    11  O    0.005269   0.003566  -0.048956  -0.031062   0.309342   0.001023
    12  N    0.002924   0.004741   0.003862   0.001349   0.031765   0.321624
    13  H   -0.000735  -0.000723  -0.000139   0.000032   0.000062  -0.000154
    14  H   -0.000061   0.000334   0.000166  -0.000036   0.000478  -0.000703
    15  H   -0.000001  -0.000006  -0.000001   0.000001  -0.000009  -0.000004
    16  H    0.000000  -0.000000  -0.000000   0.000000  -0.000000   0.000000
    17  H   -0.000006   0.000024   0.000000   0.000000   0.000000  -0.000001
    18  H    0.000385   0.000752  -0.000006  -0.000013  -0.000075  -0.000050
    19  H    0.506437  -0.013540   0.003708  -0.000609  -0.001099   0.000704
    20  H   -0.013540   0.544684   0.010678  -0.010154  -0.002407  -0.000062
    21  H    0.003708   0.010678   0.635954  -0.040091  -0.014689   0.000069
    22  H   -0.000609  -0.010154  -0.040091   0.591152   0.009279   0.000144
    23  H   -0.001099  -0.002407  -0.014689   0.009279   0.387954  -0.002195
    24  H    0.000704  -0.000062   0.000069   0.000144  -0.002195   0.470328
 Mulliken charges:
               1
     1  N   -0.563841
     2  S    0.475953
     3  C    0.107694
     4  C   -0.181674
     5  C   -0.124537
     6  C   -0.098665
     7  C   -0.113129
     8  C   -0.162758
     9  C   -0.208181
    10  C   -0.076021
    11  O   -0.441078
    12  N   -0.600958
    13  H    0.220834
    14  H    0.156712
    15  H    0.127700
    16  H    0.126754
    17  H    0.127512
    18  H    0.160362
    19  H    0.156136
    20  H    0.142906
    21  H    0.103026
    22  H    0.115356
    23  H    0.326214
    24  H    0.223680
 Sum of Mulliken charges =  -0.00000
 Mulliken charges with hydrogens summed into heavy atoms:
               1
     1  N   -0.343006
     2  S    0.475953
     3  C    0.107694
     4  C   -0.024962
     5  C    0.003162
     6  C    0.028089
     7  C    0.014384
     8  C   -0.002397
     9  C    0.090862
    10  C    0.142361
    11  O   -0.114863
    12  N   -0.377278
 Electronic spatial extent (au):  <R**2>=           2317.8071
 Charge=             -0.0000 electrons
 Dipole moment (field-independent basis, Debye):
    X=             -1.6911    Y=              0.5183    Z=             -0.9204  Tot=              1.9938
 Quadrupole moment (field-independent basis, Debye-Ang):
   XX=            -68.6160   YY=            -86.1749   ZZ=            -78.4819
   XY=              2.1883   XZ=              0.6294   YZ=             -1.5794
 Traceless Quadrupole moment (field-independent basis, Debye-Ang):
   XX=              9.1416   YY=             -8.4173   ZZ=             -0.7243
   XY=              2.1883   XZ=              0.6294   YZ=             -1.5794
 Octapole moment (field-independent basis, Debye-Ang**2):
  XXX=             -0.7056  YYY=             -2.2777  ZZZ=             -8.0122  XYY=            -24.4915
  XXY=             -4.7661  XXZ=             -7.9856  XZZ=             15.2423  YZZ=              3.8652
  YYZ=             14.6301  XYZ=              7.3882
 Hexadecapole moment (field-independent basis, Debye-Ang**3):
 XXXX=          -1788.8722 YYYY=           -792.9900 ZZZZ=           -411.9224 XXXY=             22.0078
 XXXZ=             41.6488 YYYX=             -0.1597 YYYZ=              0.6872 ZZZX=             -5.6473
 ZZZY=             13.6914 XXYY=           -473.9461 XXZZ=           -374.7665 YYZZ=           -170.2984
 XXYZ=            -17.6368 YYXZ=              4.8267 ZZXY=             -6.6454
 N-N= 8.430925255532D+02 E-N=-3.788193732692D+03  KE= 8.911516950079D+02
 Breneman (CHELPG) radii used.
 Read replacement radii for each type of atom:
 Atom Element Radius
    1     7    1.70
    2    16    2.00
    3     6    1.50
    4     6    1.50
    5     6    1.50
    6     6    1.50
    7     6    1.50
    8     6    1.50
    9     6    1.50
   10     6    1.50
   11     8    1.70
   12     7    1.70
   13     1    1.45
   14     1    1.45
   15     1    1.45
   16     1    1.45
   17     1    1.45
   18     1    1.45
   19     1    1.45
   20     1    1.45
   21     1    1.45
   22     1    1.45
   23     1    1.45
   24     1    1.45
 Generate Potential Derived Charges using the Breneman model, NDens= 1.
 Grid spacing= 0.300 Box extension= 2.800
 NStep X,Y,Z=   47     37     32   Total possible points=       55648
 Number of Points to Fit=   15009

 **********************************************************************

            Electrostatic Properties Using The SCF Density.

 **********************************************************************

       Atomic Center    1 is at   1.060298  2.304352  0.297146
       Atomic Center    2 is at   0.918526  0.762663  0.384139
       Atomic Center    3 is at  -0.776045  0.198334  0.166550
       Atomic Center    4 is at  -1.231740 -1.000046  0.708816
       Atomic Center    5 is at  -2.557773 -1.368558  0.492660
       Atomic Center    6 is at  -3.405818 -0.545920 -0.249505
       Atomic Center    7 is at  -2.935633  0.656862 -0.776131
       Atomic Center    8 is at  -1.611828  1.036962 -0.567014
       Atomic Center    9 is at   1.704792  0.240352 -1.180058
       Atomic Center   10 is at   2.631018 -0.940351 -0.924317
       Atomic Center   11 is at   1.972714 -2.034728 -0.371722
       Atomic Center   12 is at   1.377396 -0.102494  1.606733
       Atomic Center   13 is at   0.624885  2.702526  1.135931
       Atomic Center   14 is at  -0.555659 -1.616606  1.300882
       Atomic Center   15 is at  -2.932329 -2.305373  0.911444
       Atomic Center   16 is at  -4.444436 -0.842625 -0.413537
       Atomic Center   17 is at  -3.603562  1.305648 -1.347256
       Atomic Center   18 is at  -1.215844  1.981064 -0.950905
       Atomic Center   19 is at   2.228914  1.135247 -1.542507
       Atomic Center   20 is at   0.893170 -0.030463 -1.869570
       Atomic Center   21 is at   3.480069 -0.601146 -0.296083
       Atomic Center   22 is at   3.064561 -1.244440 -1.891280
       Atomic Center   23 is at   1.729851 -1.745466  0.528963
       Atomic Center   24 is at   2.286552  0.258032  1.908309
   15009 points will be used for fitting atomic charges
 Fitting point charges to electrostatic potential
 Charges from ESP fit, RMS=   0.00324 RRMS=   0.23507:
 ESP charges:
               1
     1  N   -0.717444
     2  S    0.592789
     3  C    0.136858
     4  C   -0.144515
     5  C   -0.081531
     6  C   -0.069936
     7  C   -0.120815
     8  C   -0.106575
     9  C   -0.121853
    10  C    0.342485
    11  O   -0.648488
    12  N   -0.823478
    13  H    0.315066
    14  H    0.148895
    15  H    0.100545
    16  H    0.097072
    17  H    0.112160
    18  H    0.103923
    19  H    0.077755
    20  H    0.057445
    21  H   -0.049063
    22  H    0.025598
    23  H    0.401006
    24  H    0.372100
 Sum of ESP charges =   0.00000
 ESP charges with hydrogens summed into heavy atoms:
               1
     1  N   -0.402378
     2  S    0.592789
     3  C    0.136858
     4  C    0.004380
     5  C    0.019014
     6  C    0.027136
     7  C   -0.008655
     8  C   -0.002651
     9  C    0.013348
    10  C    0.319020
    11  O   -0.247482
    12  N   -0.451378
 Charge=   0.00000 Dipole=    -1.7159     0.5413    -0.8373 Tot=     1.9846
 -----------------------------------------------------------------

              Electrostatic Properties (Atomic Units)

 -----------------------------------------------------------------
    Center     Electric         -------- Electric Field --------
               Potential          X             Y             Z
 -----------------------------------------------------------------
    1 Atom    -18.415752
    2 Atom    -59.068263
    3 Atom    -14.724955
    4 Atom    -14.742722
    5 Atom    -14.745390
    6 Atom    -14.743375
    7 Atom    -14.744015
    8 Atom    -14.741143
    9 Atom    -14.731850
   10 Atom    -14.706083
   11 Atom    -22.358467
   12 Atom    -18.413322
   13 Atom     -1.043082
   14 Atom     -1.089078
   15 Atom     -1.088678
   16 Atom     -1.086691
   17 Atom     -1.086743
   18 Atom     -1.083214
   19 Atom     -1.079595
   20 Atom     -1.080518
   21 Atom     -1.113217
   22 Atom     -1.107057
   23 Atom     -1.015959
   24 Atom     -1.039529
 -----------------------------------------------------------------
 Unable to Open any file for archive entry.
 1\1\GINC-NOTCH338\SP\RPBE1PBE\def2TZVP\C8H12N2O1S1\U1414944\10-Feb-202
 5\0\\#N Guess=Read Geom=Check Integral(Ultrafine) Density Pop=(ChelpG,
 ReadRadii) NMR pbe1pbe EmpiricalDispersion=GD3BJ def2TZVP\\SDI0054_4\\
 0,1\N,0,-1.0812496842,0.5091582263,-2.2584318168\S,0,-0.8994701476,-0.
 1402911742,-0.862136172\C,0,0.7770375089,0.0134962728,-0.2272717343\C,
 0,1.3086028018,-0.8941253126,0.6845872491\C,0,2.6144777743,-0.70389281
 57,1.1311160295\C,0,3.3683523522,0.3740651543,0.6659246777\C,0,2.82381
 13504,1.2675291593,-0.2561865939\C,0,1.5192204316,1.0883798343,-0.7107
 357226\C,0,-1.8241471951,1.0242145425,0.199294563\C,0,-2.6959959129,0.
 2507564075,1.1785800418\O,0,-1.9640016578,-0.6070446627,1.9939015299\N
 ,0,-1.2181632181,-1.6381495514,-0.5325111708\H,0,-0.574150668,-0.06925
 3139,-2.9366495964\H,0,0.7068147336,-1.7390034666,1.0189610019\H,0,3.0
 477495988,-1.4068896354,1.8462145919\H,0,4.3918669105,0.5151594131,1.0
 211400202\H,0,3.4188662628,2.104524819,-0.6284563233\H,0,1.0678961739,
 1.7599071472,-1.4461681793\H,0,-2.3998359834,1.6447536707,-0.501007455
 3\H,0,-1.0785185667,1.6363683871,0.7254140329\H,0,-3.4862983735,-0.282
 8116026,0.6116989522\H,0,-3.2157592265,0.9829253701,1.8182843191\H,0,-
 1.6401433209,-1.3026212057,1.3896031855\H,0,-2.1007226458,-1.868924601
 4,-0.9965411944\\Version=ES64L-G16RevC.01\State=1-A\HF=-894.402079\RMS
 D=2.609e-09\Dipole=0.6222288,0.4760204,-0.0397378\Quadrupole=6.701585,
 -0.5046707,-6.1969143,0.5133995,1.7910757,1.3463441\PG=C01 [X(C8H12N2O
 1S1)]\\@
 The archive entry for this job was punched.


 DEFINE YOUR TERMS, YOU WILL PERMIT ME AGAIN TO SAY, 
 OR WE SHALL NEVER UNDERSTAND ONE ANOTHER.

                                    -- VOLTAIRE
 Job cpu time:       0 days  0 hours 20 minutes 12.1 seconds.
 Elapsed time:       0 days  0 hours  1 minutes 22.3 seconds.
 File lengths (MBytes):  RWF=    130 Int=      0 D2E=      0 Chk=     20 Scr=      2
 Normal termination of Gaussian 16 at Mon Feb 10 19:48:52 2025.
