 Entering Gaussian System, Link 0=g16
 Input=SDI1145_5.com
 Output=SDI1145_5.log
 Initial command:
 /uufs/chpc.utah.edu/sys/installdir/gaussian16/C01/AVX/g16/l1.exe "/scratch/general/vast/u1414944/3351104-notchpeak.peaks/Gau-1197308.inp" -scrdir="/scratch/general/vast/u1414944/3351104-notchpeak.peaks/"
 Entering Link 1 = /uufs/chpc.utah.edu/sys/installdir/gaussian16/C01/AVX/g16/l1.exe PID=   1197309.
  
 Copyright (c) 1988-2019, Gaussian, Inc.  All Rights Reserved.
  
 This is part of the Gaussian(R) 16 program.  It is based on
 the Gaussian(R) 09 system (copyright 2009, Gaussian, Inc.),
 the Gaussian(R) 03 system (copyright 2003, Gaussian, Inc.),
 the Gaussian(R) 98 system (copyright 1998, Gaussian, Inc.),
 the Gaussian(R) 94 system (copyright 1995, Gaussian, Inc.),
 the Gaussian 92(TM) system (copyright 1992, Gaussian, Inc.),
 the Gaussian 90(TM) system (copyright 1990, Gaussian, Inc.),
 the Gaussian 88(TM) system (copyright 1988, Gaussian, Inc.),
 the Gaussian 86(TM) system (copyright 1986, Carnegie Mellon
 University), and the Gaussian 82(TM) system (copyright 1983,
 Carnegie Mellon University). Gaussian is a federally registered
 trademark of Gaussian, Inc.
  
 This software contains proprietary and confidential information,
 including trade secrets, belonging to Gaussian, Inc.
  
 This software is provided under written license and may be
 used, copied, transmitted, or stored only in accord with that
 written license.
  
 The following legend is applicable only to US Government
 contracts under FAR:
  
                    RESTRICTED RIGHTS LEGEND
  
 Use, reproduction and disclosure by the US Government is
 subject to restrictions as set forth in subparagraphs (a)
 and (c) of the Commercial Computer Software - Restricted
 Rights clause in FAR 52.227-19.
  
 Gaussian, Inc.
 340 Quinnipiac St., Bldg. 40, Wallingford CT 06492
  
  
 ---------------------------------------------------------------
 Warning -- This program may not be used in any manner that
 competes with the business of Gaussian, Inc. or will provide
 assistance to any competitor of Gaussian, Inc.  The licensee
 of this program is prohibited from giving any competitor of
 Gaussian, Inc. access to this program.  By using this program,
 the user acknowledges that Gaussian, Inc. is engaged in the
 business of creating and licensing software in the field of
 computational chemistry and represents and warrants to the
 licensee that it is not a competitor of Gaussian, Inc. and that
 it will not use this program in any manner prohibited above.
 ---------------------------------------------------------------
  

 Cite this work as:
 Gaussian 16, Revision C.01,
 M. J. Frisch, G. W. Trucks, H. B. Schlegel, G. E. Scuseria, 
 M. A. Robb, J. R. Cheeseman, G. Scalmani, V. Barone, 
 G. A. Petersson, H. Nakatsuji, X. Li, M. Caricato, A. V. Marenich, 
 J. Bloino, B. G. Janesko, R. Gomperts, B. Mennucci, H. P. Hratchian, 
 J. V. Ortiz, A. F. Izmaylov, J. L. Sonnenberg, D. Williams-Young, 
 F. Ding, F. Lipparini, F. Egidi, J. Goings, B. Peng, A. Petrone, 
 T. Henderson, D. Ranasinghe, V. G. Zakrzewski, J. Gao, N. Rega, 
 G. Zheng, W. Liang, M. Hada, M. Ehara, K. Toyota, R. Fukuda, 
 J. Hasegawa, M. Ishida, T. Nakajima, Y. Honda, O. Kitao, H. Nakai, 
 T. Vreven, K. Throssell, J. A. Montgomery, Jr., J. E. Peralta, 
 F. Ogliaro, M. J. Bearpark, J. J. Heyd, E. N. Brothers, K. N. Kudin, 
 V. N. Staroverov, T. A. Keith, R. Kobayashi, J. Normand, 
 K. Raghavachari, A. P. Rendell, J. C. Burant, S. S. Iyengar, 
 J. Tomasi, M. Cossi, J. M. Millam, M. Klene, C. Adamo, R. Cammi, 
 J. W. Ochterski, R. L. Martin, K. Morokuma, O. Farkas, 
 J. B. Foresman, and D. J. Fox, Gaussian, Inc., Wallingford CT, 2019.
 
 ******************************************
 Gaussian 16:  ES64L-G16RevC.01  3-Jul-2019
                24-Feb-2025 
 ******************************************
 %NProcShared=16
 Will use up to   16 processors via shared memory.
 %Mem=40GB
 %chk=SDI1145_5.chk
 ----------------------------------------------------------------------
 #N OPT FREQ=NORAMAN Integral(Ultrafine) pbe1pbe EmpiricalDispersion=GD
 3BJ def2SVP
 ----------------------------------------------------------------------
 1/18=20,19=15,26=4,38=1/1,3;
 2/9=110,12=2,17=6,18=5,40=1/2;
 3/5=43,7=101,11=2,25=1,30=1,71=1,74=-13,75=-5,124=41/1,2,3;
 4//1;
 5/5=2,38=5/2;
 6/7=2,8=2,9=2,10=2,28=1/1;
 7//1,2,3,16;
 1/18=20,19=15,26=4/3(2);
 2/9=110/2;
 99//99;
 2/9=110/2;
 3/5=43,7=101,11=2,25=1,30=1,71=1,74=-13,75=-5,124=41/1,2,3;
 4/5=5,16=3,69=1/1;
 5/5=2,38=5/2;
 7//1,2,3,16;
 1/18=20,19=15,26=4/3(-5);
 2/9=110/2;
 6/7=2,8=2,9=2,10=2,19=2,28=1/1;
 99/9=1/99;
 ---------
 SDI1145_5
 ---------
 Symbolic Z-matrix:
 Charge =  0 Multiplicity = 1
 N                    -3.32089  -1.21816  -0.84201 
 S                    -2.67323  -0.52225   0.36652 
 C                    -0.87614  -0.34884   0.19499 
 C                    -0.11247  -0.02496   1.3005 
 C                     1.25883   0.1049    1.16843 
 C                     1.83541  -0.09537  -0.07634 
 Br                    3.71979   0.08924  -0.26559 
 C                     1.0761   -0.43165  -1.18596 
 C                    -0.29424  -0.56019  -1.04146 
 C                    -3.19353   1.24577   0.14848 
 C                    -2.88624   1.6754   -1.26828 
 C                    -4.67245   1.30617   0.47472 
 N                    -2.78222  -1.02098   1.81793 
 H                    -3.39829  -2.2175   -0.74616 
 H                    -0.60188   0.09848   2.25269 
 H                     1.87444   0.35582   2.01853 
 H                     1.54945  -0.59187  -2.14245 
 H                    -0.92317  -0.83157  -1.87596 
 H                    -2.60513   1.79947   0.88296 
 H                    -3.30074   2.66229  -1.46578 
 H                    -3.33192   0.95869  -1.95329 
 H                    -1.81305   1.70937  -1.44239 
 H                    -4.84854   0.95183   1.48842 
 H                    -5.21819   0.67095  -0.21947 
 H                    -5.04627   2.32469   0.39141 
 H                    -3.66415  -1.45208   2.04136 
 

 GradGradGradGradGradGradGradGradGradGradGradGradGradGradGradGradGradGrad
 Berny optimization.
 Initialization pass.
                           ----------------------------
                           !    Initial Parameters    !
                           ! (Angstroms and Degrees)  !
 --------------------------                            --------------------------
 ! Name  Definition              Value          Derivative Info.                !
 --------------------------------------------------------------------------------
 ! R1    R(1,2)                  1.5376         estimate D2E/DX2                !
 ! R2    R(1,14)                 1.0069         estimate D2E/DX2                !
 ! R3    R(2,3)                  1.8136         estimate D2E/DX2                !
 ! R4    R(2,10)                 1.8558         estimate D2E/DX2                !
 ! R5    R(2,13)                 1.5386         estimate D2E/DX2                !
 ! R6    R(3,4)                  1.3821         estimate D2E/DX2                !
 ! R7    R(3,9)                  1.3828         estimate D2E/DX2                !
 ! R8    R(4,5)                  1.3837         estimate D2E/DX2                !
 ! R9    R(4,15)                 1.0777         estimate D2E/DX2                !
 ! R10   R(5,6)                  1.3864         estimate D2E/DX2                !
 ! R11   R(5,16)                 1.0792         estimate D2E/DX2                !
 ! R12   R(6,7)                  1.9028         estimate D2E/DX2                !
 ! R13   R(6,8)                  1.386          estimate D2E/DX2                !
 ! R14   R(8,9)                  1.3839         estimate D2E/DX2                !
 ! R15   R(8,17)                 1.0792         estimate D2E/DX2                !
 ! R16   R(9,18)                 1.0796         estimate D2E/DX2                !
 ! R17   R(10,11)                1.512          estimate D2E/DX2                !
 ! R18   R(10,12)                1.5157         estimate D2E/DX2                !
 ! R19   R(10,19)                1.0919         estimate D2E/DX2                !
 ! R20   R(11,20)                1.0885         estimate D2E/DX2                !
 ! R21   R(11,21)                1.087          estimate D2E/DX2                !
 ! R22   R(11,22)                1.0878         estimate D2E/DX2                !
 ! R23   R(12,23)                1.0882         estimate D2E/DX2                !
 ! R24   R(12,24)                1.0878         estimate D2E/DX2                !
 ! R25   R(12,25)                1.0881         estimate D2E/DX2                !
 ! R26   R(13,26)                1.0068         estimate D2E/DX2                !
 ! A1    A(2,1,14)             114.0007         estimate D2E/DX2                !
 ! A2    A(1,2,3)              112.7254         estimate D2E/DX2                !
 ! A3    A(1,2,10)             102.7525         estimate D2E/DX2                !
 ! A4    A(1,2,13)             124.3955         estimate D2E/DX2                !
 ! A5    A(3,2,10)             100.1138         estimate D2E/DX2                !
 ! A6    A(3,2,13)             100.9766         estimate D2E/DX2                !
 ! A7    A(10,2,13)            113.5651         estimate D2E/DX2                !
 ! A8    A(2,3,4)              119.622          estimate D2E/DX2                !
 ! A9    A(2,3,9)              119.1406         estimate D2E/DX2                !
 ! A10   A(4,3,9)              121.2328         estimate D2E/DX2                !
 ! A11   A(3,4,5)              119.5523         estimate D2E/DX2                !
 ! A12   A(3,4,15)             118.8574         estimate D2E/DX2                !
 ! A13   A(5,4,15)             121.5755         estimate D2E/DX2                !
 ! A14   A(4,5,6)              118.9662         estimate D2E/DX2                !
 ! A15   A(4,5,16)             120.794          estimate D2E/DX2                !
 ! A16   A(6,5,16)             120.2397         estimate D2E/DX2                !
 ! A17   A(5,6,7)              119.1533         estimate D2E/DX2                !
 ! A18   A(5,6,8)              121.7384         estimate D2E/DX2                !
 ! A19   A(7,6,8)              119.1079         estimate D2E/DX2                !
 ! A20   A(6,8,9)              118.7786         estimate D2E/DX2                !
 ! A21   A(6,8,17)             120.3525         estimate D2E/DX2                !
 ! A22   A(9,8,17)             120.8687         estimate D2E/DX2                !
 ! A23   A(3,9,8)              119.7261         estimate D2E/DX2                !
 ! A24   A(3,9,18)             118.9748         estimate D2E/DX2                !
 ! A25   A(8,9,18)             121.2971         estimate D2E/DX2                !
 ! A26   A(2,10,11)            108.893          estimate D2E/DX2                !
 ! A27   A(2,10,12)            106.6324         estimate D2E/DX2                !
 ! A28   A(2,10,19)            104.6546         estimate D2E/DX2                !
 ! A29   A(11,10,12)           112.8713         estimate D2E/DX2                !
 ! A30   A(11,10,19)           112.1281         estimate D2E/DX2                !
 ! A31   A(12,10,19)           111.1501         estimate D2E/DX2                !
 ! A32   A(10,11,20)           110.5022         estimate D2E/DX2                !
 ! A33   A(10,11,21)           108.6518         estimate D2E/DX2                !
 ! A34   A(10,11,22)           111.0612         estimate D2E/DX2                !
 ! A35   A(20,11,21)           109.1068         estimate D2E/DX2                !
 ! A36   A(20,11,22)           108.563          estimate D2E/DX2                !
 ! A37   A(21,11,22)           108.9202         estimate D2E/DX2                !
 ! A38   A(10,12,23)           110.2076         estimate D2E/DX2                !
 ! A39   A(10,12,24)           109.2022         estimate D2E/DX2                !
 ! A40   A(10,12,25)           110.8562         estimate D2E/DX2                !
 ! A41   A(23,12,24)           108.8538         estimate D2E/DX2                !
 ! A42   A(23,12,25)           108.6951         estimate D2E/DX2                !
 ! A43   A(24,12,25)           108.9888         estimate D2E/DX2                !
 ! A44   A(2,13,26)            114.2177         estimate D2E/DX2                !
 ! D1    D(14,1,2,3)            91.5597         estimate D2E/DX2                !
 ! D2    D(14,1,2,10)         -161.583          estimate D2E/DX2                !
 ! D3    D(14,1,2,13)          -30.9135         estimate D2E/DX2                !
 ! D4    D(1,2,3,4)           -165.5682         estimate D2E/DX2                !
 ! D5    D(1,2,3,9)             13.6587         estimate D2E/DX2                !
 ! D6    D(10,2,3,4)            85.9016         estimate D2E/DX2                !
 ! D7    D(10,2,3,9)           -94.8715         estimate D2E/DX2                !
 ! D8    D(13,2,3,4)           -30.7309         estimate D2E/DX2                !
 ! D9    D(13,2,3,9)           148.496          estimate D2E/DX2                !
 ! D10   D(1,2,10,11)          -49.9534         estimate D2E/DX2                !
 ! D11   D(1,2,10,12)           72.1175         estimate D2E/DX2                !
 ! D12   D(1,2,10,19)         -170.0203         estimate D2E/DX2                !
 ! D13   D(3,2,10,11)           66.3233         estimate D2E/DX2                !
 ! D14   D(3,2,10,12)         -171.6058         estimate D2E/DX2                !
 ! D15   D(3,2,10,19)          -53.7436         estimate D2E/DX2                !
 ! D16   D(13,2,10,11)         173.1101         estimate D2E/DX2                !
 ! D17   D(13,2,10,12)         -64.819          estimate D2E/DX2                !
 ! D18   D(13,2,10,19)          53.0432         estimate D2E/DX2                !
 ! D19   D(1,2,13,26)          -34.5145         estimate D2E/DX2                !
 ! D20   D(3,2,13,26)         -162.0806         estimate D2E/DX2                !
 ! D21   D(10,2,13,26)          91.6742         estimate D2E/DX2                !
 ! D22   D(2,3,4,5)            179.8975         estimate D2E/DX2                !
 ! D23   D(2,3,4,15)             1.2733         estimate D2E/DX2                !
 ! D24   D(9,3,4,5)              0.6873         estimate D2E/DX2                !
 ! D25   D(9,3,4,15)          -177.937          estimate D2E/DX2                !
 ! D26   D(2,3,9,8)           -179.9727         estimate D2E/DX2                !
 ! D27   D(2,3,9,18)            -0.4743         estimate D2E/DX2                !
 ! D28   D(4,3,9,8)             -0.7587         estimate D2E/DX2                !
 ! D29   D(4,3,9,18)           178.7397         estimate D2E/DX2                !
 ! D30   D(3,4,5,6)             -0.0517         estimate D2E/DX2                !
 ! D31   D(3,4,5,16)          -179.9156         estimate D2E/DX2                !
 ! D32   D(15,4,5,6)           178.534          estimate D2E/DX2                !
 ! D33   D(15,4,5,16)           -1.3299         estimate D2E/DX2                !
 ! D34   D(4,5,6,7)            179.7377         estimate D2E/DX2                !
 ! D35   D(4,5,6,8)             -0.5152         estimate D2E/DX2                !
 ! D36   D(16,5,6,7)            -0.3976         estimate D2E/DX2                !
 ! D37   D(16,5,6,8)           179.3495         estimate D2E/DX2                !
 ! D38   D(5,6,8,9)              0.445          estimate D2E/DX2                !
 ! D39   D(5,6,8,17)          -179.3984         estimate D2E/DX2                !
 ! D40   D(7,6,8,9)           -179.8077         estimate D2E/DX2                !
 ! D41   D(7,6,8,17)             0.3489         estimate D2E/DX2                !
 ! D42   D(6,8,9,3)              0.1904         estimate D2E/DX2                !
 ! D43   D(6,8,9,18)          -179.2961         estimate D2E/DX2                !
 ! D44   D(17,8,9,3)          -179.9671         estimate D2E/DX2                !
 ! D45   D(17,8,9,18)            0.5465         estimate D2E/DX2                !
 ! D46   D(2,10,11,20)         172.4147         estimate D2E/DX2                !
 ! D47   D(2,10,11,21)          52.7413         estimate D2E/DX2                !
 ! D48   D(2,10,11,22)         -67.0411         estimate D2E/DX2                !
 ! D49   D(12,10,11,20)         54.2044         estimate D2E/DX2                !
 ! D50   D(12,10,11,21)        -65.469          estimate D2E/DX2                !
 ! D51   D(12,10,11,22)        174.7486         estimate D2E/DX2                !
 ! D52   D(19,10,11,20)        -72.2558         estimate D2E/DX2                !
 ! D53   D(19,10,11,21)        168.0708         estimate D2E/DX2                !
 ! D54   D(19,10,11,22)         48.2884         estimate D2E/DX2                !
 ! D55   D(2,10,12,23)          58.2492         estimate D2E/DX2                !
 ! D56   D(2,10,12,24)         -61.2777         estimate D2E/DX2                !
 ! D57   D(2,10,12,25)         178.6295         estimate D2E/DX2                !
 ! D58   D(11,10,12,23)        177.7732         estimate D2E/DX2                !
 ! D59   D(11,10,12,24)         58.2463         estimate D2E/DX2                !
 ! D60   D(11,10,12,25)        -61.8465         estimate D2E/DX2                !
 ! D61   D(19,10,12,23)        -55.2464         estimate D2E/DX2                !
 ! D62   D(19,10,12,24)       -174.7733         estimate D2E/DX2                !
 ! D63   D(19,10,12,25)         65.1339         estimate D2E/DX2                !
 --------------------------------------------------------------------------------
 Trust Radius=3.00D-01 FncErr=1.00D-07 GrdErr=1.00D-06 EigMax=2.50D+02 EigMin=1.00D-04
 Number of steps in this run=    143 maximum allowed number of steps=    156.
 GradGradGradGradGradGradGradGradGradGradGradGradGradGradGradGradGradGrad

                          Input orientation:                          
 ---------------------------------------------------------------------
 Center     Atomic      Atomic             Coordinates (Angstroms)
 Number     Number       Type             X           Y           Z
 ---------------------------------------------------------------------
      1          7           0       -3.320890   -1.218156   -0.842006
      2         16           0       -2.673235   -0.522248    0.366524
      3          6           0       -0.876142   -0.348841    0.194994
      4          6           0       -0.112467   -0.024958    1.300499
      5          6           0        1.258828    0.104897    1.168430
      6          6           0        1.835411   -0.095369   -0.076341
      7         35           0        3.719794    0.089238   -0.265594
      8          6           0        1.076103   -0.431654   -1.185958
      9          6           0       -0.294237   -0.560189   -1.041464
     10          6           0       -3.193529    1.245774    0.148483
     11          6           0       -2.886239    1.675396   -1.268276
     12          6           0       -4.672453    1.306172    0.474724
     13          7           0       -2.782217   -1.020984    1.817934
     14          1           0       -3.398286   -2.217501   -0.746162
     15          1           0       -0.601880    0.098485    2.252690
     16          1           0        1.874442    0.355817    2.018529
     17          1           0        1.549452   -0.591867   -2.142446
     18          1           0       -0.923174   -0.831573   -1.875963
     19          1           0       -2.605129    1.799473    0.882963
     20          1           0       -3.300739    2.662285   -1.465776
     21          1           0       -3.331923    0.958688   -1.953292
     22          1           0       -1.813048    1.709373   -1.442386
     23          1           0       -4.848536    0.951826    1.488417
     24          1           0       -5.218189    0.670954   -0.219466
     25          1           0       -5.046271    2.324687    0.391408
     26          1           0       -3.664147   -1.452081    2.041355
 ---------------------------------------------------------------------
                    Distance matrix (angstroms):
                    1          2          3          4          5
     1  N    0.000000
     2  S    1.537625   0.000000
     3  C    2.794257   1.813570   0.000000
     4  C    4.038320   2.770765   1.382115   0.000000
     5  C    5.173600   4.061708   2.389885   1.383746   0.000000
     6  C    5.332385   4.550411   2.736858   2.386394   1.386365
     7  Br   7.184202   6.453240   4.639686   4.141487   2.848338
     8  C    4.480004   4.059056   2.392728   2.785780   2.421656
     9  C    3.103760   2.764688   1.382791   2.409213   2.781723
    10  C    2.658616   1.855842   2.813405   3.526308   4.708012
    11  C    2.956902   2.747286   3.206117   4.145313   5.058219
    12  C    3.151623   2.711402   4.150819   4.821544   6.091337
    13  N    2.721090   1.538573   2.592071   2.896096   4.244939
    14  H    1.006910   2.153521   3.277023   4.448896   5.545079
    15  H    4.324778   2.869397   2.123543   1.077697   2.153577
    16  H    6.136084   4.917467   3.374542   2.146710   1.079171
    17  H    5.079725   4.912317   3.377305   3.864871   3.395856
    18  H    2.639613   2.861319   2.126995   3.376061   3.860886
    19  H    3.548790   2.379440   2.842174   3.117090   4.228858
    20  H    3.930307   3.727242   4.207578   5.003862   5.853967
    21  H    2.444121   2.829945   3.515057   4.681839   5.616859
    22  H    3.347307   2.998701   2.791962   3.663782   4.339024
    23  H    3.531769   2.857179   4.375453   4.839397   6.174105
    24  H    2.748824   2.871221   4.479412   5.372428   6.648189
    25  H    4.129163   3.706340   4.957450   5.539828   6.729450
    26  H    2.913129   2.156747   3.521244   3.898715   5.236589
                    6          7          8          9         10
     6  C    0.000000
     7  Br   1.902839   0.000000
     8  C    1.385961   2.847367   0.000000
     9  C    2.383889   4.139587   1.383919   0.000000
    10  C    5.209554   7.021615   4.777474   3.617094   0.000000
    11  C    5.181727   6.867382   4.488495   3.430416   1.512021
    12  C    6.679842   8.512274   6.230875   4.995088   1.515684
    13  N    5.076173   6.917357   4.925171   3.818185   2.845073
    14  H    5.687152   7.497937   4.837647   3.531148   3.582819
    15  H    3.376737   5.001871   3.862768   3.373418   3.529959
    16  H    2.143262   2.948493   3.395025   3.860802   5.474799
    17  H    2.144079   2.949044   1.079164   2.147639   5.578633
    18  H    3.374971   4.999833   2.152475   1.079629   3.683513
    19  H    4.922305   6.651973   4.775964   3.822518   1.091905
    20  H    5.992932   7.572905   5.367262   4.427576   2.150309
    21  H    5.597797   7.302806   4.685354   3.516525   2.125801
    22  H    4.293534   5.884048   3.605128   2.760151   2.156737
    23  H    6.944079   8.788452   6.645874   5.424769   2.149623
    24  H    7.096550   8.957012   6.462814   5.141662   2.136599
    25  H    7.309789   9.070435   6.897026   5.740858   2.157711
    26  H    6.047350   7.887983   5.824671   4.653552   3.329095
                   11         12         13         14         15
    11  C    0.000000
    12  C    2.522882   0.000000
    13  N    4.099510   3.285250   0.000000
    14  H    3.960991   3.940855   2.895822   0.000000
    15  H    4.483542   4.603177   2.489195   4.709224   0.000000
    16  H    5.933671   6.793257   4.860071   6.485919   2.500644
    17  H    5.057668   7.011721   5.884905   5.391883   4.941865
    18  H    3.241574   4.914548   4.139662   3.053429   4.244292
    19  H    2.173073   2.164216   2.976661   4.406725   2.963532
    20  H    1.088470   2.736089   4.961662   4.933526   5.261550
    21  H    1.086993   2.795179   4.294581   3.398492   5.087571
    22  H    1.087753   3.466133   4.361631   4.291626   4.208976
    23  H    3.460277   1.088183   2.875802   4.140194   4.398453
    24  H    2.747162   1.087764   3.598280   3.454363   5.267788
    25  H    2.800333   1.088142   4.284208   4.964010   5.307821
    26  H    4.619514   3.328510   1.006758   2.902896   3.438953
                   16         17         18         19         20
    16  H    0.000000
    17  H    4.279887   0.000000
    18  H    4.940002   2.498469   0.000000
    19  H    4.841509   5.668522   4.166899   0.000000
    20  H    6.651517   5.879774   4.245953   2.597093   0.000000
    21  H    6.576097   5.125214   3.002180   3.046226   1.772255
    22  H    5.235230   4.134271   2.726953   2.458202   1.766865
    23  H    6.770131   7.516675   5.468824   2.473450   3.748147
    24  H    7.444014   7.147974   4.842388   3.052374   3.032376
    25  H    7.377007   7.643969   5.665940   2.544926   2.570990
    26  H    5.826233   6.739865   4.821136   3.610539   5.418491
                   21         22         23         24         25
    21  H    0.000000
    22  H    1.769614   0.000000
    23  H    3.761054   4.286918   0.000000
    24  H    2.578167   3.764151   1.769858   0.000000
    25  H    3.209760   3.767644   1.768411   1.771315   0.000000
    26  H    4.677541   5.055473   2.736290   3.468953   4.347018
                   26
    26  H    0.000000
 Stoichiometry    C9H13BrN2S
 Framework group  C1[X(C9H13BrN2S)]
 Deg. of freedom    72
 Full point group                 C1      NOp   1
 Largest Abelian subgroup         C1      NOp   1
 Largest concise Abelian subgroup C1      NOp   1
                         Standard orientation:                         
 ---------------------------------------------------------------------
 Center     Atomic      Atomic             Coordinates (Angstroms)
 Number     Number       Type             X           Y           Z
 ---------------------------------------------------------------------
      1          7           0        2.971573    0.208061    1.665807
      2         16           0        2.415998   -0.502515    0.420532
      3          6           0        0.618154   -0.328174    0.258063
      4          6           0       -0.070477   -1.142454   -0.621127
      5          6           0       -1.442488   -1.009653   -0.742381
      6          6           0       -2.095502   -0.058473    0.026281
      7         35           0       -3.981128    0.133834   -0.141734
      8          6           0       -1.411843    0.752917    0.917989
      9          6           0       -0.040029    0.610049    1.031783
     10          6           0        2.976660    0.598895   -0.963920
     11          6           0        2.601723    2.026573   -0.636256
     12          6           0        4.473042    0.398892   -1.098593
     13          7           0        2.592928   -2.001827    0.123940
     14          1           0        3.023791   -0.378220    2.482762
     15          1           0        0.476390   -1.883487   -1.180803
     16          1           0       -2.000280   -1.635832   -1.421630
     17          1           0       -1.944049    1.479568    1.512404
     18          1           0        0.531327    1.212875    1.721530
     19          1           0        2.448629    0.226657   -1.844193
     20          1           0        3.034137    2.710890   -1.363920
     21          1           0        2.985205    2.268738    0.351596
     22          1           0        1.521840    2.157178   -0.637167
     23          1           0        4.696184   -0.647898   -1.295012
     24          1           0        4.958325    0.693661   -0.170778
     25          1           0        4.872387    0.999481   -1.913375
     26          1           0        3.472661   -2.382648    0.431522
 ---------------------------------------------------------------------
 Rotational constants (GHZ):           1.5088877           0.2071878           0.2022814
 Standard basis: def2SVP (5D, 7F)
 There are   284 symmetry adapted cartesian basis functions of A   symmetry.
 There are   269 symmetry adapted basis functions of A   symmetry.
   269 basis functions,   483 primitive gaussians,   284 cartesian basis functions
    66 alpha electrons       66 beta electrons
       nuclear repulsion energy      1214.3645210229 Hartrees.
 NAtoms=   26 NActive=   26 NUniq=   26 SFac= 1.00D+00 NAtFMM=   60 NAOKFM=F Big=F
 Integral buffers will be    131072 words long.
 Raffenetti 2 integral format.
 Two-electron integral symmetry is turned on.
 Nuclear repulsion after empirical dispersion term =     1214.3322394979 Hartrees.
 One-electron integrals computed using PRISM.
   1 Symmetry operations used in ECPInt.
 ECPInt:  NShTT=    7875 NPrTT=   30380 LenC2=    7398 LenP2D=   20835.
 LDataN:  DoStor=T MaxTD1= 4 Len=   56
 NBasis=   269 RedAO= T EigKep=  2.52D-04  NBF=   269
 NBsUse=   269 1.00D-06 EigRej= -1.00D+00 NBFU=   269
 ExpMin= 1.22D-01 ExpMax= 1.13D+05 ExpMxC= 1.70D+04 IAcc=3 IRadAn=         5 AccDes= 0.00D+00
 Harris functional with IExCor= 1009 and IRadAn=       5 diagonalized for initial guess.
 HarFok:  IExCor= 1009 AccDes= 0.00D+00 IRadAn=         5 IDoV= 1 UseB2=F ITyADJ=14
 ICtDFT=  3500011 ScaDFX=  1.000000  1.000000  1.000000  1.000000
 FoFCou: FMM=F IPFlag=           0 FMFlag=      100000 FMFlg1=           0
         NFxFlg=           0 DoJE=T BraDBF=F KetDBF=T FulRan=T
         wScrn=  0.000000 ICntrl=       500 IOpCl=  0 I1Cent=   200000004 NGrid=           0
         NMat0=    1 NMatS0=      1 NMatT0=    0 NMatD0=    1 NMtDS0=    0 NMtDT0=    0
 Petite list used in FoFCou.
 Requested convergence on RMS density matrix=1.00D-08 within 128 cycles.
 Requested convergence on MAX density matrix=1.00D-06.
 Requested convergence on             energy=1.00D-06.
 No special actions if energy rises.
 Integral accuracy reduced to 1.0D-05 until final iterations.
 Initial convergence to 1.0D-05 achieved.  Increase integral accuracy.
 SCF Done:  E(RPBE1PBE) =  -3430.79037430     A.U. after   14 cycles
            NFock= 14  Conv=0.76D-08     -V/T= 2.0023

 **********************************************************************

            Population analysis using the SCF Density.

 **********************************************************************

 Orbital symmetries:
       Occupied  (A) (A) (A) (A) (A) (A) (A) (A) (A) (A) (A) (A)
                 (A) (A) (A) (A) (A) (A) (A) (A) (A) (A) (A) (A)
                 (A) (A) (A) (A) (A) (A) (A) (A) (A) (A) (A) (A)
                 (A) (A) (A) (A) (A) (A) (A) (A) (A) (A) (A) (A)
                 (A) (A) (A) (A) (A) (A) (A) (A) (A) (A) (A) (A)
                 (A) (A) (A) (A) (A) (A)
       Virtual   (A) (A) (A) (A) (A) (A) (A) (A) (A) (A) (A) (A)
                 (A) (A) (A) (A) (A) (A) (A) (A) (A) (A) (A) (A)
                 (A) (A) (A) (A) (A) (A) (A) (A) (A) (A) (A) (A)
                 (A) (A) (A) (A) (A) (A) (A) (A) (A) (A) (A) (A)
                 (A) (A) (A) (A) (A) (A) (A) (A) (A) (A) (A) (A)
                 (A) (A) (A) (A) (A) (A) (A) (A) (A) (A) (A) (A)
                 (A) (A) (A) (A) (A) (A) (A) (A) (A) (A) (A) (A)
                 (A) (A) (A) (A) (A) (A) (A) (A) (A) (A) (A) (A)
                 (A) (A) (A) (A) (A) (A) (A) (A) (A) (A) (A) (A)
                 (A) (A) (A) (A) (A) (A) (A) (A) (A) (A) (A) (A)
                 (A) (A) (A) (A) (A) (A) (A) (A) (A) (A) (A) (A)
                 (A) (A) (A) (A) (A) (A) (A) (A) (A) (A) (A) (A)
                 (A) (A) (A) (A) (A) (A) (A) (A) (A) (A) (A) (A)
                 (A) (A) (A) (A) (A) (A) (A) (A) (A) (A) (A) (A)
                 (A) (A) (A) (A) (A) (A) (A) (A) (A) (A) (A) (A)
                 (A) (A) (A) (A) (A) (A) (A) (A) (A) (A) (A) (A)
                 (A) (A) (A) (A) (A) (A) (A) (A) (A) (A) (A)
 The electronic state is 1-A.
 Alpha  occ. eigenvalues -- -483.20016 -89.18007 -62.63389 -56.42383 -56.42032
 Alpha  occ. eigenvalues --  -56.42019 -14.35020 -14.34664 -10.30552 -10.27041
 Alpha  occ. eigenvalues --  -10.26836 -10.26206 -10.26147 -10.26056 -10.25924
 Alpha  occ. eigenvalues --  -10.23440 -10.22933  -8.78001  -8.15466  -6.59483
 Alpha  occ. eigenvalues --   -6.58202  -6.58165  -6.09612  -6.09512  -6.09431
 Alpha  occ. eigenvalues --   -2.68038  -2.67671  -2.67643  -2.66614  -2.66614
 Alpha  occ. eigenvalues --   -1.00755  -0.91403  -0.85585  -0.83938  -0.82844
 Alpha  occ. eigenvalues --   -0.79187  -0.76447  -0.71422  -0.68530  -0.65243
 Alpha  occ. eigenvalues --   -0.62371  -0.59288  -0.55980  -0.53081  -0.50430
 Alpha  occ. eigenvalues --   -0.48762  -0.48278  -0.47865  -0.46372  -0.46157
 Alpha  occ. eigenvalues --   -0.43140  -0.42079  -0.40891  -0.39981  -0.38945
 Alpha  occ. eigenvalues --   -0.38476  -0.36911  -0.36739  -0.34875  -0.33835
 Alpha  occ. eigenvalues --   -0.30741  -0.29259  -0.27339  -0.26730  -0.25919
 Alpha  occ. eigenvalues --   -0.24219
 Alpha virt. eigenvalues --   -0.03723  -0.02603   0.00634   0.06245   0.06738
 Alpha virt. eigenvalues --    0.08093   0.08537   0.10346   0.10540   0.10761
 Alpha virt. eigenvalues --    0.11827   0.12979   0.13277   0.14218   0.14715
 Alpha virt. eigenvalues --    0.15744   0.17100   0.17208   0.18092   0.19230
 Alpha virt. eigenvalues --    0.20145   0.21473   0.24715   0.25198   0.27167
 Alpha virt. eigenvalues --    0.29508   0.30908   0.32857   0.35814   0.39305
 Alpha virt. eigenvalues --    0.40082   0.40970   0.41989   0.42801   0.43306
 Alpha virt. eigenvalues --    0.44202   0.45742   0.46359   0.47017   0.47383
 Alpha virt. eigenvalues --    0.49561   0.50699   0.50831   0.52074   0.52886
 Alpha virt. eigenvalues --    0.53438   0.53930   0.56110   0.57953   0.58377
 Alpha virt. eigenvalues --    0.60466   0.61855   0.62196   0.62758   0.63392
 Alpha virt. eigenvalues --    0.64041   0.65166   0.66228   0.66397   0.67003
 Alpha virt. eigenvalues --    0.67422   0.68031   0.68710   0.69256   0.70647
 Alpha virt. eigenvalues --    0.70876   0.71295   0.71607   0.72256   0.72642
 Alpha virt. eigenvalues --    0.73899   0.74382   0.75357   0.76721   0.77483
 Alpha virt. eigenvalues --    0.78039   0.79075   0.81160   0.82880   0.85133
 Alpha virt. eigenvalues --    0.85533   0.87114   0.90461   0.91057   0.92086
 Alpha virt. eigenvalues --    0.94880   0.96104   0.97117   0.99594   1.02237
 Alpha virt. eigenvalues --    1.03136   1.06803   1.09326   1.10827   1.12546
 Alpha virt. eigenvalues --    1.13400   1.15300   1.16866   1.18748   1.21632
 Alpha virt. eigenvalues --    1.22545   1.23547   1.24165   1.26689   1.28590
 Alpha virt. eigenvalues --    1.30404   1.30776   1.33294   1.35550   1.41935
 Alpha virt. eigenvalues --    1.45917   1.47196   1.48577   1.51883   1.53506
 Alpha virt. eigenvalues --    1.53965   1.55546   1.57920   1.58660   1.61407
 Alpha virt. eigenvalues --    1.68295   1.68887   1.71372   1.73096   1.73987
 Alpha virt. eigenvalues --    1.75140   1.76368   1.76967   1.78765   1.79077
 Alpha virt. eigenvalues --    1.79902   1.82192   1.82939   1.84118   1.84765
 Alpha virt. eigenvalues --    1.85416   1.86524   1.89830   1.91742   1.92952
 Alpha virt. eigenvalues --    1.93863   1.95425   1.97635   1.98400   2.00192
 Alpha virt. eigenvalues --    2.03907   2.08148   2.11122   2.12632   2.15079
 Alpha virt. eigenvalues --    2.16013   2.16145   2.18604   2.21755   2.24167
 Alpha virt. eigenvalues --    2.27429   2.27846   2.28848   2.29431   2.29958
 Alpha virt. eigenvalues --    2.35171   2.35938   2.36299   2.39550   2.41274
 Alpha virt. eigenvalues --    2.42987   2.44337   2.49926   2.50982   2.54819
 Alpha virt. eigenvalues --    2.57575   2.57996   2.59591   2.61847   2.62974
 Alpha virt. eigenvalues --    2.64274   2.65205   2.65789   2.65936   2.74176
 Alpha virt. eigenvalues --    2.77213   2.78828   2.86634   2.87339   2.88038
 Alpha virt. eigenvalues --    2.90022   2.91542   2.92727   2.95210   2.96212
 Alpha virt. eigenvalues --    3.02564   3.05044   3.08738   3.09731   3.20223
 Alpha virt. eigenvalues --    3.28531   3.32938   3.44797   3.48454   3.52813
 Alpha virt. eigenvalues --    3.56438   3.65013   3.84572
          Condensed to atoms (all electrons):
               1          2          3          4          5          6
     1  N    6.853225   0.360994  -0.067328   0.004291   0.000022  -0.000045
     2  S    0.360994  14.757345   0.136855  -0.037042   0.001737   0.000580
     3  C   -0.067328   0.136855   5.845134   0.223462   0.104702  -0.211768
     4  C    0.004291  -0.037042   0.223462   5.045532   0.283567   0.117669
     5  C    0.000022   0.001737   0.104702   0.283567   5.074371   0.241856
     6  C   -0.000045   0.000580  -0.211768   0.117669   0.241856   5.424211
     7  Br   0.000000   0.000005   0.001423   0.002342  -0.062204   0.233431
     8  C    0.001524   0.003648   0.103675  -0.123695   0.067175   0.243279
     9  C    0.008016  -0.049140   0.247387   0.054512  -0.130636   0.122354
    10  C   -0.106436   0.224980  -0.118338  -0.007545  -0.000326  -0.000103
    11  C   -0.006206  -0.051049  -0.006725   0.002155  -0.000035   0.000007
    12  C   -0.004340  -0.056365   0.010424  -0.000070  -0.000003   0.000002
    13  N   -0.036638   0.363086  -0.091329  -0.001980   0.001570  -0.000073
    14  H    0.329994  -0.012154  -0.002029  -0.000201  -0.000027   0.000003
    15  H    0.000408  -0.011413  -0.066824   0.447999  -0.059616   0.014254
    16  H    0.000001  -0.000132   0.015821  -0.058524   0.447419  -0.070570
    17  H   -0.000003  -0.000148   0.016050  -0.001859   0.013713  -0.070337
    18  H    0.025580  -0.007948  -0.073011   0.013634  -0.002203   0.014215
    19  H    0.005073  -0.019044   0.002414   0.004309   0.000243   0.000020
    20  H    0.000221   0.004906  -0.000571  -0.000064  -0.000008  -0.000004
    21  H    0.027222  -0.007992  -0.000425  -0.000186  -0.000004   0.000006
    22  H   -0.001194  -0.002783   0.004365  -0.000356   0.000083  -0.000015
    23  H    0.000347   0.000697   0.000118   0.000156   0.000005   0.000000
    24  H    0.022715  -0.005954   0.000939  -0.000028   0.000000   0.000000
    25  H   -0.000020   0.005351  -0.000142  -0.000020   0.000000   0.000000
    26  H   -0.001947  -0.015919   0.010574  -0.000464  -0.000030   0.000007
               7          8          9         10         11         12
     1  N    0.000000   0.001524   0.008016  -0.106436  -0.006206  -0.004340
     2  S    0.000005   0.003648  -0.049140   0.224980  -0.051049  -0.056365
     3  C    0.001423   0.103675   0.247387  -0.118338  -0.006725   0.010424
     4  C    0.002342  -0.123695   0.054512  -0.007545   0.002155  -0.000070
     5  C   -0.062204   0.067175  -0.130636  -0.000326  -0.000035  -0.000003
     6  C    0.233431   0.243279   0.122354  -0.000103   0.000007   0.000002
     7  Br  34.911093  -0.062694   0.002534  -0.000000  -0.000000   0.000000
     8  C   -0.062694   5.061042   0.279318  -0.000590   0.000039  -0.000001
     9  C    0.002534   0.279318   5.066229  -0.004832   0.002695  -0.000104
    10  C   -0.000000  -0.000590  -0.004832   5.483145   0.277990   0.322529
    11  C   -0.000000   0.000039   0.002695   0.277990   4.710537  -0.041771
    12  C    0.000000  -0.000001  -0.000104   0.322529  -0.041771   4.620990
    13  N   -0.000000  -0.000083   0.003808  -0.050077   0.004759  -0.004662
    14  H   -0.000000  -0.000109  -0.000365   0.010179  -0.000952  -0.000553
    15  H   -0.000149  -0.001905   0.013189   0.000558   0.000146  -0.000225
    16  H   -0.000313   0.013777  -0.001850   0.000017   0.000001  -0.000000
    17  H   -0.000221   0.450360  -0.061731   0.000014  -0.000012  -0.000000
    18  H   -0.000158  -0.055883   0.440503  -0.000402   0.001262  -0.000080
    19  H    0.000000  -0.000013  -0.000343   0.351371  -0.023261  -0.017598
    20  H    0.000000   0.000024  -0.000003  -0.006965   0.371366  -0.009183
    21  H    0.000000   0.000177   0.000695  -0.027143   0.395789  -0.004603
    22  H    0.000001  -0.000252   0.003704  -0.021525   0.392880   0.007672
    23  H    0.000000   0.000001  -0.000004  -0.038885   0.012692   0.380599
    24  H   -0.000000  -0.000000   0.000004  -0.032582  -0.009536   0.398768
    25  H   -0.000000  -0.000000  -0.000009  -0.015522  -0.007420   0.398774
    26  H    0.000000  -0.000010  -0.000228  -0.005831  -0.000210   0.002662
              13         14         15         16         17         18
     1  N   -0.036638   0.329994   0.000408   0.000001  -0.000003   0.025580
     2  S    0.363086  -0.012154  -0.011413  -0.000132  -0.000148  -0.007948
     3  C   -0.091329  -0.002029  -0.066824   0.015821   0.016050  -0.073011
     4  C   -0.001980  -0.000201   0.447999  -0.058524  -0.001859   0.013634
     5  C    0.001570  -0.000027  -0.059616   0.447419   0.013713  -0.002203
     6  C   -0.000073   0.000003   0.014254  -0.070570  -0.070337   0.014215
     7  Br  -0.000000  -0.000000  -0.000149  -0.000313  -0.000221  -0.000158
     8  C   -0.000083  -0.000109  -0.001905   0.013777   0.450360  -0.055883
     9  C    0.003808  -0.000365   0.013189  -0.001850  -0.061731   0.440503
    10  C   -0.050077   0.010179   0.000558   0.000017   0.000014  -0.000402
    11  C    0.004759  -0.000952   0.000146   0.000001  -0.000012   0.001262
    12  C   -0.004662  -0.000553  -0.000225  -0.000000  -0.000000  -0.000080
    13  N    6.854758  -0.001825   0.025960  -0.000015   0.000002   0.000597
    14  H   -0.001825   0.551045  -0.000023   0.000000   0.000003  -0.000179
    15  H    0.025960  -0.000023   0.608370  -0.011087   0.000026  -0.000317
    16  H   -0.000015   0.000000  -0.011087   0.639316  -0.000240   0.000037
    17  H    0.000002   0.000003   0.000026  -0.000240   0.639633  -0.011021
    18  H    0.000597  -0.000179  -0.000317   0.000037  -0.011021   0.622997
    19  H    0.002901  -0.000342   0.001390  -0.000017  -0.000001  -0.000100
    20  H   -0.000095   0.000049  -0.000007   0.000000   0.000001   0.000141
    21  H    0.000165  -0.001036  -0.000020  -0.000000  -0.000004   0.000664
    22  H   -0.000026  -0.000015  -0.000047  -0.000004  -0.000001  -0.000313
    23  H    0.017376  -0.000339   0.000080  -0.000000  -0.000000  -0.000002
    24  H   -0.000698  -0.000907  -0.000005  -0.000000  -0.000000  -0.000017
    25  H   -0.000160   0.000031  -0.000001   0.000000   0.000000  -0.000000
    26  H    0.335904   0.002216  -0.000838  -0.000002  -0.000000  -0.000063
              19         20         21         22         23         24
     1  N    0.005073   0.000221   0.027222  -0.001194   0.000347   0.022715
     2  S   -0.019044   0.004906  -0.007992  -0.002783   0.000697  -0.005954
     3  C    0.002414  -0.000571  -0.000425   0.004365   0.000118   0.000939
     4  C    0.004309  -0.000064  -0.000186  -0.000356   0.000156  -0.000028
     5  C    0.000243  -0.000008  -0.000004   0.000083   0.000005   0.000000
     6  C    0.000020  -0.000004   0.000006  -0.000015   0.000000   0.000000
     7  Br   0.000000   0.000000   0.000000   0.000001   0.000000  -0.000000
     8  C   -0.000013   0.000024   0.000177  -0.000252   0.000001  -0.000000
     9  C   -0.000343  -0.000003   0.000695   0.003704  -0.000004   0.000004
    10  C    0.351371  -0.006965  -0.027143  -0.021525  -0.038885  -0.032582
    11  C   -0.023261   0.371366   0.395789   0.392880   0.012692  -0.009536
    12  C   -0.017598  -0.009183  -0.004603   0.007672   0.380599   0.398768
    13  N    0.002901  -0.000095   0.000165  -0.000026   0.017376  -0.000698
    14  H   -0.000342   0.000049  -0.001036  -0.000015  -0.000339  -0.000907
    15  H    0.001390  -0.000007  -0.000020  -0.000047   0.000080  -0.000005
    16  H   -0.000017   0.000000  -0.000000  -0.000004  -0.000000  -0.000000
    17  H   -0.000001   0.000001  -0.000004  -0.000001  -0.000000  -0.000000
    18  H   -0.000100   0.000141   0.000664  -0.000313  -0.000002  -0.000017
    19  H    0.633283  -0.005439   0.007279  -0.006913  -0.004753   0.008250
    20  H   -0.005439   0.630729  -0.014996  -0.018086  -0.000448  -0.001299
    21  H    0.007279  -0.014996   0.562612  -0.019163  -0.000224   0.006922
    22  H   -0.006913  -0.018086  -0.019163   0.606514  -0.000484   0.000062
    23  H   -0.004753  -0.000448  -0.000224  -0.000484   0.632892  -0.021254
    24  H    0.008250  -0.001299   0.006922   0.000062  -0.021254   0.594722
    25  H   -0.006437   0.004668  -0.000987   0.000181  -0.019794  -0.017903
    26  H   -0.000122  -0.000005   0.000016   0.000009   0.001288   0.000494
              25         26
     1  N   -0.000020  -0.001947
     2  S    0.005351  -0.015919
     3  C   -0.000142   0.010574
     4  C   -0.000020  -0.000464
     5  C    0.000000  -0.000030
     6  C    0.000000   0.000007
     7  Br  -0.000000   0.000000
     8  C   -0.000000  -0.000010
     9  C   -0.000009  -0.000228
    10  C   -0.015522  -0.005831
    11  C   -0.007420  -0.000210
    12  C    0.398774   0.002662
    13  N   -0.000160   0.335904
    14  H    0.000031   0.002216
    15  H   -0.000001  -0.000838
    16  H    0.000000  -0.000002
    17  H    0.000000  -0.000000
    18  H   -0.000000  -0.000063
    19  H   -0.006437  -0.000122
    20  H    0.004668  -0.000005
    21  H   -0.000987   0.000016
    22  H    0.000181   0.000009
    23  H   -0.019794   0.001288
    24  H   -0.017903   0.000494
    25  H    0.601575   0.000004
    26  H    0.000004   0.547382
 Mulliken charges:
               1
     1  N   -0.415477
     2  S    0.416898
     3  C   -0.084855
     4  C    0.032406
     5  C    0.018630
     6  C   -0.058979
     7  Br  -0.025090
     8  C    0.021198
     9  C    0.004294
    10  C   -0.233682
    11  C   -0.025143
    12  C   -0.002861
    13  N   -0.423226
    14  H    0.127536
    15  H    0.040097
    16  H    0.026365
    17  H    0.025776
    18  H    0.032065
    19  H    0.067849
    20  H    0.045066
    21  H    0.075238
    22  H    0.055708
    23  H    0.039940
    24  H    0.057306
    25  H    0.057831
    26  H    0.125111
 Sum of Mulliken charges =  -0.00000
 Mulliken charges with hydrogens summed into heavy atoms:
               1
     1  N   -0.287942
     2  S    0.416898
     3  C   -0.084855
     4  C    0.072502
     5  C    0.044995
     6  C   -0.058979
     7  Br  -0.025090
     8  C    0.046973
     9  C    0.036359
    10  C   -0.165833
    11  C    0.150869
    12  C    0.152216
    13  N   -0.298114
 Electronic spatial extent (au):  <R**2>=           5029.6527
 Charge=             -0.0000 electrons
 Dipole moment (field-independent basis, Debye):
    X=              0.9167    Y=              0.7465    Z=             -0.8470  Tot=              1.4543
 Quadrupole moment (field-independent basis, Debye-Ang):
   XX=            -96.3102   YY=            -99.5209   ZZ=            -94.3984
   XY=             -0.6991   XZ=             -3.0169   YZ=             -0.5149
 Traceless Quadrupole moment (field-independent basis, Debye-Ang):
   XX=              0.4330   YY=             -2.7778   ZZ=              2.3448
   XY=             -0.6991   XZ=             -3.0169   YZ=             -0.5149
 Octapole moment (field-independent basis, Debye-Ang**2):
  XXX=            -85.3402  YYY=             10.3498  ZZZ=              3.5433  XYY=            -38.8920
  XXY=            -10.3892  XXZ=            -13.0644  XZZ=            -30.9329  YZZ=             -3.7299
  YYZ=             -1.0602  XYZ=            -20.2438
 Hexadecapole moment (field-independent basis, Debye-Ang**3):
 XXXX=          -4531.8580 YYYY=           -672.6720 ZZZZ=           -456.1564 XXXY=            -98.9300
 XXXZ=             -7.1448 YYYX=            -19.3410 YYYZ=              0.6154 ZZZX=             40.0567
 ZZZY=             -9.5170 XXYY=           -864.2163 XXZZ=           -844.3507 YYZZ=           -179.5142
 XXYZ=            -46.1260 YYXZ=             13.4742 ZZXY=            -22.1914
 N-N= 1.214332239498D+03 E-N=-1.059040966106D+04  KE= 3.422932102731D+03
   1 Symmetry operations used in ECPInt.
 ECPInt:  NShTT=    7875 NPrTT=   30380 LenC2=    7398 LenP2D=   20835.
 LDataN:  DoStor=T MaxTD1= 5 Len=  102
 Calling FoFJK, ICntrl=      2127 FMM=F ISym2X=0 I1Cent= 0 IOpClX= 0 NMat=1 NMatS=1 NMatT=0.
 ***** Axes restored to original set *****
 -------------------------------------------------------------------
 Center     Atomic                   Forces (Hartrees/Bohr)
 Number     Number              X              Y              Z
 -------------------------------------------------------------------
      1        7          -0.006209155    0.014925481   -0.011681478
      2       16           0.004375943   -0.002001544    0.003336178
      3        6          -0.009798754   -0.000918392    0.001505831
      4        6           0.001565338    0.000694356    0.001350563
      5        6          -0.000308669    0.000524064   -0.000676691
      6        6           0.014797296    0.001250339   -0.002151124
      7       35          -0.005620861   -0.000587472    0.000595744
      8        6           0.000868197    0.000299751    0.001277624
      9        6          -0.003331211   -0.000388015   -0.000025224
     10        6          -0.007708269   -0.008491468   -0.010382899
     11        6           0.000669044   -0.000387016    0.006554076
     12        6           0.008715116   -0.003884584    0.000880834
     13        7           0.013561628    0.004125685    0.007892918
     14        1           0.004388547   -0.009987035    0.005132758
     15        1          -0.003653530    0.000825432    0.009520254
     16        1           0.004838868    0.001873974    0.006860557
     17        1           0.003650031   -0.001383986   -0.007553462
     18        1          -0.005759827   -0.002766140   -0.007859137
     19        1           0.004986809    0.000375308    0.005505101
     20        1          -0.002521102    0.008052961   -0.000815976
     21        1          -0.003641091   -0.004181160   -0.006505196
     22        1           0.007464402    0.001325945   -0.002937984
     23        1          -0.002680011   -0.002210670    0.007829304
     24        1          -0.005235251   -0.004219709   -0.005142335
     25        1          -0.001732822    0.007704463   -0.000346970
     26        1          -0.011680666   -0.000570569   -0.002163266
 -------------------------------------------------------------------
 Cartesian Forces:  Max     0.014925481 RMS     0.005729001

 GradGradGradGradGradGradGradGradGradGradGradGradGradGradGradGradGradGrad
 Berny optimization.
 FormGI is forming the generalized inverse of G from B-inverse, IUseBI=4.
 Internal  Forces:  Max     0.011592112 RMS     0.004097509
 Search for a local minimum.
 Step number   1 out of a maximum of  143
 All quantities printed in internal units (Hartrees-Bohrs-Radians)
 Mixed Optimization -- RFO/linear search
 Second derivative matrix not updated -- first step.
 ITU=  0
     Eigenvalues ---    0.00230   0.00230   0.00558   0.00607   0.01500
     Eigenvalues ---    0.02272   0.02279   0.02286   0.02290   0.02300
     Eigenvalues ---    0.02309   0.02315   0.02319   0.03432   0.03444
     Eigenvalues ---    0.03924   0.04444   0.05363   0.05740   0.05741
     Eigenvalues ---    0.05893   0.05960   0.06531   0.08695   0.09074
     Eigenvalues ---    0.15544   0.15972   0.15995   0.15999   0.16000
     Eigenvalues ---    0.16000   0.16000   0.16000   0.16000   0.16000
     Eigenvalues ---    0.16000   0.16000   0.16000   0.16000   0.16671
     Eigenvalues ---    0.18113   0.19095   0.22000   0.22169   0.22997
     Eigenvalues ---    0.23999   0.24998   0.25000   0.25076   0.30786
     Eigenvalues ---    0.31148   0.34593   0.34990   0.35024   0.35028
     Eigenvalues ---    0.35072   0.35074   0.35163   0.36039   0.36095
     Eigenvalues ---    0.36095   0.36274   0.43737   0.43845   0.46494
     Eigenvalues ---    0.46520   0.48066   0.48341   0.48408   0.48620
     Eigenvalues ---    0.65200   0.65453
 RFO step:  Lambda=-8.72107055D-03 EMin= 2.30000000D-03
 Linear search not attempted -- first point.
 Iteration  1 RMS(Cart)=  0.05343988 RMS(Int)=  0.00117550
 Iteration  2 RMS(Cart)=  0.00191234 RMS(Int)=  0.00021975
 Iteration  3 RMS(Cart)=  0.00000270 RMS(Int)=  0.00021975
 Iteration  4 RMS(Cart)=  0.00000000 RMS(Int)=  0.00021975
 Variable       Old X    -DE/DX   Delta X   Delta X   Delta X     New X
                                 (Linear)    (Quad)   (Total)
    R1        2.90569   0.00368   0.00000   0.00555   0.00555   2.91124
    R2        1.90278   0.01006   0.00000   0.02125   0.02125   1.92403
    R3        3.42715  -0.00305   0.00000  -0.01176  -0.01176   3.41539
    R4        3.50703  -0.00453   0.00000  -0.01968  -0.01968   3.48735
    R5        2.90748   0.00412   0.00000   0.00623   0.00623   2.91372
    R6        2.61182   0.01159   0.00000   0.02361   0.02361   2.63543
    R7        2.61310   0.00757   0.00000   0.01542   0.01542   2.62852
    R8        2.61490   0.00884   0.00000   0.01804   0.01804   2.63294
    R9        2.03655   0.01017   0.00000   0.02737   0.02737   2.06392
   R10        2.61985   0.00896   0.00000   0.01823   0.01823   2.63808
   R11        2.03934   0.00860   0.00000   0.02327   0.02327   2.06260
   R12        3.59584  -0.00568   0.00000  -0.02993  -0.02993   3.56591
   R13        2.61909   0.00830   0.00000   0.01673   0.01673   2.63582
   R14        2.61523   0.00956   0.00000   0.01929   0.01929   2.63451
   R15        2.03933   0.00850   0.00000   0.02300   0.02300   2.06232
   R16        2.04020   0.01013   0.00000   0.02743   0.02743   2.06763
   R17        2.85731   0.00524   0.00000   0.01636   0.01636   2.87367
   R18        2.86423   0.00150   0.00000   0.00474   0.00474   2.86897
   R19        2.06340   0.00658   0.00000   0.01855   0.01855   2.08196
   R20        2.05691   0.00841   0.00000   0.02345   0.02345   2.08036
   R21        2.05412   0.00835   0.00000   0.02317   0.02317   2.07729
   R22        2.05556   0.00788   0.00000   0.02191   0.02191   2.07747
   R23        2.05637   0.00845   0.00000   0.02353   0.02353   2.07990
   R24        2.05558   0.00837   0.00000   0.02329   0.02329   2.07887
   R25        2.05629   0.00783   0.00000   0.02182   0.02182   2.07811
   R26        1.90250   0.01000   0.00000   0.02109   0.02109   1.92359
    A1        1.98969  -0.01136   0.00000  -0.06735  -0.06735   1.92234
    A2        1.96743  -0.00174   0.00000  -0.00561  -0.00571   1.96172
    A3        1.79337  -0.00206   0.00000  -0.01705  -0.01697   1.77640
    A4        2.17111   0.00418   0.00000   0.02587   0.02549   2.19660
    A5        1.74732   0.00365   0.00000   0.01577   0.01589   1.76320
    A6        1.76237  -0.00013   0.00000   0.00782   0.00786   1.77024
    A7        1.98208  -0.00384   0.00000  -0.02772  -0.02764   1.95444
    A8        2.08780   0.00451   0.00000   0.01705   0.01704   2.10484
    A9        2.07940  -0.00551   0.00000  -0.02167  -0.02168   2.05772
   A10        2.11591   0.00099   0.00000   0.00454   0.00454   2.12045
   A11        2.08658  -0.00134   0.00000  -0.00504  -0.00504   2.08155
   A12        2.07445   0.00170   0.00000   0.00861   0.00860   2.08306
   A13        2.12189  -0.00037   0.00000  -0.00364  -0.00365   2.11824
   A14        2.07635   0.00061   0.00000   0.00272   0.00271   2.07906
   A15        2.10825  -0.00041   0.00000  -0.00198  -0.00199   2.10626
   A16        2.09858  -0.00020   0.00000  -0.00076  -0.00077   2.09780
   A17        2.07962   0.00007   0.00000   0.00059   0.00059   2.08020
   A18        2.12474  -0.00023   0.00000  -0.00151  -0.00151   2.12322
   A19        2.07882   0.00016   0.00000   0.00091   0.00091   2.07973
   A20        2.07308   0.00087   0.00000   0.00314   0.00313   2.07621
   A21        2.10055  -0.00033   0.00000  -0.00096  -0.00096   2.09959
   A22        2.10956  -0.00054   0.00000  -0.00218  -0.00218   2.10738
   A23        2.08961  -0.00091   0.00000  -0.00391  -0.00392   2.08569
   A24        2.07650   0.00060   0.00000   0.00278   0.00278   2.07928
   A25        2.11703   0.00031   0.00000   0.00109   0.00109   2.11813
   A26        1.90054   0.00707   0.00000   0.05546   0.05542   1.95596
   A27        1.86109  -0.00353   0.00000  -0.00917  -0.01052   1.85056
   A28        1.82657  -0.00335   0.00000  -0.04928  -0.04929   1.77728
   A29        1.96998  -0.00038   0.00000   0.01536   0.01487   1.98485
   A30        1.95700  -0.00139   0.00000  -0.00778  -0.00692   1.95008
   A31        1.93994   0.00144   0.00000  -0.00749  -0.00806   1.93187
   A32        1.92863  -0.00178   0.00000  -0.01425  -0.01418   1.91445
   A33        1.89633   0.00222   0.00000   0.01588   0.01576   1.91209
   A34        1.93838   0.00267   0.00000   0.01676   0.01664   1.95502
   A35        1.90427  -0.00055   0.00000  -0.00530  -0.00523   1.89904
   A36        1.89478  -0.00117   0.00000  -0.01202  -0.01195   1.88283
   A37        1.90102  -0.00144   0.00000  -0.00128  -0.00158   1.89943
   A38        1.92349   0.00206   0.00000   0.01317   0.01310   1.93659
   A39        1.90594   0.00175   0.00000   0.01221   0.01214   1.91808
   A40        1.93481  -0.00219   0.00000  -0.01584  -0.01579   1.91902
   A41        1.89986  -0.00109   0.00000  -0.00072  -0.00090   1.89895
   A42        1.89709  -0.00045   0.00000  -0.00625  -0.00620   1.89088
   A43        1.90221  -0.00010   0.00000  -0.00260  -0.00255   1.89966
   A44        1.99347  -0.01070   0.00000  -0.06342  -0.06342   1.93005
    D1        1.59802  -0.00190   0.00000  -0.03138  -0.03134   1.56667
    D2       -2.82015   0.00059   0.00000  -0.02402  -0.02378  -2.84393
    D3       -0.53954  -0.00373   0.00000  -0.06141  -0.06169  -0.60123
    D4       -2.88971  -0.00173   0.00000  -0.02092  -0.02084  -2.91055
    D5        0.23839  -0.00188   0.00000  -0.02750  -0.02740   0.21099
    D6        1.49927  -0.00065   0.00000  -0.00768  -0.00763   1.49163
    D7       -1.65582  -0.00080   0.00000  -0.01425  -0.01420  -1.67002
    D8       -0.53636   0.00234   0.00000   0.01458   0.01444  -0.52192
    D9        2.59174   0.00219   0.00000   0.00801   0.00787   2.59962
   D10       -0.87185   0.00041   0.00000   0.00159   0.00153  -0.87032
   D11        1.25869   0.00188   0.00000   0.04604   0.04606   1.30475
   D12       -2.96741   0.00033   0.00000   0.00989   0.01062  -2.95679
   D13        1.15756  -0.00085   0.00000  -0.00435  -0.00461   1.15295
   D14       -2.99509   0.00062   0.00000   0.04011   0.03991  -2.95517
   D15       -0.93800  -0.00094   0.00000   0.00395   0.00448  -0.93352
   D16        3.02134  -0.00036   0.00000   0.00377   0.00322   3.02457
   D17       -1.13131   0.00112   0.00000   0.04822   0.04775  -1.08355
   D18        0.92578  -0.00044   0.00000   0.01207   0.01232   0.93809
   D19       -0.60239  -0.00048   0.00000  -0.02474  -0.02438  -0.62677
   D20       -2.82884  -0.00107   0.00000  -0.04456  -0.04479  -2.87363
   D21        1.60002  -0.00390   0.00000  -0.05741  -0.05754   1.54247
   D22        3.13980   0.00003   0.00000   0.00130   0.00122   3.14102
   D23        0.02222   0.00017   0.00000   0.00491   0.00486   0.02709
   D24        0.01200   0.00024   0.00000   0.00822   0.00823   0.02022
   D25       -3.10559   0.00038   0.00000   0.01183   0.01187  -3.09371
   D26       -3.14112   0.00006   0.00000   0.00370   0.00363  -3.13748
   D27       -0.00828  -0.00009   0.00000  -0.00111  -0.00117  -0.00945
   D28       -0.01324  -0.00006   0.00000  -0.00290  -0.00290  -0.01614
   D29        3.11960  -0.00022   0.00000  -0.00771  -0.00770   3.11190
   D30       -0.00090  -0.00024   0.00000  -0.00775  -0.00776  -0.00866
   D31       -3.14012   0.00004   0.00000   0.00098   0.00099  -3.13913
   D32        3.11601  -0.00035   0.00000  -0.01129  -0.01131   3.10470
   D33       -0.02321  -0.00008   0.00000  -0.00256  -0.00256  -0.02577
   D34        3.13701   0.00019   0.00000   0.00606   0.00607  -3.14010
   D35       -0.00899   0.00008   0.00000   0.00227   0.00229  -0.00670
   D36       -0.00694  -0.00008   0.00000  -0.00263  -0.00263  -0.00957
   D37        3.13024  -0.00019   0.00000  -0.00642  -0.00641   3.12383
   D38        0.00777   0.00009   0.00000   0.00300   0.00302   0.01078
   D39       -3.13109   0.00011   0.00000   0.00377   0.00376  -3.12733
   D40       -3.13824  -0.00002   0.00000  -0.00078  -0.00076  -3.13900
   D41        0.00609  -0.00000   0.00000  -0.00002  -0.00002   0.00607
   D42        0.00332  -0.00010   0.00000  -0.00272  -0.00274   0.00059
   D43       -3.12931   0.00005   0.00000   0.00220   0.00217  -3.12714
   D44       -3.14102  -0.00012   0.00000  -0.00348  -0.00348   3.13869
   D45        0.00954   0.00004   0.00000   0.00143   0.00142   0.01096
   D46        3.00920   0.00068   0.00000   0.04460   0.04488   3.05408
   D47        0.92051   0.00104   0.00000   0.04977   0.05015   0.97066
   D48       -1.17009  -0.00022   0.00000   0.03103   0.03121  -1.13888
   D49        0.94605   0.00062   0.00000   0.00987   0.00945   0.95550
   D50       -1.14265   0.00099   0.00000   0.01504   0.01473  -1.12792
   D51        3.04994  -0.00027   0.00000  -0.00370  -0.00421   3.04573
   D52       -1.26110   0.00012   0.00000   0.01391   0.01403  -1.24707
   D53        2.93339   0.00048   0.00000   0.01908   0.01931   2.95270
   D54        0.84279  -0.00078   0.00000   0.00034   0.00037   0.84316
   D55        1.01664  -0.00340   0.00000  -0.04815  -0.04797   0.96867
   D56       -1.06950  -0.00439   0.00000  -0.06286  -0.06280  -1.13230
   D57        3.11767  -0.00403   0.00000  -0.05762  -0.05750   3.06018
   D58        3.10273   0.00279   0.00000   0.02310   0.02299   3.12572
   D59        1.01659   0.00179   0.00000   0.00839   0.00816   1.02475
   D60       -1.07942   0.00216   0.00000   0.01364   0.01347  -1.06596
   D61       -0.96423   0.00180   0.00000   0.01878   0.01890  -0.94534
   D62       -3.05037   0.00080   0.00000   0.00408   0.00406  -3.04631
   D63        1.13680   0.00117   0.00000   0.00932   0.00937   1.14617
         Item               Value     Threshold  Converged?
 Maximum Force            0.011592     0.000450     NO 
 RMS     Force            0.004098     0.000300     NO 
 Maximum Displacement     0.186239     0.001800     NO 
 RMS     Displacement     0.054280     0.001200     NO 
 Predicted change in Energy=-4.654134D-03
 GradGradGradGradGradGradGradGradGradGradGradGradGradGradGradGradGradGrad

                          Input orientation:                          
 ---------------------------------------------------------------------
 Center     Atomic      Atomic             Coordinates (Angstroms)
 Number     Number       Type             X           Y           Z
 ---------------------------------------------------------------------
      1          7           0       -3.288054   -1.216178   -0.869735
      2         16           0       -2.663080   -0.523714    0.356328
      3          6           0       -0.870033   -0.350466    0.209821
      4          6           0       -0.097307   -0.005019    1.318196
      5          6           0        1.282816    0.120333    1.173921
      6          6           0        1.859290   -0.113549   -0.075811
      7         35           0        3.728554    0.053323   -0.272717
      8          6           0        1.089288   -0.476952   -1.180594
      9          6           0       -0.291684   -0.595967   -1.031142
     10          6           0       -3.206943    1.223841    0.119963
     11          6           0       -2.914756    1.728136   -1.284592
     12          6           0       -4.679680    1.257858    0.487102
     13          7           0       -2.807162   -0.979742    1.822155
     14          1           0       -3.310172   -2.224393   -0.729566
     15          1           0       -0.582829    0.136037    2.286299
     16          1           0        1.909911    0.387415    2.026420
     17          1           0        1.564615   -0.667470   -2.144325
     18          1           0       -0.931591   -0.891642   -1.867950
     19          1           0       -2.604912    1.752051    0.876500
     20          1           0       -3.333623    2.738390   -1.410584
     21          1           0       -3.380079    1.057241   -2.020617
     22          1           0       -1.835514    1.782640   -1.486662
     23          1           0       -4.840963    0.869159    1.504107
     24          1           0       -5.256558    0.645838   -0.222011
     25          1           0       -5.052182    2.291824    0.448741
     26          1           0       -3.736056   -1.361349    1.988574
 ---------------------------------------------------------------------
                    Distance matrix (angstroms):
                    1          2          3          4          5
     1  N    0.000000
     2  S    1.540561   0.000000
     3  C    2.785987   1.807345   0.000000
     4  C    4.053987   2.788803   1.394608   0.000000
     5  C    5.182243   4.080852   2.405389   1.393294   0.000000
     6  C    5.323650   4.561448   2.754436   2.404850   1.396013
     7  Br   7.155477   6.448384   4.641432   4.143866   2.842338
     8  C    4.450192   4.055192   2.405866   2.806186   2.436790
     9  C    3.064139   2.748420   1.390952   2.430306   2.802577
    10  C    2.634344   1.845428   2.819160   3.551858   4.741993
    11  C    2.996739   2.797641   3.276393   4.209080   5.123372
    12  C    3.146186   2.694027   4.144515   4.825321   6.108768
    13  N    2.744709   1.541872   2.597706   2.923589   4.284658
    14  H    1.018153   2.119010   3.216882   4.409246   5.496957
    15  H    4.371187   2.913332   2.151960   1.092178   2.172157
    16  H    6.162633   4.952939   3.401850   2.164372   1.091483
    17  H    5.047183   4.913993   3.401471   3.897419   3.422104
    18  H    2.579666   2.842681   2.147975   3.410815   3.896238
    19  H    3.510897   2.335181   2.806215   3.093619   4.226748
    20  H    3.991641   3.770004   4.270365   5.044430   5.902999
    21  H    2.549791   2.943361   3.640992   4.801318   5.729351
    22  H    3.388713   3.066064   2.891427   3.752908   4.423342
    23  H    3.520693   2.828546   4.350971   4.827114   6.178223
    24  H    2.785975   2.903180   4.518927   5.423442   6.707324
    25  H    4.142053   3.693725   4.952692   5.530120   6.735983
    26  H    2.896845   2.125356   3.521354   3.940753   5.296048
                    6          7          8          9         10
     6  C    0.000000
     7  Br   1.887000   0.000000
     8  C    1.394816   2.840978   0.000000
     9  C    2.402514   4.142354   1.394125   0.000000
    10  C    5.243439   7.044532   4.800182   3.624290   0.000000
    11  C    5.257801   6.925494   4.572265   3.513716   1.520679
    12  C    6.704906   8.527992   6.250742   4.999624   1.518191
    13  N    5.111589   6.940555   4.944858   3.823116   2.813016
    14  H    5.621956   7.412177   4.755231   3.442962   3.552840
    15  H    3.406729   5.014323   3.897574   3.409694   3.572437
    16  H    2.161689   2.950443   3.421329   3.893936   5.524163
    17  H    2.161576   2.950439   1.091333   2.165672   5.609975
    18  H    3.406789   5.015444   2.174484   1.094145   3.688400
    19  H    4.931173   6.657265   4.779876   3.808321   1.101724
    20  H    6.073016   7.640594   5.472976   4.529382   2.156961
    21  H    5.709992   7.388888   4.799441   3.640102   2.154023
    22  H    4.386070   5.951727   3.708626   2.872052   2.185021
    23  H    6.953794   8.789729   6.647370   5.410178   2.170640
    24  H    7.157746   9.004770   6.515313   5.181384   2.156839
    25  H    7.336854   9.090254   6.930982   5.761227   2.157218
    26  H    6.093159   7.926862   5.840354   4.644157   3.233400
                   11         12         13         14         15
    11  C    0.000000
    12  C    2.544606   0.000000
    13  N    4.122628   3.208667   0.000000
    14  H    4.010848   3.934706   2.883306   0.000000
    15  H    4.552355   4.613002   2.531413   4.701645   0.000000
    16  H    6.003145   6.822747   4.915447   6.454940   2.518825
    17  H    5.151974   7.044325   5.911253   5.309341   4.988744
    18  H    3.337138   4.920854   4.140339   2.954622   4.293664
    19  H    2.183322   2.168068   2.897906   4.346142   2.947517
    20  H    1.100879   2.757727   4.955024   5.009346   5.292075
    21  H    1.099253   2.831584   4.386847   3.527155   5.217543
    22  H    1.099348   3.501488   4.418497   4.336372   4.302994
    23  H    3.496421   1.100635   2.766936   4.111288   4.391014
    24  H    2.790069   1.100090   3.580595   3.504890   5.328720
    25  H    2.809053   1.099688   4.198753   4.981890   5.291423
    26  H    4.575267   3.163082   1.017921   2.883489   3.503376
                   16         17         18         19         20
    16  H    0.000000
    17  H    4.315914   0.000000
    18  H    4.987608   2.521444   0.000000
    19  H    4.854706   5.688974   4.161866   0.000000
    20  H    6.695873   6.010906   4.376765   2.595118   0.000000
    21  H    6.694114   5.238313   3.133137   3.078463   1.789011
    22  H    5.321335   4.242221   2.848551   2.485446   1.778644
    23  H    6.788165   7.530187   5.454758   2.484615   3.776443
    24  H    7.515351   7.207529   4.876300   3.075981   3.080448
    25  H    7.388273   7.698274   5.699192   2.542334   2.570984
    26  H    5.910715   6.757176   4.791495   3.494203   5.340794
                   21         22         23         24         25
    21  H    0.000000
    22  H    1.788013   0.000000
    23  H    3.820110   4.337265   0.000000
    24  H    2.631618   3.820367   1.789434   0.000000
    25  H    3.227670   3.788404   1.783924   1.789120   0.000000
    26  H    4.695733   5.057073   2.535882   3.350733   4.177194
                   26
    26  H    0.000000
 Stoichiometry    C9H13BrN2S
 Framework group  C1[X(C9H13BrN2S)]
 Deg. of freedom    72
 Full point group                 C1      NOp   1
 Largest Abelian subgroup         C1      NOp   1
 Largest concise Abelian subgroup C1      NOp   1
                         Standard orientation:                         
 ---------------------------------------------------------------------
 Center     Atomic      Atomic             Coordinates (Angstroms)
 Number     Number       Type             X           Y           Z
 ---------------------------------------------------------------------
      1          7           0        2.935458    0.277751    1.672264
      2         16           0        2.407058   -0.486556    0.443461
      3          6           0        0.616106   -0.333419    0.254941
      4          6           0       -0.079090   -1.165476   -0.622165
      5          6           0       -1.459687   -1.023796   -0.745238
      6          6           0       -2.114572   -0.058214    0.021332
      7         35           0       -3.984670    0.133602   -0.142097
      8          6           0       -1.422545    0.762004    0.912315
      9          6           0       -0.040574    0.618845    1.027412
     10          6           0        3.000066    0.575399   -0.944413
     11          6           0        2.646970    2.039566   -0.734648
     12          6           0        4.491583    0.317543   -1.061849
     13          7           0        2.617643   -1.986179    0.153369
     14          1           0        2.928669   -0.327326    2.491087
     15          1           0        0.465618   -1.931409   -1.178486
     16          1           0       -2.027025   -1.664170   -1.423016
     17          1           0       -1.958639    1.500745    1.510540
     18          1           0        0.539396    1.232178    1.723552
     19          1           0        2.461810    0.145078   -1.804006
     20          1           0        3.094615    2.647535   -1.535850
     21          1           0        3.044786    2.379112    0.232207
     22          1           0        1.560684    2.207811   -0.750181
     23          1           0        4.696223   -0.755540   -1.196063
     24          1           0        5.004382    0.665305   -0.152841
     25          1           0        4.898827    0.858483   -1.928366
     26          1           0        3.539942   -2.284692    0.463879
 ---------------------------------------------------------------------
 Rotational constants (GHZ):           1.5020504           0.2062483           0.2014871
 Standard basis: def2SVP (5D, 7F)
 There are   284 symmetry adapted cartesian basis functions of A   symmetry.
 There are   269 symmetry adapted basis functions of A   symmetry.
   269 basis functions,   483 primitive gaussians,   284 cartesian basis functions
    66 alpha electrons       66 beta electrons
       nuclear repulsion energy      1211.4739917594 Hartrees.
 NAtoms=   26 NActive=   26 NUniq=   26 SFac= 1.00D+00 NAtFMM=   60 NAOKFM=F Big=F
 Integral buffers will be    131072 words long.
 Raffenetti 2 integral format.
 Two-electron integral symmetry is turned on.
 Nuclear repulsion after empirical dispersion term =     1211.4418622247 Hartrees.
 One-electron integrals computed using PRISM.
   1 Symmetry operations used in ECPInt.
 ECPInt:  NShTT=    7875 NPrTT=   30380 LenC2=    7393 LenP2D=   20791.
 LDataN:  DoStor=T MaxTD1= 4 Len=   56
 NBasis=   269 RedAO= T EigKep=  2.70D-04  NBF=   269
 NBsUse=   269 1.00D-06 EigRej= -1.00D+00 NBFU=   269
 Initial guess from the checkpoint file:  "SDI1145_5.chk"
 B after Tr=     0.000000    0.000000   -0.000000
         Rot=    0.999901    0.013999    0.000959    0.000646 Ang=   1.61 deg.
 ExpMin= 1.22D-01 ExpMax= 1.13D+05 ExpMxC= 1.70D+04 IAcc=3 IRadAn=         5 AccDes= 0.00D+00
 Harris functional with IExCor= 1009 and IRadAn=       5 diagonalized for initial guess.
 HarFok:  IExCor= 1009 AccDes= 0.00D+00 IRadAn=         5 IDoV= 1 UseB2=F ITyADJ=14
 ICtDFT=  3500011 ScaDFX=  1.000000  1.000000  1.000000  1.000000
 FoFCou: FMM=F IPFlag=           0 FMFlag=      100000 FMFlg1=           0
         NFxFlg=           0 DoJE=T BraDBF=F KetDBF=T FulRan=T
         wScrn=  0.000000 ICntrl=       500 IOpCl=  0 I1Cent=   200000004 NGrid=           0
         NMat0=    1 NMatS0=      1 NMatT0=    0 NMatD0=    1 NMtDS0=    0 NMtDT0=    0
 Petite list used in FoFCou.
 Requested convergence on RMS density matrix=1.00D-08 within 128 cycles.
 Requested convergence on MAX density matrix=1.00D-06.
 Requested convergence on             energy=1.00D-06.
 No special actions if energy rises.
 Integral accuracy reduced to 1.0D-05 until final iterations.
 Initial convergence to 1.0D-05 achieved.  Increase integral accuracy.
 SCF Done:  E(RPBE1PBE) =  -3430.79527974     A.U. after   12 cycles
            NFock= 12  Conv=0.81D-08     -V/T= 2.0024
   1 Symmetry operations used in ECPInt.
 ECPInt:  NShTT=    7875 NPrTT=   30380 LenC2=    7393 LenP2D=   20791.
 LDataN:  DoStor=T MaxTD1= 5 Len=  102
 Calling FoFJK, ICntrl=      2127 FMM=F ISym2X=0 I1Cent= 0 IOpClX= 0 NMat=1 NMatS=1 NMatT=0.
 ***** Axes restored to original set *****
 -------------------------------------------------------------------
 Center     Atomic                   Forces (Hartrees/Bohr)
 Number     Number              X              Y              Z
 -------------------------------------------------------------------
      1        7          -0.006848210   -0.001200850   -0.006456025
      2       16           0.005568516    0.008427084   -0.001644060
      3        6          -0.001099961   -0.000500346    0.002477055
      4        6           0.001193682    0.000081392   -0.000518601
      5        6          -0.002492054   -0.000290956   -0.000215733
      6        6           0.001941223   -0.000058341   -0.000922499
      7       35          -0.000375500    0.000003402    0.000087129
      8        6          -0.001159520    0.000263983    0.001193870
      9        6          -0.000196359    0.000101714   -0.000331785
     10        6          -0.000288163   -0.002742357   -0.003624746
     11        6          -0.000701294   -0.001127973    0.003218083
     12        6           0.000887270   -0.000588991   -0.000208568
     13        7           0.003639852   -0.003737263    0.006627227
     14        1           0.003226766   -0.002843051    0.000545810
     15        1           0.000292420   -0.000175908   -0.000382358
     16        1          -0.000091822   -0.000075513   -0.000259339
     17        1          -0.000004918    0.000027216    0.000274824
     18        1          -0.000083407    0.000283288    0.000565131
     19        1           0.000067511    0.000704348    0.000434302
     20        1           0.000213548    0.000344222    0.000294010
     21        1          -0.000218010    0.000319158   -0.000191469
     22        1           0.000130204   -0.000422627    0.000029853
     23        1           0.000068398    0.000588973   -0.000313179
     24        1          -0.000265446    0.000472288   -0.000027805
     25        1          -0.000203893    0.000207705    0.000330459
     26        1          -0.003200831    0.001939403   -0.000981588
 -------------------------------------------------------------------
 Cartesian Forces:  Max     0.008427084 RMS     0.002148885

 GradGradGradGradGradGradGradGradGradGradGradGradGradGradGradGradGradGrad
 Berny optimization.
 Using GEDIIS/GDIIS optimizer.
 FormGI is forming the generalized inverse of G from B-inverse, IUseBI=4.
 Internal  Forces:  Max     0.007990595 RMS     0.001220868
 Search for a local minimum.
 Step number   2 out of a maximum of  143
 All quantities printed in internal units (Hartrees-Bohrs-Radians)
 Mixed Optimization -- RFO/linear search
 Update second derivatives using D2CorX and points    1    2
 DE= -4.91D-03 DEPred=-4.65D-03 R= 1.05D+00
 TightC=F SS=  1.41D+00  RLast= 2.59D-01 DXNew= 5.0454D-01 7.7644D-01
 Trust test= 1.05D+00 RLast= 2.59D-01 DXMaxT set to 5.05D-01
 ITU=  1  0
 Use linear search instead of GDIIS.
     Eigenvalues ---    0.00230   0.00233   0.00559   0.00605   0.01506
     Eigenvalues ---    0.02272   0.02279   0.02286   0.02290   0.02301
     Eigenvalues ---    0.02310   0.02315   0.02319   0.03102   0.03438
     Eigenvalues ---    0.03649   0.04356   0.05637   0.05674   0.05723
     Eigenvalues ---    0.05837   0.05912   0.06754   0.08693   0.09037
     Eigenvalues ---    0.14388   0.15913   0.15994   0.15999   0.15999
     Eigenvalues ---    0.16000   0.16000   0.16000   0.16000   0.16000
     Eigenvalues ---    0.16000   0.16000   0.16053   0.16196   0.17535
     Eigenvalues ---    0.18125   0.19132   0.21987   0.22010   0.22948
     Eigenvalues ---    0.24026   0.24601   0.24999   0.25072   0.30793
     Eigenvalues ---    0.31390   0.34551   0.34981   0.35015   0.35050
     Eigenvalues ---    0.35072   0.35139   0.35376   0.36062   0.36095
     Eigenvalues ---    0.36206   0.37296   0.43793   0.43894   0.45605
     Eigenvalues ---    0.46515   0.48048   0.48373   0.48606   0.50164
     Eigenvalues ---    0.65236   0.66670
 RFO step:  Lambda=-1.33086020D-03 EMin= 2.29680782D-03
 Quartic linear search produced a step of  0.14483.
 Iteration  1 RMS(Cart)=  0.05182599 RMS(Int)=  0.00087276
 Iteration  2 RMS(Cart)=  0.00124300 RMS(Int)=  0.00004668
 Iteration  3 RMS(Cart)=  0.00000058 RMS(Int)=  0.00004668
 Variable       Old X    -DE/DX   Delta X   Delta X   Delta X     New X
                                 (Linear)    (Quad)   (Total)
    R1        2.91124   0.00799   0.00080   0.01387   0.01468   2.92591
    R2        1.92403   0.00282   0.00308   0.00675   0.00983   1.93386
    R3        3.41539  -0.00225  -0.00170  -0.01009  -0.01179   3.40360
    R4        3.48735  -0.00203  -0.00285  -0.01018  -0.01303   3.47432
    R5        2.91372   0.00586   0.00090   0.01020   0.01110   2.92481
    R6        2.63543  -0.00100   0.00342  -0.00259   0.00083   2.63625
    R7        2.62852  -0.00105   0.00223  -0.00262  -0.00039   2.62813
    R8        2.63294  -0.00149   0.00261  -0.00367  -0.00105   2.63189
    R9        2.06392  -0.00049   0.00396  -0.00176   0.00220   2.06612
   R10        2.63808   0.00021   0.00264   0.00043   0.00307   2.64115
   R11        2.06260  -0.00027   0.00337  -0.00105   0.00232   2.06492
[...]
 Alpha virt. eigenvalues --    4.59249   4.59929   4.62720   4.62870   4.65121
 Alpha virt. eigenvalues --    4.68347   4.69511   4.71297   4.74141   4.78248
 Alpha virt. eigenvalues --    4.79658   4.85193   4.88701   4.90638   4.91106
 Alpha virt. eigenvalues --    4.93152   4.96456   4.96628   4.99661   5.08214
 Alpha virt. eigenvalues --    5.12369   5.13858   5.17299   5.18919   5.23737
 Alpha virt. eigenvalues --    5.24660   5.28247   5.37472   5.43853   5.53390
 Alpha virt. eigenvalues --    5.55727   5.60480   7.79071   9.47759   9.56387
 Alpha virt. eigenvalues --    9.66802  21.70601  22.04790  22.41944  22.43898
 Alpha virt. eigenvalues --   22.62567  22.67922  22.70996  22.75405  22.82640
 Alpha virt. eigenvalues --   23.18722  31.94058  31.97132
          Condensed to atoms (all electrons):
               1          2          3          4          5          6
     1  N    6.928437   0.523229  -0.101777   0.012050  -0.001040   0.000100
     2  S    0.523229  14.188760   0.215509   0.015432  -0.000358   0.002551
     3  C   -0.101777   0.215509   5.303916   0.342961   0.057608  -0.103353
     4  C    0.012050   0.015432   0.342961   5.167359   0.320342   0.081683
     5  C   -0.001040  -0.000358   0.057608   0.320342   5.153521   0.369533
     6  C    0.000100   0.002551  -0.103353   0.081683   0.369533   4.839811
     7  Br  -0.000000   0.000021  -0.003062   0.018397  -0.074490   0.325368
     8  C    0.001069   0.003928   0.059948  -0.107034   0.039798   0.372544
     9  C    0.014377  -0.050633   0.330614  -0.032623  -0.106525   0.080296
    10  C   -0.054848   0.249226  -0.057590   0.007291  -0.000664  -0.000241
    11  C   -0.014957  -0.010519   0.007941   0.003253   0.000210  -0.000068
    12  C   -0.020413  -0.014667   0.003180   0.001240  -0.000005  -0.000002
    13  N   -0.076238   0.469117  -0.118793   0.009291  -0.002030   0.000806
    14  H    0.315730  -0.024192  -0.000117   0.001593   0.000013  -0.000076
    15  H    0.001057   0.001562  -0.052491   0.428909  -0.058833   0.009583
    16  H    0.000004  -0.000328   0.012719  -0.062348   0.442822  -0.063601
    17  H    0.000031  -0.000263   0.012476  -0.003376   0.014200  -0.062218
    18  H    0.023784  -0.005763  -0.053446   0.005276  -0.001092   0.007893
    19  H    0.004783  -0.030451   0.007727  -0.008375   0.000654  -0.000116
    20  H    0.000594   0.005124  -0.000491  -0.000210  -0.000049   0.000009
    21  H    0.010987  -0.001528  -0.003980  -0.000869   0.000049  -0.000008
    22  H   -0.001597  -0.002377   0.006336   0.000476   0.000041  -0.000033
    23  H    0.000969  -0.002459  -0.000334   0.000216   0.000005   0.000001
    24  H    0.012524  -0.002285   0.000986  -0.000251   0.000005   0.000000
    25  H    0.000341   0.007021  -0.000010  -0.000025   0.000002   0.000000
    26  H   -0.000958  -0.016492   0.016366  -0.002327   0.000101  -0.000016
               7          8          9         10         11         12
     1  N   -0.000000   0.001069   0.014377  -0.054848  -0.014957  -0.020413
     2  S    0.000021   0.003928  -0.050633   0.249226  -0.010519  -0.014667
     3  C   -0.003062   0.059948   0.330614  -0.057590   0.007941   0.003180
     4  C    0.018397  -0.107034  -0.032623   0.007291   0.003253   0.001240
     5  C   -0.074490   0.039798  -0.106525  -0.000664   0.000210  -0.000005
     6  C    0.325368   0.372544   0.080296  -0.000241  -0.000068  -0.000002
     7  Br  34.874503  -0.074297   0.018347   0.000004  -0.000002   0.000000
     8  C   -0.074297   5.163192   0.297757  -0.000309   0.000925  -0.000001
     9  C    0.018347   0.297757   5.261356  -0.004531  -0.011727  -0.000688
    10  C    0.000004  -0.000309  -0.004531   5.159337   0.267368   0.297842
    11  C   -0.000002   0.000925  -0.011727   0.267368   5.009419  -0.020537
    12  C    0.000000  -0.000001  -0.000688   0.297842  -0.020537   4.997683
    13  N   -0.000000  -0.001631   0.019995  -0.052715   0.005134  -0.001422
    14  H   -0.000000   0.000135  -0.003864   0.012719  -0.000887  -0.000454
    15  H   -0.000352  -0.002578   0.010577   0.000314   0.000154  -0.000152
    16  H   -0.004999   0.014829  -0.003309   0.000015  -0.000003  -0.000001
    17  H   -0.004794   0.445751  -0.064976   0.000029  -0.000002  -0.000001
    18  H   -0.000358  -0.055252   0.434242  -0.001830  -0.003385  -0.000111
    19  H   -0.000001   0.000025   0.003819   0.394887  -0.031783  -0.037074
    20  H    0.000000  -0.000020   0.000916  -0.022718   0.383772  -0.007284
    21  H   -0.000000   0.000351   0.002753  -0.030865   0.400592  -0.003007
    22  H    0.000005   0.001218  -0.005113  -0.038281   0.406940   0.007766
    23  H    0.000000   0.000001  -0.000168  -0.053145   0.011320   0.407099
    24  H    0.000000   0.000003   0.000176  -0.034257  -0.004850   0.402192
    25  H   -0.000000   0.000002  -0.000070  -0.031235  -0.002357   0.395214
    26  H    0.000000   0.000074  -0.001132  -0.010477  -0.000041   0.002001
              13         14         15         16         17         18
     1  N   -0.076238   0.315730   0.001057   0.000004   0.000031   0.023784
     2  S    0.469117  -0.024192   0.001562  -0.000328  -0.000263  -0.005763
     3  C   -0.118793  -0.000117  -0.052491   0.012719   0.012476  -0.053446
     4  C    0.009291   0.001593   0.428909  -0.062348  -0.003376   0.005276
     5  C   -0.002030   0.000013  -0.058833   0.442822   0.014200  -0.001092
     6  C    0.000806  -0.000076   0.009583  -0.063601  -0.062218   0.007893
     7  Br  -0.000000  -0.000000  -0.000352  -0.004999  -0.004794  -0.000358
     8  C   -0.001631   0.000135  -0.002578   0.014829   0.445751  -0.055252
     9  C    0.019995  -0.003864   0.010577  -0.003309  -0.064976   0.434242
    10  C   -0.052715   0.012719   0.000314   0.000015   0.000029  -0.001830
    11  C    0.005134  -0.000887   0.000154  -0.000003  -0.000002  -0.003385
    12  C   -0.001422  -0.000454  -0.000152  -0.000001  -0.000001  -0.000111
    13  N    6.967499  -0.002713   0.023209  -0.000171  -0.000001   0.002109
    14  H   -0.002713   0.489026  -0.000024   0.000000   0.000016  -0.002841
    15  H    0.023209  -0.000024   0.488677  -0.006944   0.000054  -0.000282
    16  H   -0.000171   0.000000  -0.006944   0.530436  -0.000019   0.000087
    17  H   -0.000001   0.000016   0.000054  -0.000019   0.528314  -0.005906
    18  H    0.002109  -0.002841  -0.000282   0.000087  -0.005906   0.485479
    19  H    0.005540  -0.000622   0.001217  -0.000009   0.000003   0.000070
    20  H   -0.000317   0.000071   0.000000   0.000000  -0.000000   0.000367
    21  H    0.000537  -0.000896  -0.000018   0.000000  -0.000001   0.000396
    22  H    0.000036  -0.000044  -0.000102  -0.000003  -0.000055  -0.001377
    23  H    0.014049  -0.000300   0.000054  -0.000000   0.000000  -0.000018
    24  H   -0.000334  -0.000872  -0.000004  -0.000000  -0.000000   0.000019
    25  H    0.000054   0.000039   0.000005   0.000000   0.000000   0.000000
    26  H    0.313168   0.000227  -0.001424  -0.000002  -0.000001  -0.000084
              19         20         21         22         23         24
     1  N    0.004783   0.000594   0.010987  -0.001597   0.000969   0.012524
     2  S   -0.030451   0.005124  -0.001528  -0.002377  -0.002459  -0.002285
     3  C    0.007727  -0.000491  -0.003980   0.006336  -0.000334   0.000986
     4  C   -0.008375  -0.000210  -0.000869   0.000476   0.000216  -0.000251
     5  C    0.000654  -0.000049   0.000049   0.000041   0.000005   0.000005
     6  C   -0.000116   0.000009  -0.000008  -0.000033   0.000001   0.000000
     7  Br  -0.000001   0.000000  -0.000000   0.000005   0.000000   0.000000
     8  C    0.000025  -0.000020   0.000351   0.001218   0.000001   0.000003
     9  C    0.003819   0.000916   0.002753  -0.005113  -0.000168   0.000176
    10  C    0.394887  -0.022718  -0.030865  -0.038281  -0.053145  -0.034257
    11  C   -0.031783   0.383772   0.400592   0.406940   0.011320  -0.004850
    12  C   -0.037074  -0.007284  -0.003007   0.007766   0.407099   0.402192
    13  N    0.005540  -0.000317   0.000537   0.000036   0.014049  -0.000334
    14  H   -0.000622   0.000071  -0.000896  -0.000044  -0.000300  -0.000872
    15  H    0.001217   0.000000  -0.000018  -0.000102   0.000054  -0.000004
    16  H   -0.000009   0.000000   0.000000  -0.000003  -0.000000  -0.000000
    17  H    0.000003  -0.000000  -0.000001  -0.000055   0.000000  -0.000000
    18  H    0.000070   0.000367   0.000396  -0.001377  -0.000018   0.000019
    19  H    0.585539  -0.007006   0.006851  -0.003520  -0.002665   0.007387
    20  H   -0.007006   0.561485  -0.021058  -0.021414  -0.000578  -0.000624
    21  H    0.006851  -0.021058   0.498730  -0.017157  -0.000141   0.004533
    22  H   -0.003520  -0.021414  -0.017157   0.527377  -0.000406   0.000092
    23  H   -0.002665  -0.000578  -0.000141  -0.000406   0.536902  -0.020547
    24  H    0.007387  -0.000624   0.004533   0.000092  -0.020547   0.503234
    25  H   -0.005684   0.002916  -0.000655  -0.000019  -0.020046  -0.020014
    26  H    0.000035  -0.000001   0.000038   0.000019  -0.000077   0.000530
              25         26
     1  N    0.000341  -0.000958
     2  S    0.007021  -0.016492
     3  C   -0.000010   0.016366
     4  C   -0.000025  -0.002327
     5  C    0.000002   0.000101
     6  C    0.000000  -0.000016
     7  Br  -0.000000   0.000000
     8  C    0.000002   0.000074
     9  C   -0.000070  -0.001132
    10  C   -0.031235  -0.010477
    11  C   -0.002357  -0.000041
    12  C    0.395214   0.002001
    13  N    0.000054   0.313168
    14  H    0.000039   0.000227
    15  H    0.000005  -0.001424
    16  H    0.000000  -0.000002
    17  H    0.000000  -0.000001
    18  H    0.000000  -0.000084
    19  H   -0.005684   0.000035
    20  H    0.002916  -0.000001
    21  H   -0.000655   0.000038
    22  H   -0.000019   0.000019
    23  H   -0.020046  -0.000077
    24  H   -0.020014   0.000530
    25  H    0.542975   0.000199
    26  H    0.000199   0.483610
 Mulliken charges:
               1
     1  N   -0.578239
     2  S    0.480839
     3  C    0.117156
     4  C   -0.198327
     5  C   -0.153815
     6  C    0.139556
     7  Br  -0.074289
     8  C   -0.160428
     9  C   -0.189869
    10  C    0.004679
    11  C   -0.395908
    12  C   -0.408397
    13  N   -0.574178
    14  H    0.218332
    15  H    0.157831
    16  H    0.140823
    17  H    0.140737
    18  H    0.172023
    19  H    0.108769
    20  H    0.126513
    21  H    0.154364
    22  H    0.141192
    23  H    0.130269
    24  H    0.152357
    25  H    0.131347
    26  H    0.216662
 Sum of Mulliken charges =  -0.00000
 Mulliken charges with hydrogens summed into heavy atoms:
               1
     1  N   -0.359907
     2  S    0.480839
     3  C    0.117156
     4  C   -0.040497
     5  C   -0.012992
     6  C    0.139556
     7  Br  -0.074289
     8  C   -0.019691
     9  C   -0.017845
    10  C    0.113448
    11  C    0.026162
    12  C    0.005576
    13  N   -0.357516
 Electronic spatial extent (au):  <R**2>=           5059.1225
 Charge=             -0.0000 electrons
 Dipole moment (field-independent basis, Debye):
    X=              0.4317    Y=              1.1070    Z=             -1.3757  Tot=              1.8177
 Quadrupole moment (field-independent basis, Debye-Ang):
   XX=            -98.2560   YY=           -100.5128   ZZ=            -95.8355
   XY=              0.9133   XZ=             -5.5071   YZ=              0.8499
 Traceless Quadrupole moment (field-independent basis, Debye-Ang):
   XX=             -0.0546   YY=             -2.3114   ZZ=              2.3660
   XY=              0.9133   XZ=             -5.5071   YZ=              0.8499
 Octapole moment (field-independent basis, Debye-Ang**2):
  XXX=            -88.9157  YYY=             13.9883  ZZZ=              2.1671  XYY=            -44.2054
  XXY=             -6.2934  XXZ=            -23.0994  XZZ=            -34.8465  YZZ=             -1.6393
  YYZ=             -4.4630  XYZ=            -15.8895
 Hexadecapole moment (field-independent basis, Debye-Ang**3):
 XXXX=          -4632.8797 YYYY=           -711.8474 ZZZZ=           -460.6511 XXXY=            -87.1165
 XXXZ=            -46.0620 YYYX=             -6.8740 YYYZ=             12.3244 ZZZX=             28.2376
 ZZZY=             -9.4588 XXYY=           -893.2572 XXZZ=           -878.1349 YYZZ=           -187.3386
 XXYZ=            -30.0607 YYXZ=              4.3498 ZZXY=            -15.0899
 N-N= 1.211408709630D+03 E-N=-1.058854673024D+04  KE= 3.425335015776D+03
 Breneman (CHELPG) radii used.
 Read replacement radii for each type of atom:
 Rad(35) =   1.850000000000D+00
 Atom Element Radius
    1     7    1.70
    2    16    2.00
    3     6    1.50
    4     6    1.50
    5     6    1.50
    6     6    1.50
    7    35    1.85
    8     6    1.50
    9     6    1.50
   10     6    1.50
   11     6    1.50
   12     6    1.50
   13     7    1.70
   14     1    1.45
   15     1    1.45
   16     1    1.45
   17     1    1.45
   18     1    1.45
   19     1    1.45
   20     1    1.45
   21     1    1.45
   22     1    1.45
   23     1    1.45
   24     1    1.45
   25     1    1.45
   26     1    1.45
 Generate Potential Derived Charges using the Breneman model, NDens= 1.
 Grid spacing= 0.300 Box extension= 2.800
 NStep X,Y,Z=   50     36     35   Total possible points=       63000
 Number of Points to Fit=   15929

 **********************************************************************

            Electrostatic Properties Using The SCF Density.

 **********************************************************************

       Atomic Center    1 is at   2.934123  0.281703  1.683812
       Atomic Center    2 is at   2.397465 -0.482751  0.443710
       Atomic Center    3 is at   0.614946 -0.344031  0.251152
       Atomic Center    4 is at  -0.092216 -1.210831 -0.580159
       Atomic Center    5 is at  -1.470548 -1.063784 -0.699562
       Atomic Center    6 is at  -2.117850 -0.056988  0.020187
       Atomic Center    7 is at  -3.984807  0.140398 -0.144009
       Atomic Center    8 is at  -1.411192  0.798995  0.864284
       Atomic Center    9 is at  -0.031032  0.650075  0.979205
       Atomic Center   10 is at   3.015707  0.570210 -0.927381
       Atomic Center   11 is at   2.673409  2.033207 -0.738498
       Atomic Center   12 is at   4.505205  0.306661 -1.055235
       Atomic Center   13 is at   2.599913 -1.997263  0.167654
       Atomic Center   14 is at   2.740121 -0.288438  2.511737
       Atomic Center   15 is at   0.444622 -2.005088 -1.101575
       Atomic Center   16 is at  -2.046329 -1.732475 -1.341515
       Atomic Center   17 is at  -1.937202  1.570582  1.428582
       Atomic Center   18 is at   0.559109  1.290148  1.640748
       Atomic Center   19 is at   2.480479  0.142572 -1.791888
       Atomic Center   20 is at   3.053795  2.612835 -1.594262
       Atomic Center   21 is at   3.137138  2.411812  0.183119
       Atomic Center   22 is at   1.587974  2.197516 -0.679002
       Atomic Center   23 is at   4.708586 -0.764899 -1.197260
       Atomic Center   24 is at   5.034177  0.655818 -0.156673
       Atomic Center   25 is at   4.902782  0.842867 -1.929877
       Atomic Center   26 is at   3.586748 -2.215324  0.324631
   15929 points will be used for fitting atomic charges
 Fitting point charges to electrostatic potential
 Charges from ESP fit, RMS=   0.00383 RRMS=   0.32343:
 ESP charges:
               1
     1  N   -0.734169
     2  S    0.525296
     3  C    0.101342
     4  C   -0.130027
     5  C   -0.072618
     6  C    0.060129
     7  Br  -0.078755
     8  C   -0.086279
     9  C   -0.087857
    10  C    0.299275
    11  C   -0.235796
    12  C   -0.214618
    13  N   -0.787895
    14  H    0.321437
    15  H    0.153004
    16  H    0.089309
    17  H    0.091096
    18  H    0.119465
    19  H   -0.035715
    20  H    0.066980
    21  H    0.088670
    22  H    0.015539
    23  H    0.049005
    24  H    0.061527
    25  H    0.063214
    26  H    0.358441
 Sum of ESP charges =  -0.00000
 ESP charges with hydrogens summed into heavy atoms:
               1
     1  N   -0.412733
     2  S    0.525296
     3  C    0.101342
     4  C    0.022977
     5  C    0.016691
     6  C    0.060129
     7  Br  -0.078755
     8  C    0.004817
     9  C    0.031608
    10  C    0.263560
    11  C   -0.064607
    12  C   -0.040872
    13  N   -0.429455
 Charge=  -0.00000 Dipole=     0.3137     1.0611    -1.3180 Tot=     1.7209
 -----------------------------------------------------------------

              Electrostatic Properties (Atomic Units)

 -----------------------------------------------------------------
    Center     Electric         -------- Electric Field --------
               Potential          X             Y             Z
 -----------------------------------------------------------------
    1 Atom    -18.423079
    2 Atom    -59.078165
    3 Atom    -14.724177
    4 Atom    -14.736249
    5 Atom    -14.735926
    6 Atom    -14.686687
    7 Atom   -175.793454
    8 Atom    -14.735197
    9 Atom    -14.735279
   10 Atom    -14.720131
   11 Atom    -14.761635
   12 Atom    -14.758629
   13 Atom    -18.424354
   14 Atom     -1.049192
   15 Atom     -1.083816
   16 Atom     -1.078020
   17 Atom     -1.077080
   18 Atom     -1.079603
   19 Atom     -1.091489
   20 Atom     -1.104317
   21 Atom     -1.112364
   22 Atom     -1.107708
   23 Atom     -1.105426
   24 Atom     -1.109113
   25 Atom     -1.101098
   26 Atom     -1.048844
 -----------------------------------------------------------------
 Unable to Open any file for archive entry.
 1\1\GINC-NOTCH124\SP\RPBE1PBE\def2TZVP\C9H13Br1N2S1\U1414944\24-Feb-20
 25\0\\#N Guess=Read Geom=Check Integral(Ultrafine) Density Pop=(ChelpG
 ,ReadRadii) NMR pbe1pbe EmpiricalDispersion=GD3BJ def2TZVP\\SDI1145_5\
 \0,1\N,0,-3.287752075,-1.2418308975,-0.8572436143\S,0,-2.6532465176,-0
 .520791762,0.3624897885\C,0,-0.8678858444,-0.3533036,0.227838562\C,0,-
 0.0843683974,-0.0478667239,1.3392823829\C,0,1.2930995875,0.0740597818,
 1.1863226166\C,0,1.8629977499,-0.1187628201,-0.0741191576\Br,0,3.72898
 92844,0.0477342441,-0.2785800845\C,0,1.0795707755,-0.44055824,-1.18193
 78913\C,0,-0.2993911682,-0.5593229635,-1.0251429828\C,0,-3.2224696505,
 1.2049470089,0.1004799562\C,0,-2.9400273253,1.7053445068,-1.3006028883
 \C,0,-4.6922596697,1.2517308709,0.4772262332\N,0,-2.7892706777,-0.9733
 285249,1.8415600335\H,0,-3.1250783618,-2.2465872076,-0.7469753356\H,0,
 -0.5628550891,0.0642082523,2.3136559976\H,0,1.9277527954,0.3091116611,
 2.0423246147\H,0,1.545431548,-0.6006958066,-2.1554854208\H,0,-0.948608
 0585,-0.8244690474,-1.8640793712\H,0,-2.6228409366,1.7504790297,0.8485
 156876\H,0,-3.2872978657,2.7461768727,-1.3958174927\H,0,-3.4701362121,
 1.0837963089,-2.0357405879\H,0,-1.8660351227,1.6881328764,-1.535018506
 7\H,0,-4.8516902503,0.8866848308,1.5024583361\H,0,-5.2851197916,0.6393
 424207,-0.2174920172\H,0,-5.0541355726,2.2897151622,0.430135807\H,0,-3
 .7760774603,-1.1763034833,2.0177665271\\Version=ES64L-G16RevC.01\State
 =1-A\HF=-3431.7761197\RMSD=2.709e-09\Dipole=-0.1513332,0.6876562,-0.12
 52076\Quadrupole=-0.4776098,0.7819802,-0.3043704,-3.7982938,-1.2341157
 ,2.0573683\PG=C01 [X(C9H13Br1N2S1)]\\@
 The archive entry for this job was punched.


 ACTORS ARE SO FORTUNATE.  THEY CAN CHOOSE WHETHER
 THEY WILL APPEAR IN A TRAGEDY OR IN COMEDY,
 WHETHER THEY WILL SUFFER OF MAKE MERRY,
 LAUGH OR SHED TEARS.  BUT IN REAL LIFE IT IS DIFFERENT.
 MOST MEN AND WOMEN ARE FORCED TO PERFORM
 PARTS FOR WHICH THEY HAVE NO QUALIFICATIONS.
 THE WORLD IS A STAGE, BUT THE PLAY IS BADLY CAST.

                                   -- OSCAR WILDE
 Job cpu time:       0 days  0 hours 44 minutes 45.8 seconds.
 Elapsed time:       0 days  0 hours  3 minutes  2.0 seconds.
 File lengths (MBytes):  RWF=    159 Int=      0 D2E=      0 Chk=     25 Scr=      2
 Normal termination of Gaussian 16 at Mon Feb 24 20:06:35 2025.
