 Entering Gaussian System, Link 0=g16
 Input=SDI2997_10.com
 Output=SDI2997_10.log
 Initial command:
 /uufs/chpc.utah.edu/sys/installdir/gaussian16/C01/AVX/g16/l1.exe "/scratch/general/vast/u1414944/4689618-notchpeak.peaks/Gau-384598.inp" -scrdir="/scratch/general/vast/u1414944/4689618-notchpeak.peaks/"
 Entering Link 1 = /uufs/chpc.utah.edu/sys/installdir/gaussian16/C01/AVX/g16/l1.exe PID=    384599.
  
 Copyright (c) 1988-2019, Gaussian, Inc.  All Rights Reserved.
  
 This is part of the Gaussian(R) 16 program.  It is based on
 the Gaussian(R) 09 system (copyright 2009, Gaussian, Inc.),
 the Gaussian(R) 03 system (copyright 2003, Gaussian, Inc.),
 the Gaussian(R) 98 system (copyright 1998, Gaussian, Inc.),
 the Gaussian(R) 94 system (copyright 1995, Gaussian, Inc.),
 the Gaussian 92(TM) system (copyright 1992, Gaussian, Inc.),
 the Gaussian 90(TM) system (copyright 1990, Gaussian, Inc.),
 the Gaussian 88(TM) system (copyright 1988, Gaussian, Inc.),
 the Gaussian 86(TM) system (copyright 1986, Carnegie Mellon
 University), and the Gaussian 82(TM) system (copyright 1983,
 Carnegie Mellon University). Gaussian is a federally registered
 trademark of Gaussian, Inc.
  
 This software contains proprietary and confidential information,
 including trade secrets, belonging to Gaussian, Inc.
  
 This software is provided under written license and may be
 used, copied, transmitted, or stored only in accord with that
 written license.
  
 The following legend is applicable only to US Government
 contracts under FAR:
  
                    RESTRICTED RIGHTS LEGEND
  
 Use, reproduction and disclosure by the US Government is
 subject to restrictions as set forth in subparagraphs (a)
 and (c) of the Commercial Computer Software - Restricted
 Rights clause in FAR 52.227-19.
  
 Gaussian, Inc.
 340 Quinnipiac St., Bldg. 40, Wallingford CT 06492
  
  
 ---------------------------------------------------------------
 Warning -- This program may not be used in any manner that
 competes with the business of Gaussian, Inc. or will provide
 assistance to any competitor of Gaussian, Inc.  The licensee
 of this program is prohibited from giving any competitor of
 Gaussian, Inc. access to this program.  By using this program,
 the user acknowledges that Gaussian, Inc. is engaged in the
 business of creating and licensing software in the field of
 computational chemistry and represents and warrants to the
 licensee that it is not a competitor of Gaussian, Inc. and that
 it will not use this program in any manner prohibited above.
 ---------------------------------------------------------------
  

 Cite this work as:
 Gaussian 16, Revision C.01,
 M. J. Frisch, G. W. Trucks, H. B. Schlegel, G. E. Scuseria, 
 M. A. Robb, J. R. Cheeseman, G. Scalmani, V. Barone, 
 G. A. Petersson, H. Nakatsuji, X. Li, M. Caricato, A. V. Marenich, 
 J. Bloino, B. G. Janesko, R. Gomperts, B. Mennucci, H. P. Hratchian, 
 J. V. Ortiz, A. F. Izmaylov, J. L. Sonnenberg, D. Williams-Young, 
 F. Ding, F. Lipparini, F. Egidi, J. Goings, B. Peng, A. Petrone, 
 T. Henderson, D. Ranasinghe, V. G. Zakrzewski, J. Gao, N. Rega, 
 G. Zheng, W. Liang, M. Hada, M. Ehara, K. Toyota, R. Fukuda, 
 J. Hasegawa, M. Ishida, T. Nakajima, Y. Honda, O. Kitao, H. Nakai, 
 T. Vreven, K. Throssell, J. A. Montgomery, Jr., J. E. Peralta, 
 F. Ogliaro, M. J. Bearpark, J. J. Heyd, E. N. Brothers, K. N. Kudin, 
 V. N. Staroverov, T. A. Keith, R. Kobayashi, J. Normand, 
 K. Raghavachari, A. P. Rendell, J. C. Burant, S. S. Iyengar, 
 J. Tomasi, M. Cossi, J. M. Millam, M. Klene, C. Adamo, R. Cammi, 
 J. W. Ochterski, R. L. Martin, K. Morokuma, O. Farkas, 
 J. B. Foresman, and D. J. Fox, Gaussian, Inc., Wallingford CT, 2019.
 
 ******************************************
 Gaussian 16:  ES64L-G16RevC.01  3-Jul-2019
                 7-Jun-2025 
 ******************************************
 %NProcShared=16
 Will use up to   16 processors via shared memory.
 %Mem=40GB
 %chk=SDI2997_10.chk
 ----------------------------------------------------------------------
 #N OPT FREQ=NORAMAN Integral(Ultrafine) pbe1pbe EmpiricalDispersion=GD
 3BJ def2SVP
 ----------------------------------------------------------------------
 1/18=20,19=15,26=4,38=1/1,3;
 2/9=110,12=2,17=6,18=5,40=1/2;
 3/5=43,7=101,11=2,25=1,30=1,71=1,74=-13,75=-5,124=41/1,2,3;
 4//1;
 5/5=2,38=5/2;
 6/7=2,8=2,9=2,10=2,28=1/1;
 7//1,2,3,16;
 1/18=20,19=15,26=4/3(2);
 2/9=110/2;
 99//99;
 2/9=110/2;
 3/5=43,7=101,11=2,25=1,30=1,71=1,74=-13,75=-5,124=41/1,2,3;
 4/5=5,16=3,69=1/1;
 5/5=2,38=5/2;
 7//1,2,3,16;
 1/18=20,19=15,26=4/3(-5);
 2/9=110/2;
 6/7=2,8=2,9=2,10=2,19=2,28=1/1;
 99/9=1/99;
 ----------
 SDI2997_10
 ----------
 Symbolic Z-matrix:
 Charge =  0 Multiplicity = 1
 N                    -2.04131  -1.64237   0.50997 
 S                    -2.94441  -0.43884   0.2144 
 C                    -2.15253   0.87853  -0.84193 
 C                    -0.77525   1.13466  -0.36775 
 C                    -0.45886   2.26822   0.37591 
 C                     0.82105   2.45432   0.86719 
 C                     1.80579   1.5093    0.6361 
 C                     1.48431   0.38183  -0.1002 
 Br                    2.82705  -0.92554  -0.43346 
 C                     0.21327   0.18453  -0.60521 
 C                    -2.93506   0.41545   1.82797 
 N                    -4.33     -0.52033  -0.44069 
 H                    -2.1096   -2.39208  -0.15858 
 H                    -2.8112    1.7377   -0.77185 
 H                    -2.18772   0.46914  -1.84838 
 H                    -1.2193    3.01209   0.5636 
 H                     1.05713   3.33997   1.43742 
 H                     2.80534   1.64544   1.0183 
 H                    -0.01567  -0.70402  -1.1717 
 H                    -3.49611   1.33752   1.74025 
 H                    -1.90188   0.59316   2.09532 
 H                    -3.39709  -0.24752   2.54916 
 H                    -4.84564  -1.35824  -0.2288 
 

 GradGradGradGradGradGradGradGradGradGradGradGradGradGradGradGradGradGrad
 Berny optimization.
 Initialization pass.
                           ----------------------------
                           !    Initial Parameters    !
                           ! (Angstroms and Degrees)  !
 --------------------------                            --------------------------
 ! Name  Definition              Value          Derivative Info.                !
 --------------------------------------------------------------------------------
 ! R1    R(1,2)                  1.5334         estimate D2E/DX2                !
 ! R2    R(1,13)                 1.0068         estimate D2E/DX2                !
 ! R3    R(2,3)                  1.865          estimate D2E/DX2                !
 ! R4    R(2,11)                 1.8258         estimate D2E/DX2                !
 ! R5    R(2,12)                 1.5348         estimate D2E/DX2                !
 ! R6    R(3,4)                  1.479          estimate D2E/DX2                !
 ! R7    R(3,14)                 1.0849         estimate D2E/DX2                !
 ! R8    R(3,15)                 1.0871         estimate D2E/DX2                !
 ! R9    R(4,5)                  1.3922         estimate D2E/DX2                !
 ! R10   R(4,10)                 1.3915         estimate D2E/DX2                !
 ! R11   R(5,6)                  1.3835         estimate D2E/DX2                !
 ! R12   R(5,16)                 1.0802         estimate D2E/DX2                !
 ! R13   R(6,7)                  1.3843         estimate D2E/DX2                !
 ! R14   R(6,17)                 1.0795         estimate D2E/DX2                !
 ! R15   R(7,8)                  1.3844         estimate D2E/DX2                !
 ! R16   R(7,18)                 1.0788         estimate D2E/DX2                !
 ! R17   R(8,9)                  1.9035         estimate D2E/DX2                !
 ! R18   R(8,10)                 1.3818         estimate D2E/DX2                !
 ! R19   R(10,19)                1.0784         estimate D2E/DX2                !
 ! R20   R(11,20)                1.0829         estimate D2E/DX2                !
 ! R21   R(11,21)                1.0819         estimate D2E/DX2                !
 ! R22   R(11,22)                1.0831         estimate D2E/DX2                !
 ! R23   R(12,23)                1.0064         estimate D2E/DX2                !
 ! A1    A(2,1,13)             114.6137         estimate D2E/DX2                !
 ! A2    A(1,2,3)              114.4247         estimate D2E/DX2                !
 ! A3    A(1,2,11)             101.1795         estimate D2E/DX2                !
 ! A4    A(1,2,12)             124.9087         estimate D2E/DX2                !
 ! A5    A(3,2,11)              99.6645         estimate D2E/DX2                !
 ! A6    A(3,2,12)             100.3154         estimate D2E/DX2                !
 ! A7    A(11,2,12)            113.9961         estimate D2E/DX2                !
 ! A8    A(2,3,4)              109.641          estimate D2E/DX2                !
 ! A9    A(2,3,14)             105.3682         estimate D2E/DX2                !
 ! A10   A(2,3,15)             104.1594         estimate D2E/DX2                !
 ! A11   A(4,3,14)             114.0504         estimate D2E/DX2                !
 ! A12   A(4,3,15)             113.0912         estimate D2E/DX2                !
 ! A13   A(14,3,15)            109.7794         estimate D2E/DX2                !
 ! A14   A(3,4,5)              121.5954         estimate D2E/DX2                !
 ! A15   A(3,4,10)             119.2477         estimate D2E/DX2                !
 ! A16   A(5,4,10)             119.0573         estimate D2E/DX2                !
 ! A17   A(4,5,6)              120.6271         estimate D2E/DX2                !
 ! A18   A(4,5,16)             119.5745         estimate D2E/DX2                !
 ! A19   A(6,5,16)             119.7967         estimate D2E/DX2                !
 ! A20   A(5,6,7)              120.4639         estimate D2E/DX2                !
 ! A21   A(5,6,17)             120.0167         estimate D2E/DX2                !
 ! A22   A(7,6,17)             119.5193         estimate D2E/DX2                !
 ! A23   A(6,7,8)              118.657          estimate D2E/DX2                !
 ! A24   A(6,7,18)             120.9203         estimate D2E/DX2                !
 ! A25   A(8,7,18)             120.4225         estimate D2E/DX2                !
 ! A26   A(7,8,9)              119.2519         estimate D2E/DX2                !
 ! A27   A(7,8,10)             121.6171         estimate D2E/DX2                !
 ! A28   A(9,8,10)             119.1303         estimate D2E/DX2                !
 ! A29   A(4,10,8)             119.5754         estimate D2E/DX2                !
 ! A30   A(4,10,19)            120.0958         estimate D2E/DX2                !
 ! A31   A(8,10,19)            120.3261         estimate D2E/DX2                !
 ! A32   A(2,11,20)            108.9153         estimate D2E/DX2                !
 ! A33   A(2,11,21)            107.4656         estimate D2E/DX2                !
 ! A34   A(2,11,22)            107.4496         estimate D2E/DX2                !
 ! A35   A(20,11,21)           112.0196         estimate D2E/DX2                !
 ! A36   A(20,11,22)           110.7398         estimate D2E/DX2                !
 ! A37   A(21,11,22)           110.0819         estimate D2E/DX2                !
 ! A38   A(2,12,23)            114.6378         estimate D2E/DX2                !
 ! D1    D(13,1,2,3)           -90.4464         estimate D2E/DX2                !
 ! D2    D(13,1,2,11)          163.4306         estimate D2E/DX2                !
 ! D3    D(13,1,2,12)           33.3838         estimate D2E/DX2                !
 ! D4    D(1,2,3,4)            -44.3405         estimate D2E/DX2                !
 ! D5    D(1,2,3,14)          -167.4919         estimate D2E/DX2                !
 ! D6    D(1,2,3,15)            76.959          estimate D2E/DX2                !
 ! D7    D(11,2,3,4)            62.7178         estimate D2E/DX2                !
 ! D8    D(11,2,3,14)          -60.4337         estimate D2E/DX2                !
 ! D9    D(11,2,3,15)         -175.9828         estimate D2E/DX2                !
 ! D10   D(12,2,3,4)           179.4808         estimate D2E/DX2                !
 ! D11   D(12,2,3,14)           56.3294         estimate D2E/DX2                !
 ! D12   D(12,2,3,15)          -59.2197         estimate D2E/DX2                !
 ! D13   D(1,2,11,20)          176.3617         estimate D2E/DX2                !
 ! D14   D(1,2,11,21)           54.8079         estimate D2E/DX2                !
 ! D15   D(1,2,11,22)          -63.6311         estimate D2E/DX2                !
 ! D16   D(3,2,11,20)           58.8959         estimate D2E/DX2                !
 ! D17   D(3,2,11,21)          -62.6579         estimate D2E/DX2                !
 ! D18   D(3,2,11,22)          178.9031         estimate D2E/DX2                !
 ! D19   D(12,2,11,20)         -47.0444         estimate D2E/DX2                !
 ! D20   D(12,2,11,21)        -168.5982         estimate D2E/DX2                !
 ! D21   D(12,2,11,22)          72.9629         estimate D2E/DX2                !
 ! D22   D(1,2,12,23)           32.1861         estimate D2E/DX2                !
 ! D23   D(3,2,12,23)          161.9421         estimate D2E/DX2                !
 ! D24   D(11,2,12,23)         -92.5245         estimate D2E/DX2                !
 ! D25   D(2,3,4,5)           -103.9201         estimate D2E/DX2                !
 ! D26   D(2,3,4,10)            72.4166         estimate D2E/DX2                !
 ! D27   D(14,3,4,5)            13.9468         estimate D2E/DX2                !
 ! D28   D(14,3,4,10)         -169.7166         estimate D2E/DX2                !
 ! D29   D(15,3,4,5)           140.3254         estimate D2E/DX2                !
 ! D30   D(15,3,4,10)          -43.3379         estimate D2E/DX2                !
 ! D31   D(3,4,5,6)            176.6965         estimate D2E/DX2                !
 ! D32   D(3,4,5,16)            -3.7779         estimate D2E/DX2                !
 ! D33   D(10,4,5,6)             0.3531         estimate D2E/DX2                !
 ! D34   D(10,4,5,16)          179.8787         estimate D2E/DX2                !
 ! D35   D(3,4,10,8)          -176.3774         estimate D2E/DX2                !
 ! D36   D(3,4,10,19)            3.0255         estimate D2E/DX2                !
 ! D37   D(5,4,10,8)             0.0531         estimate D2E/DX2                !
 ! D38   D(5,4,10,19)          179.456          estimate D2E/DX2                !
 ! D39   D(4,5,6,7)             -0.5448         estimate D2E/DX2                !
 ! D40   D(4,5,6,17)           179.6166         estimate D2E/DX2                !
 ! D41   D(16,5,6,7)           179.9306         estimate D2E/DX2                !
 ! D42   D(16,5,6,17)            0.092          estimate D2E/DX2                !
 ! D43   D(5,6,7,8)              0.3189         estimate D2E/DX2                !
 ! D44   D(5,6,7,18)          -179.8082         estimate D2E/DX2                !
 ! D45   D(17,6,7,8)          -179.8417         estimate D2E/DX2                !
 ! D46   D(17,6,7,18)            0.0312         estimate D2E/DX2                !
 ! D47   D(6,7,8,9)            179.7811         estimate D2E/DX2                !
 ! D48   D(6,7,8,10)             0.0913         estimate D2E/DX2                !
 ! D49   D(18,7,8,9)            -0.0924         estimate D2E/DX2                !
 ! D50   D(18,7,8,10)         -179.7823         estimate D2E/DX2                !
 ! D51   D(7,8,10,4)            -0.2769         estimate D2E/DX2                !
 ! D52   D(7,8,10,19)         -179.6784         estimate D2E/DX2                !
 ! D53   D(9,8,10,4)          -179.9671         estimate D2E/DX2                !
 ! D54   D(9,8,10,19)            0.6314         estimate D2E/DX2                !
 --------------------------------------------------------------------------------
 Trust Radius=3.00D-01 FncErr=1.00D-07 GrdErr=1.00D-06 EigMax=2.50D+02 EigMin=1.00D-04
 Number of steps in this run=    125 maximum allowed number of steps=    138.
 GradGradGradGradGradGradGradGradGradGradGradGradGradGradGradGradGradGrad

                          Input orientation:                          
 ---------------------------------------------------------------------
 Center     Atomic      Atomic             Coordinates (Angstroms)
 Number     Number       Type             X           Y           Z
 ---------------------------------------------------------------------
      1          7           0       -2.041308   -1.642374    0.509968
      2         16           0       -2.944405   -0.438837    0.214405
      3          6           0       -2.152527    0.878530   -0.841933
      4          6           0       -0.775251    1.134656   -0.367748
      5          6           0       -0.458864    2.268223    0.375908
      6          6           0        0.821053    2.454322    0.867192
      7          6           0        1.805792    1.509299    0.636103
      8          6           0        1.484306    0.381832   -0.100197
      9         35           0        2.827054   -0.925536   -0.433457
     10          6           0        0.213269    0.184525   -0.605205
     11          6           0       -2.935062    0.415454    1.827969
     12          7           0       -4.330001   -0.520330   -0.440691
     13          1           0       -2.109595   -2.392084   -0.158585
     14          1           0       -2.811205    1.737703   -0.771852
     15          1           0       -2.187716    0.469138   -1.848375
     16          1           0       -1.219298    3.012091    0.563598
     17          1           0        1.057133    3.339971    1.437419
     18          1           0        2.805341    1.645443    1.018299
     19          1           0       -0.015671   -0.704023   -1.171701
     20          1           0       -3.496110    1.337523    1.740249
     21          1           0       -1.901884    0.593158    2.095323
     22          1           0       -3.397091   -0.247522    2.549157
     23          1           0       -4.845640   -1.358237   -0.228795
 ---------------------------------------------------------------------
                    Distance matrix (angstroms):
                    1          2          3          4          5
     1  N    0.000000
     2  S    1.533441   0.000000
     3  C    2.862684   1.865040   0.000000
     4  C    3.175717   2.742264   1.478967   0.000000
     5  C    4.220766   3.678610   2.506567   1.392156   0.000000
     6  C    5.010352   4.793242   3.774441   2.411385   1.383539
     7  C    4.974849   5.151450   4.272090   2.794612   2.402568
     8  C    4.110920   4.515080   3.744788   2.396649   2.749738
     9  Br   5.010475   5.828065   5.312037   4.150339   4.653217
    10  C    3.108744   3.321332   2.476827   1.391513   2.399196
    11  C    2.602033   1.825785   2.820492   3.162784   3.416546
    12  N    2.720450   1.534818   2.619006   3.921804   4.840305
    13  H    1.006823   2.156664   3.341515   3.776522   4.972832
    14  H    3.696041   2.393276   1.084871   2.161498   2.670639
    15  H    3.168865   2.377406   1.087090   2.151797   3.342614
    16  H    4.726798   3.873866   2.720022   2.142275   1.080198
    17  H    5.940056   5.638037   4.642850   3.388166   2.138621
    18  H    5.878617   6.168472   5.350614   3.873327   3.384605
    19  H    2.794945   3.251014   2.679436   2.145704   3.380201
    20  H    3.536923   2.405833   2.946786   3.447880   3.457237
    21  H    2.744156   2.385313   2.961711   2.762108   2.800810
    22  H    2.818164   2.385916   3.783705   4.158461   4.436796
    23  H    2.913895   2.157874   3.554141   4.775133   5.723695
                    6          7          8          9         10
     6  C    0.000000
     7  C    1.384262   0.000000
     8  C    2.381378   1.384439   0.000000
     9  Br   4.139947   2.848746   1.903483   0.000000
    10  C    2.772964   2.414953   1.381846   2.844926   0.000000
    11  C    4.380464   5.009265   4.821801   6.333584   3.985681
    12  N    6.090358   6.551857   5.893724   7.168520   4.600563
    13  H    5.755742   5.584136   4.540280   5.157211   3.497726
    14  H    4.048864   4.832304   4.554220   6.244783   3.404053
    15  H    4.513086   4.816915   4.067861   5.393981   2.718677
    16  H    2.136892   3.378581   3.829930   5.733410   3.378384
    17  H    1.079476   2.134001   3.361150   4.982705   3.852436
    18  H    2.148143   1.078752   2.143101   2.952626   3.389525
    19  H    3.851276   3.388904   2.139423   2.945362   1.078355
    20  H    4.543937   5.418377   5.394916   7.058954   4.537626
    21  H    3.519464   4.088460   4.041194   5.573511   3.454520
    22  H    5.284099   5.815169   5.589561   6.935104   4.813665
    23  H    6.917239   7.294680   6.566018   7.687611   5.302298
                   11         12         13         14         15
    11  C    0.000000
    12  N    2.822829   0.000000
    13  H    3.536957   2.917747   0.000000
    14  H    2.919375   2.741372   4.233614   0.000000
    15  H    3.751921   2.747727   3.323866   1.776765   0.000000
    16  H    3.359315   4.812802   5.524426   2.437552   3.636215
    17  H    4.964167   6.888427   6.740316   4.734151   5.437571
    18  H    5.926268   7.598179   6.468638   5.895654   5.876404
    19  H    4.332908   4.379676   2.874104   3.733218   2.559683
    20  H    1.082904   2.983871   4.408850   2.634367   3.917168
    21  H    1.081902   3.683337   3.746320   3.218314   3.955988
    22  H    1.083107   3.143873   3.686280   3.913245   4.616761
    23  H    3.320628   1.006416   2.925698   3.744153   3.609280
                   16         17         18         19         20
    16  H    0.000000
    17  H    2.460327   0.000000
    18  H    4.274599   2.470489   0.000000
    19  H    4.274282   4.930751   4.274833   0.000000
    20  H    3.061463   4.983325   6.350142   4.976024   0.000000
    21  H    2.943356   4.090673   4.942191   3.989226   1.794913
    22  H    4.394349   5.826336   6.663108   5.048483   1.782276
    23  H    5.733935   7.726071   8.313534   4.964441   3.600762
                   21         22         23
    21  H    0.000000
    22  H    1.774359   0.000000
    23  H    4.227904   3.324004   0.000000
 Stoichiometry    C8H11BrN2S
 Framework group  C1[X(C8H11BrN2S)]
 Deg. of freedom    63
 Full point group                 C1      NOp   1
 Largest Abelian subgroup         C1      NOp   1
 Largest concise Abelian subgroup C1      NOp   1
                         Standard orientation:                         
 ---------------------------------------------------------------------
 Center     Atomic      Atomic             Coordinates (Angstroms)
 Number     Number       Type             X           Y           Z
 ---------------------------------------------------------------------
      1          7           0       -1.814909   -1.646083    0.766364
      2         16           0       -2.739320   -0.625917    0.090963
      3          6           0       -1.912417    0.418277   -1.214511
      4          6           0       -0.597594    0.881980   -0.720989
      5          6           0       -0.401906    2.189606   -0.285194
      6          6           0        0.817596    2.583833    0.235938
      7          6           0        1.860433    1.679800    0.342703
      8          6           0        1.658722    0.379633   -0.088051
      9         35           0        3.083200   -0.875905    0.045107
     10          6           0        0.449818   -0.028386   -0.618684
     11          6           0       -2.917079    0.620496    1.413213
     12          7           0       -4.053443   -0.969553   -0.623643
     13          1           0       -1.787776   -2.547799    0.319301
     14          1           0       -2.612218    1.219368   -1.427766
     15          1           0       -1.836226   -0.242290   -2.074518
     16          1           0       -1.208684    2.903718   -0.362535
     17          1           0        0.960431    3.601896    0.565202
     18          1           0        2.813345    1.978440    0.750723
     19          1           0        0.313870   -1.047779   -0.943037
     20          1           0       -3.507969    1.447291    1.039129
     21          1           0       -1.921944    0.931267    1.702420
     22          1           0       -3.413924    0.140471    2.247385
     23          1           0       -4.548778   -1.755228   -0.236047
 ---------------------------------------------------------------------
 Rotational constants (GHZ):           1.1484337           0.3051437           0.2629556
 Standard basis: def2SVP (5D, 7F)
 There are   259 symmetry adapted cartesian basis functions of A   symmetry.
 There are   245 symmetry adapted basis functions of A   symmetry.
   245 basis functions,   444 primitive gaussians,   259 cartesian basis functions
    62 alpha electrons       62 beta electrons
       nuclear repulsion energy      1095.9066505705 Hartrees.
 NAtoms=   23 NActive=   23 NUniq=   23 SFac= 1.00D+00 NAtFMM=   60 NAOKFM=F Big=F
 Integral buffers will be    131072 words long.
 Raffenetti 2 integral format.
 Two-electron integral symmetry is turned on.
 Nuclear repulsion after empirical dispersion term =     1095.8784232691 Hartrees.
 One-electron integrals computed using PRISM.
   1 Symmetry operations used in ECPInt.
 ECPInt:  NShTT=    6441 NPrTT=   25202 LenC2=    6142 LenP2D=   17667.
 LDataN:  DoStor=T MaxTD1= 4 Len=   56
 NBasis=   245 RedAO= T EigKep=  2.53D-04  NBF=   245
 NBsUse=   245 1.00D-06 EigRej= -1.00D+00 NBFU=   245
 ExpMin= 1.22D-01 ExpMax= 1.13D+05 ExpMxC= 1.70D+04 IAcc=3 IRadAn=         5 AccDes= 0.00D+00
 Harris functional with IExCor= 1009 and IRadAn=       5 diagonalized for initial guess.
 HarFok:  IExCor= 1009 AccDes= 0.00D+00 IRadAn=         5 IDoV= 1 UseB2=F ITyADJ=14
 ICtDFT=  3500011 ScaDFX=  1.000000  1.000000  1.000000  1.000000
 FoFCou: FMM=F IPFlag=           0 FMFlag=      100000 FMFlg1=           0
         NFxFlg=           0 DoJE=T BraDBF=F KetDBF=T FulRan=T
         wScrn=  0.000000 ICntrl=       500 IOpCl=  0 I1Cent=   200000004 NGrid=           0
         NMat0=    1 NMatS0=      1 NMatT0=    0 NMatD0=    1 NMtDS0=    0 NMtDT0=    0
 Petite list used in FoFCou.
 Requested convergence on RMS density matrix=1.00D-08 within 128 cycles.
 Requested convergence on MAX density matrix=1.00D-06.
 Requested convergence on             energy=1.00D-06.
 No special actions if energy rises.
 Integral accuracy reduced to 1.0D-05 until final iterations.
 Initial convergence to 1.0D-05 achieved.  Increase integral accuracy.
 SCF Done:  E(RPBE1PBE) =  -3391.54609816     A.U. after   14 cycles
            NFock= 14  Conv=0.79D-08     -V/T= 2.0022

 **********************************************************************

            Population analysis using the SCF Density.

 **********************************************************************

 Orbital symmetries:
       Occupied  (A) (A) (A) (A) (A) (A) (A) (A) (A) (A) (A) (A)
                 (A) (A) (A) (A) (A) (A) (A) (A) (A) (A) (A) (A)
                 (A) (A) (A) (A) (A) (A) (A) (A) (A) (A) (A) (A)
                 (A) (A) (A) (A) (A) (A) (A) (A) (A) (A) (A) (A)
                 (A) (A) (A) (A) (A) (A) (A) (A) (A) (A) (A) (A)
                 (A) (A)
       Virtual   (A) (A) (A) (A) (A) (A) (A) (A) (A) (A) (A) (A)
                 (A) (A) (A) (A) (A) (A) (A) (A) (A) (A) (A) (A)
                 (A) (A) (A) (A) (A) (A) (A) (A) (A) (A) (A) (A)
                 (A) (A) (A) (A) (A) (A) (A) (A) (A) (A) (A) (A)
                 (A) (A) (A) (A) (A) (A) (A) (A) (A) (A) (A) (A)
                 (A) (A) (A) (A) (A) (A) (A) (A) (A) (A) (A) (A)
                 (A) (A) (A) (A) (A) (A) (A) (A) (A) (A) (A) (A)
                 (A) (A) (A) (A) (A) (A) (A) (A) (A) (A) (A) (A)
                 (A) (A) (A) (A) (A) (A) (A) (A) (A) (A) (A) (A)
                 (A) (A) (A) (A) (A) (A) (A) (A) (A) (A) (A) (A)
                 (A) (A) (A) (A) (A) (A) (A) (A) (A) (A) (A) (A)
                 (A) (A) (A) (A) (A) (A) (A) (A) (A) (A) (A) (A)
                 (A) (A) (A) (A) (A) (A) (A) (A) (A) (A) (A) (A)
                 (A) (A) (A) (A) (A) (A) (A) (A) (A) (A) (A) (A)
                 (A) (A) (A) (A) (A) (A) (A) (A) (A) (A) (A) (A)
                 (A) (A) (A)
 The electronic state is 1-A.
 Alpha  occ. eigenvalues -- -483.19322 -89.17981 -62.62695 -56.41689 -56.41337
 Alpha  occ. eigenvalues --  -56.41326 -14.34790 -14.34282 -10.29660 -10.26913
 Alpha  occ. eigenvalues --  -10.26443 -10.25896 -10.25478 -10.25394 -10.25371
 Alpha  occ. eigenvalues --  -10.25294  -8.77306  -8.15474  -6.58787  -6.57503
 Alpha  occ. eigenvalues --   -6.57475  -6.09604  -6.09494  -6.09469  -2.67342
 Alpha  occ. eigenvalues --   -2.66972  -2.66951  -2.65919  -2.65919  -1.00465
 Alpha  occ. eigenvalues --   -0.91112  -0.85313  -0.84112  -0.81134  -0.76961
 Alpha  occ. eigenvalues --   -0.75254  -0.73148  -0.64344  -0.62905  -0.60434
 Alpha  occ. eigenvalues --   -0.54835  -0.53171  -0.51606  -0.49708  -0.48025
 Alpha  occ. eigenvalues --   -0.47033  -0.45111  -0.44380  -0.44065  -0.42871
 Alpha  occ. eigenvalues --   -0.42210  -0.40726  -0.38422  -0.37108  -0.34731
 Alpha  occ. eigenvalues --   -0.33250  -0.30081  -0.29003  -0.26692  -0.25788
 Alpha  occ. eigenvalues --   -0.25621  -0.24156
 Alpha virt. eigenvalues --   -0.03027  -0.01980   0.01193   0.05526   0.06759
 Alpha virt. eigenvalues --    0.08110   0.08483   0.09071   0.10179   0.10672
 Alpha virt. eigenvalues --    0.12191   0.12711   0.13403   0.14183   0.14861
 Alpha virt. eigenvalues --    0.15884   0.16537   0.17359   0.22399   0.22911
 Alpha virt. eigenvalues --    0.26036   0.28544   0.29815   0.32230   0.33405
 Alpha virt. eigenvalues --    0.33829   0.37542   0.38818   0.40053   0.42123
 Alpha virt. eigenvalues --    0.42709   0.43300   0.44437   0.46489   0.47620
 Alpha virt. eigenvalues --    0.48202   0.48745   0.50384   0.51081   0.52190
 Alpha virt. eigenvalues --    0.52806   0.53599   0.54527   0.55571   0.57259
 Alpha virt. eigenvalues --    0.60025   0.60091   0.62128   0.62712   0.63352
 Alpha virt. eigenvalues --    0.64118   0.64508   0.65141   0.66654   0.66813
 Alpha virt. eigenvalues --    0.68241   0.68628   0.69588   0.69817   0.70808
 Alpha virt. eigenvalues --    0.71397   0.71571   0.72685   0.73212   0.74348
 Alpha virt. eigenvalues --    0.74745   0.76583   0.77104   0.78653   0.81115
 Alpha virt. eigenvalues --    0.81965   0.83061   0.84213   0.86468   0.86730
 Alpha virt. eigenvalues --    0.88892   0.91320   0.93730   0.96421   0.97790
 Alpha virt. eigenvalues --    0.98500   1.02441   1.03300   1.04568   1.06857
 Alpha virt. eigenvalues --    1.09147   1.11742   1.13050   1.16553   1.19583
 Alpha virt. eigenvalues --    1.20165   1.21474   1.23275   1.24997   1.26205
 Alpha virt. eigenvalues --    1.28027   1.29209   1.32789   1.34734   1.36726
 Alpha virt. eigenvalues --    1.44979   1.46289   1.47983   1.50019   1.51104
 Alpha virt. eigenvalues --    1.53224   1.54533   1.65257   1.66664   1.68098
 Alpha virt. eigenvalues --    1.71101   1.73387   1.73678   1.74610   1.75599
 Alpha virt. eigenvalues --    1.76598   1.77746   1.78673   1.81368   1.82545
 Alpha virt. eigenvalues --    1.83532   1.84241   1.85137   1.88110   1.91137
 Alpha virt. eigenvalues --    1.94264   1.96426   1.97990   1.99197   2.00056
 Alpha virt. eigenvalues --    2.01074   2.02926   2.09333   2.11321   2.13885
 Alpha virt. eigenvalues --    2.15792   2.16497   2.16896   2.17863   2.21424
 Alpha virt. eigenvalues --    2.23523   2.27513   2.28593   2.30972   2.31685
 Alpha virt. eigenvalues --    2.33212   2.35755   2.40857   2.43342   2.43702
 Alpha virt. eigenvalues --    2.45387   2.47637   2.53696   2.56573   2.57724
 Alpha virt. eigenvalues --    2.58357   2.59795   2.61965   2.63422   2.65684
 Alpha virt. eigenvalues --    2.66404   2.74522   2.75777   2.81399   2.84395
 Alpha virt. eigenvalues --    2.87338   2.89322   2.89974   2.90871   2.96131
 Alpha virt. eigenvalues --    2.96421   2.98835   3.05431   3.11680   3.24799
 Alpha virt. eigenvalues --    3.27791   3.31791   3.45520   3.49206   3.53630
 Alpha virt. eigenvalues --    3.60658   3.65927   3.85914
          Condensed to atoms (all electrons):
               1          2          3          4          5          6
     1  N    6.905184   0.337210  -0.054663  -0.011549  -0.000660   0.000102
     2  S    0.337210  14.657772   0.208280  -0.086271  -0.000520  -0.000243
     3  C   -0.054663   0.208280   5.354334   0.244025  -0.080972   0.012678
     4  C   -0.011549  -0.086271   0.244025   5.479512   0.256348   0.093097
     5  C   -0.000660  -0.000520  -0.080972   0.256348   5.155953   0.281414
     6  C    0.000102  -0.000243   0.012678   0.093097   0.281414   5.012457
     7  C    0.000027   0.000170  -0.001307  -0.156815   0.100265   0.292185
     8  C   -0.001280   0.000145   0.012287   0.122701  -0.168148   0.106300
     9  Br  -0.000040  -0.000002  -0.000209   0.004423   0.000825   0.003734
    10  C    0.021867  -0.001500  -0.113736   0.278699   0.055038  -0.122474
    11  C   -0.094227   0.247509  -0.137752   0.011926   0.002340  -0.000874
    12  N   -0.037035   0.348922  -0.105400   0.011352  -0.000101   0.000001
    13  H    0.323559  -0.008932  -0.004695   0.000010   0.000009  -0.000005
    14  H    0.003403  -0.007449   0.334463  -0.010951  -0.008868   0.000513
    15  H   -0.001632  -0.007454   0.329401  -0.000642   0.005364  -0.000484
    16  H    0.000008   0.000054  -0.014952  -0.074413   0.450724  -0.063028
    17  H    0.000001  -0.000003  -0.000304   0.016770  -0.073031   0.456852
    18  H    0.000001   0.000000   0.000033  -0.001422   0.013794  -0.057957
    19  H    0.013491   0.001579  -0.015353  -0.065888   0.013614  -0.001746
    20  H    0.006136  -0.017585   0.008797  -0.001729   0.000700   0.000042
    21  H    0.006423  -0.002527   0.002159   0.000594   0.000426   0.000618
    22  H    0.007561  -0.003117   0.007862  -0.000534  -0.000056   0.000023
    23  H   -0.001515  -0.013908   0.010200  -0.000701   0.000005  -0.000000
               7          8          9         10         11         12
     1  N    0.000027  -0.001280  -0.000040   0.021867  -0.094227  -0.037035
     2  S    0.000170   0.000145  -0.000002  -0.001500   0.247509   0.348922
     3  C   -0.001307   0.012287  -0.000209  -0.113736  -0.137752  -0.105400
     4  C   -0.156815   0.122701   0.004423   0.278699   0.011926   0.011352
     5  C    0.100265  -0.168148   0.000825   0.055038   0.002340  -0.000101
     6  C    0.292185   0.106300   0.003734  -0.122474  -0.000874   0.000001
     7  C    5.082621   0.262752  -0.064619   0.065565  -0.000041  -0.000000
     8  C    0.262752   5.330081   0.233100   0.273753   0.000077  -0.000003
     9  Br  -0.064619   0.233100  34.920569  -0.065614   0.000001  -0.000000
    10  C    0.065565   0.273753  -0.065614   5.071291   0.002119   0.000364
    11  C   -0.000041   0.000077   0.000001   0.002119   5.009166  -0.047031
    12  N   -0.000000  -0.000003  -0.000000   0.000364  -0.047031   6.908111
    13  H    0.000000   0.000201   0.000002  -0.000581   0.009067  -0.001541
    14  H    0.000042  -0.000359   0.000003   0.010078   0.002975   0.010058
    15  H    0.000088   0.000902  -0.000016  -0.004003   0.007831   0.013145
    16  H    0.014909  -0.001787   0.000020   0.015438   0.000625  -0.000040
    17  H   -0.074091   0.016230  -0.000203  -0.002175  -0.000017  -0.000000
    18  H    0.441855  -0.064512  -0.000115   0.014102  -0.000001   0.000000
    19  H    0.014715  -0.051154  -0.000349   0.430389   0.000275  -0.000024
    20  H    0.000009  -0.000021   0.000000  -0.000105   0.360485   0.004015
    21  H   -0.000010   0.000180  -0.000003  -0.001301   0.350231   0.003623
    22  H    0.000001  -0.000015   0.000000  -0.000139   0.359506   0.000463
    23  H    0.000000  -0.000001   0.000000  -0.000055  -0.005371   0.329793
              13         14         15         16         17         18
     1  N    0.323559   0.003403  -0.001632   0.000008   0.000001   0.000001
     2  S   -0.008932  -0.007449  -0.007454   0.000054  -0.000003   0.000000
     3  C   -0.004695   0.334463   0.329401  -0.014952  -0.000304   0.000033
     4  C    0.000010  -0.010951  -0.000642  -0.074413   0.016770  -0.001422
     5  C    0.000009  -0.008868   0.005364   0.450724  -0.073031   0.013794
     6  C   -0.000005   0.000513  -0.000484  -0.063028   0.456852  -0.057957
     7  C    0.000000   0.000042   0.000088   0.014909  -0.074091   0.441855
     8  C    0.000201  -0.000359   0.000902  -0.001787   0.016230  -0.064512
     9  Br   0.000002   0.000003  -0.000016   0.000020  -0.000203  -0.000115
    10  C   -0.000581   0.010078  -0.004003   0.015438  -0.002175   0.014102
    11  C    0.009067   0.002975   0.007831   0.000625  -0.000017  -0.000001
    12  N   -0.001541   0.010058   0.013145  -0.000040  -0.000000   0.000000
    13  H    0.555389  -0.000098   0.001736   0.000001  -0.000000  -0.000000
    14  H   -0.000098   0.597630  -0.010018   0.005169  -0.000008  -0.000001
    15  H    0.001736  -0.010018   0.576140   0.000202   0.000006  -0.000001
    16  H    0.000001   0.005169   0.000202   0.674172  -0.012730  -0.000259
    17  H   -0.000000  -0.000008   0.000006  -0.012730   0.662650  -0.012520
    18  H   -0.000000  -0.000001  -0.000001  -0.000259  -0.012520   0.645779
    19  H    0.001138   0.000668   0.004302  -0.000248   0.000028  -0.000276
    20  H   -0.000415   0.000238  -0.000286   0.000376   0.000002  -0.000000
    21  H   -0.000856  -0.000308  -0.000519  -0.000299   0.000049  -0.000002
    22  H   -0.000459  -0.000364  -0.000266  -0.000002   0.000001  -0.000000
    23  H    0.001812  -0.000914  -0.000646   0.000000   0.000000  -0.000000
              19         20         21         22         23
     1  N    0.013491   0.006136   0.006423   0.007561  -0.001515
     2  S    0.001579  -0.017585  -0.002527  -0.003117  -0.013908
     3  C   -0.015353   0.008797   0.002159   0.007862   0.010200
     4  C   -0.065888  -0.001729   0.000594  -0.000534  -0.000701
     5  C    0.013614   0.000700   0.000426  -0.000056   0.000005
     6  C   -0.001746   0.000042   0.000618   0.000023  -0.000000
     7  C    0.014715   0.000009  -0.000010   0.000001   0.000000
     8  C   -0.051154  -0.000021   0.000180  -0.000015  -0.000001
     9  Br  -0.000349   0.000000  -0.000003   0.000000   0.000000
    10  C    0.430389  -0.000105  -0.001301  -0.000139  -0.000055
    11  C    0.000275   0.360485   0.350231   0.359506  -0.005371
    12  N   -0.000024   0.004015   0.003623   0.000463   0.329793
    13  H    0.001138  -0.000415  -0.000856  -0.000459   0.001812
    14  H    0.000668   0.000238  -0.000308  -0.000364  -0.000914
    15  H    0.004302  -0.000286  -0.000519  -0.000266  -0.000646
    16  H   -0.000248   0.000376  -0.000299  -0.000002   0.000000
    17  H    0.000028   0.000002   0.000049   0.000001   0.000000
    18  H   -0.000276  -0.000000  -0.000002  -0.000000  -0.000000
    19  H    0.653749  -0.000036   0.000109  -0.000024  -0.000031
    20  H   -0.000036   0.591361  -0.013673  -0.009072  -0.000105
    21  H    0.000109  -0.013673   0.555976  -0.003685  -0.000056
    22  H   -0.000024  -0.009072  -0.003685   0.551875   0.001718
    23  H   -0.000031  -0.000105  -0.000056   0.001718   0.557288
 Mulliken charges:
               1
     1  N   -0.422372
     2  S    0.347870
     3  C    0.004823
     4  C   -0.108541
     5  C   -0.004461
     6  C   -0.013207
     7  C    0.021679
     8  C   -0.071431
     9  Br  -0.031504
    10  C    0.072982
    11  C   -0.078819
    12  N   -0.438675
    13  H    0.124659
    14  H    0.074098
    15  H    0.086850
    16  H    0.006060
    17  H    0.022494
    18  H    0.021502
    19  H    0.001072
    20  H    0.070865
    21  H    0.102849
    22  H    0.088722
    23  H    0.122486
 Sum of Mulliken charges =  -0.00000
 Mulliken charges with hydrogens summed into heavy atoms:
               1
     1  N   -0.297713
     2  S    0.347870
     3  C    0.165772
     4  C   -0.108541
     5  C    0.001599
     6  C    0.009287
     7  C    0.043181
     8  C   -0.071431
     9  Br  -0.031504
    10  C    0.074053
    11  C    0.183617
    12  N   -0.316189
 Electronic spatial extent (au):  <R**2>=           3870.9553
 Charge=             -0.0000 electrons
 Dipole moment (field-independent basis, Debye):
    X=             -0.7628    Y=              2.0216    Z=              0.3216  Tot=              2.1845
 Quadrupole moment (field-independent basis, Debye-Ang):
   XX=            -95.0786   YY=            -81.6943   ZZ=            -93.4462
   XY=              0.0526   XZ=             -4.1618   YZ=              3.9287
 Traceless Quadrupole moment (field-independent basis, Debye-Ang):
   XX=             -5.0056   YY=              8.3787   ZZ=             -3.3731
   XY=              0.0526   XZ=             -4.1618   YZ=              3.9287
 Octapole moment (field-independent basis, Debye-Ang**2):
  XXX=            105.8990  YYY=            -33.5558  ZZZ=              4.1562  XYY=             16.3245
  XXY=            -10.3841  XXZ=             38.5131  XZZ=             26.8160  YZZ=             -9.1413
  YYZ=              1.6745  XYZ=              4.7544
 Hexadecapole moment (field-independent basis, Debye-Ang**3):
 XXXX=          -3365.8119 YYYY=           -870.0638 ZZZZ=           -347.8073 XXXY=            -47.3252
 XXXZ=           -132.6405 YYYX=            -37.3442 YYYZ=             20.7182 ZZZX=             -9.2161
 ZZZY=              6.0320 XXYY=           -613.9420 XXZZ=           -618.4793 YYZZ=           -237.0851
 XXYZ=            -10.4867 YYXZ=             17.5989 ZZXY=            -38.4658
 N-N= 1.095878423269D+03 E-N=-1.026331535098D+04  KE= 3.384203844290D+03
   1 Symmetry operations used in ECPInt.
 ECPInt:  NShTT=    6441 NPrTT=   25202 LenC2=    6142 LenP2D=   17667.
 LDataN:  DoStor=T MaxTD1= 5 Len=  102
 Calling FoFJK, ICntrl=      2127 FMM=F ISym2X=0 I1Cent= 0 IOpClX= 0 NMat=1 NMatS=1 NMatT=0.
 ***** Axes restored to original set *****
 -------------------------------------------------------------------
 Center     Atomic                   Forces (Hartrees/Bohr)
 Number     Number              X              Y              Z
 -------------------------------------------------------------------
      1        7           0.009175428    0.001578139    0.017934146
      2       16          -0.007375015    0.001874603    0.002220926
      3        6           0.000600391   -0.007145226    0.012266055
      4        6          -0.000816547    0.002696588   -0.001892801
      5        6          -0.000303920   -0.000265615   -0.001259593
      6        6          -0.000490946   -0.000128387    0.000173762
      7        6           0.000353594   -0.000287459    0.000210674
      8        6           0.010501787   -0.009647587   -0.003099138
      9       35          -0.003725102    0.003611396    0.000934649
     10        6           0.000586349    0.000214481   -0.000288917
     11        6           0.003495309   -0.006866356   -0.014236888
     12        7          -0.000347175    0.015530799   -0.012519340
     13        1          -0.003211940   -0.003427101   -0.012090207
     14        1          -0.005475225    0.007054489   -0.000871136
     15        1          -0.003085676   -0.005221519   -0.006119609
     16        1          -0.006709439    0.006269316    0.001574499
     17        1           0.002082524    0.007719326    0.004821115
     18        1           0.008290488    0.000907361    0.002991883
     19        1          -0.001445847   -0.007113697   -0.004013396
     20        1          -0.005211895    0.008208908   -0.002657434
     21        1           0.009722822    0.002384287    0.003951779
     22        1          -0.004622215   -0.008431695    0.003684678
     23        1          -0.001987748   -0.009515051    0.008284291
 -------------------------------------------------------------------
 Cartesian Forces:  Max     0.017934146 RMS     0.006277434

 GradGradGradGradGradGradGradGradGradGradGradGradGradGradGradGradGradGrad
 Berny optimization.
 FormGI is forming the generalized inverse of G from B-inverse, IUseBI=4.
 Internal  Forces:  Max     0.012617972 RMS     0.004564389
 Search for a local minimum.
 Step number   1 out of a maximum of  125
 All quantities printed in internal units (Hartrees-Bohrs-Radians)
 Mixed Optimization -- RFO/linear search
 Second derivative matrix not updated -- first step.
 ITU=  0
     Eigenvalues ---    0.00230   0.00230   0.01044   0.01742   0.02210
     Eigenvalues ---    0.02248   0.02265   0.02288   0.02296   0.02302
     Eigenvalues ---    0.02303   0.02314   0.03481   0.03499   0.04656
     Eigenvalues ---    0.05793   0.05887   0.06103   0.06352   0.07489
     Eigenvalues ---    0.08388   0.08631   0.12411   0.14514   0.15999
     Eigenvalues ---    0.15999   0.16000   0.16000   0.16000   0.16000
     Eigenvalues ---    0.16000   0.16000   0.16000   0.18082   0.18945
     Eigenvalues ---    0.21597   0.21998   0.22000   0.23461   0.23500
     Eigenvalues ---    0.24186   0.24948   0.25000   0.34688   0.35151
     Eigenvalues ---    0.35412   0.35621   0.35646   0.35765   0.35970
     Eigenvalues ---    0.36058   0.36145   0.36194   0.43283   0.43562
     Eigenvalues ---    0.46509   0.46578   0.47329   0.47744   0.48361
     Eigenvalues ---    0.48641   0.66212   0.66588
 RFO step:  Lambda=-8.61596905D-03 EMin= 2.30000000D-03
 Linear search not attempted -- first point.
 Iteration  1 RMS(Cart)=  0.07184577 RMS(Int)=  0.00164342
 Iteration  2 RMS(Cart)=  0.00227666 RMS(Int)=  0.00015227
 Iteration  3 RMS(Cart)=  0.00000516 RMS(Int)=  0.00015218
 Iteration  4 RMS(Cart)=  0.00000000 RMS(Int)=  0.00015218
 Variable       Old X    -DE/DX   Delta X   Delta X   Delta X     New X
                                 (Linear)    (Quad)   (Total)
    R1        2.89778   0.00609   0.00000   0.00903   0.00903   2.90681
    R2        1.90262   0.01080   0.00000   0.02279   0.02279   1.92541
    R3        3.52441  -0.00387   0.00000  -0.01722  -0.01722   3.50720
    R4        3.45023  -0.01036   0.00000  -0.04138  -0.04138   3.40885
    R5        2.90039   0.00360   0.00000   0.00536   0.00536   2.90575
    R6        2.79484   0.00849   0.00000   0.02388   0.02388   2.81872
    R7        2.05011   0.00885   0.00000   0.02441   0.02441   2.07452
    R8        2.05430   0.00773   0.00000   0.02147   0.02147   2.07577
    R9        2.63079   0.00814   0.00000   0.01695   0.01695   2.64775
   R10        2.62958   0.00971   0.00000   0.02018   0.02019   2.64977
   R11        2.61451   0.00924   0.00000   0.01874   0.01874   2.63325
   R12        2.04128   0.00931   0.00000   0.02529   0.02529   2.06657
   R13        2.61588   0.00960   0.00000   0.01960   0.01959   2.63547
   R14        2.03991   0.00934   0.00000   0.02529   0.02529   2.06520
   R15        2.61621   0.00871   0.00000   0.01779   0.01779   2.63400
   R16        2.03855   0.00886   0.00000   0.02393   0.02393   2.06248
   R17        3.59706  -0.00527   0.00000  -0.02783  -0.02783   3.56923
   R18        2.61131   0.00892   0.00000   0.01797   0.01797   2.62928
   R19        2.03779   0.00828   0.00000   0.02234   0.02234   2.06013
   R20        2.04639   0.00991   0.00000   0.02713   0.02713   2.07353
   R21        2.04450   0.01065   0.00000   0.02909   0.02909   2.07358
   R22        2.04678   0.00959   0.00000   0.02627   0.02627   2.07305
   R23        1.90185   0.01068   0.00000   0.02252   0.02252   1.92437
    A1        2.00039  -0.01262   0.00000  -0.07483  -0.07483   1.92555
    A2        1.99709   0.00033   0.00000   0.00185   0.00187   1.99896
    A3        1.76592  -0.00186   0.00000  -0.00946  -0.00947   1.75645
    A4        2.18007   0.00243   0.00000   0.01976   0.01977   2.19984
    A5        1.73947   0.00141   0.00000   0.00092   0.00090   1.74038
    A6        1.75083  -0.00239   0.00000  -0.01594  -0.01594   1.73489
    A7        1.98961   0.00010   0.00000  -0.00002  -0.00005   1.98955
    A8        1.91360   0.01129   0.00000   0.05335   0.05320   1.96679
    A9        1.83902  -0.00218   0.00000  -0.00063  -0.00106   1.83796
   A10        1.81792  -0.00704   0.00000  -0.04432  -0.04452   1.77341
   A11        1.99055  -0.00336   0.00000  -0.00815  -0.00857   1.98199
   A12        1.97381   0.00000   0.00000   0.00903   0.00967   1.98349
   A13        1.91601   0.00103   0.00000  -0.01196  -0.01230   1.90371
   A14        2.12224  -0.00189   0.00000  -0.00680  -0.00686   2.11537
   A15        2.08127   0.00211   0.00000   0.00867   0.00861   2.08987
   A16        2.07794  -0.00019   0.00000  -0.00080  -0.00084   2.07711
   A17        2.10534   0.00009   0.00000   0.00014   0.00015   2.10549
   A18        2.08697  -0.00025   0.00000  -0.00129  -0.00129   2.08568
   A19        2.09085   0.00016   0.00000   0.00116   0.00115   2.09200
   A20        2.10249   0.00002   0.00000   0.00020   0.00019   2.10268
   A21        2.09469  -0.00000   0.00000  -0.00004  -0.00005   2.09464
   A22        2.08600  -0.00002   0.00000  -0.00014  -0.00014   2.08586
   A23        2.07096  -0.00001   0.00000   0.00021   0.00020   2.07116
   A24        2.11046   0.00028   0.00000   0.00150   0.00150   2.11196
   A25        2.10177  -0.00027   0.00000  -0.00172  -0.00171   2.10006
   A26        2.08134   0.00015   0.00000   0.00056   0.00055   2.08189
   A27        2.12262  -0.00029   0.00000  -0.00105  -0.00105   2.12157
   A28        2.07922   0.00014   0.00000   0.00051   0.00051   2.07972
   A29        2.08698   0.00038   0.00000   0.00136   0.00137   2.08836
   A30        2.09607   0.00024   0.00000   0.00188   0.00187   2.09794
   A31        2.10009  -0.00062   0.00000  -0.00323  -0.00323   2.09685
   A32        1.90093  -0.00235   0.00000  -0.01444  -0.01465   1.88627
   A33        1.87563   0.00367   0.00000   0.02498   0.02511   1.90074
   A34        1.87535  -0.00577   0.00000  -0.03693  -0.03707   1.83828
   A35        1.95511   0.00008   0.00000   0.00597   0.00601   1.96112
   A36        1.93277   0.00295   0.00000   0.01085   0.01029   1.94306
   A37        1.92129   0.00111   0.00000   0.00771   0.00796   1.92926
   A38        2.00081  -0.01191   0.00000  -0.07061  -0.07061   1.93020
    D1       -1.57859   0.00216   0.00000   0.03650   0.03648  -1.54211
    D2        2.85240   0.00141   0.00000   0.03984   0.03983   2.89224
    D3        0.58266   0.00122   0.00000   0.03337   0.03339   0.61605
    D4       -0.77389   0.00035   0.00000  -0.01680  -0.01644  -0.79033
    D5       -2.92329  -0.00063   0.00000  -0.03658  -0.03657  -2.95986
    D6        1.34319   0.00211   0.00000  -0.00413  -0.00449   1.33870
    D7        1.09463  -0.00093   0.00000  -0.02654  -0.02620   1.06843
    D8       -1.05477  -0.00191   0.00000  -0.04633  -0.04633  -1.10110
    D9       -3.07148   0.00084   0.00000  -0.01388  -0.01425  -3.08573
   D10        3.13253  -0.00109   0.00000  -0.03080  -0.03044   3.10209
   D11        0.98313  -0.00207   0.00000  -0.05058  -0.05057   0.93256
   D12       -1.03358   0.00068   0.00000  -0.01813  -0.01849  -1.05207
   D13        3.07809   0.00011   0.00000  -0.00331  -0.00347   3.07462
   D14        0.95658  -0.00081   0.00000  -0.01701  -0.01706   0.93951
   D15       -1.11057  -0.00101   0.00000  -0.01974  -0.01950  -1.13007
   D16        1.02793  -0.00013   0.00000  -0.00277  -0.00295   1.02497
   D17       -1.09359  -0.00105   0.00000  -0.01648  -0.01655  -1.11014
   D18        3.12245  -0.00125   0.00000  -0.01921  -0.01898   3.10347
   D19       -0.82108   0.00183   0.00000   0.01488   0.01470  -0.80638
   D20       -2.94259   0.00091   0.00000   0.00117   0.00110  -2.94149
   D21        1.27344   0.00071   0.00000  -0.00156  -0.00133   1.27211
   D22        0.56175   0.00170   0.00000   0.04253   0.04259   0.60435
   D23        2.82642   0.00164   0.00000   0.04451   0.04446   2.87089
   D24       -1.61486   0.00206   0.00000   0.03737   0.03736  -1.57750
   D25       -1.81375  -0.00181   0.00000  -0.03023  -0.03006  -1.84380
   D26        1.26391  -0.00130   0.00000  -0.01047  -0.01029   1.25362
   D27        0.24342   0.00111   0.00000   0.00076   0.00080   0.24422
   D28       -2.96211   0.00162   0.00000   0.02051   0.02056  -2.94155
   D29        2.44914  -0.00035   0.00000  -0.01504  -0.01526   2.43388
   D30       -0.75639   0.00016   0.00000   0.00472   0.00450  -0.75189
   D31        3.08394   0.00042   0.00000   0.01340   0.01332   3.09725
   D32       -0.06594   0.00044   0.00000   0.01462   0.01455  -0.05138
   D33        0.00616  -0.00017   0.00000  -0.00666  -0.00665  -0.00048
   D34        3.13948  -0.00015   0.00000  -0.00543  -0.00541   3.13407
   D35       -3.07837  -0.00045   0.00000  -0.01823  -0.01831  -3.09668
   D36        0.05281  -0.00043   0.00000  -0.01732  -0.01738   0.03543
   D37        0.00093  -0.00002   0.00000   0.00078   0.00078   0.00171
   D38        3.13210  -0.00000   0.00000   0.00170   0.00172   3.13382
   D39       -0.00951   0.00021   0.00000   0.00676   0.00675  -0.00276
   D40        3.13490   0.00001   0.00000   0.00058   0.00058   3.13548
   D41        3.14038   0.00018   0.00000   0.00554   0.00551  -3.13729
   D42        0.00161  -0.00002   0.00000  -0.00064  -0.00065   0.00095
   D43        0.00557  -0.00004   0.00000  -0.00090  -0.00089   0.00468
   D44       -3.13824  -0.00013   0.00000  -0.00402  -0.00401   3.14093
   D45       -3.13883   0.00016   0.00000   0.00525   0.00525  -3.13358
   D46        0.00055   0.00007   0.00000   0.00214   0.00213   0.00267
   D47        3.13777   0.00000   0.00000  -0.00056  -0.00056   3.13721
   D48        0.00159  -0.00016   0.00000  -0.00507  -0.00506  -0.00347
   D49       -0.00161   0.00009   0.00000   0.00254   0.00253   0.00092
   D50       -3.13779  -0.00007   0.00000  -0.00197  -0.00196  -3.13976
   D51       -0.00483   0.00019   0.00000   0.00512   0.00511   0.00028
   D52       -3.13598   0.00016   0.00000   0.00417   0.00415  -3.13183
   D53       -3.14102   0.00003   0.00000   0.00062   0.00062  -3.14040
   D54        0.01102   0.00000   0.00000  -0.00033  -0.00034   0.01068
         Item               Value     Threshold  Converged?
 Maximum Force            0.012618     0.000450     NO 
 RMS     Force            0.004564     0.000300     NO 
 Maximum Displacement     0.245529     0.001800     NO 
 RMS     Displacement     0.071727     0.001200     NO 
 Predicted change in Energy=-4.534870D-03
 GradGradGradGradGradGradGradGradGradGradGradGradGradGradGradGradGradGrad

                          Input orientation:                          
 ---------------------------------------------------------------------
 Center     Atomic      Atomic             Coordinates (Angstroms)
 Number     Number       Type             X           Y           Z
 ---------------------------------------------------------------------
      1          7           0       -2.130949   -1.699072    0.505637
      2         16           0       -2.989318   -0.455666    0.217085
      3          6           0       -2.142908    0.845965   -0.799687
      4          6           0       -0.750416    1.119621   -0.340386
      5          6           0       -0.435034    2.289053    0.363971
      6          6           0        0.858570    2.508274    0.833285
      7          6           0        1.860806    1.564090    0.611854
      8          6           0        1.542560    0.403508   -0.091420
      9         35           0        2.888279   -0.883584   -0.407387
     10          6           0        0.256258    0.170394   -0.567824
     11          6           0       -2.959662    0.351083    1.830245
     12          7           0       -4.369196   -0.446468   -0.461322
     13          1           0       -2.239524   -2.384901   -0.240001
     14          1           0       -2.800808    1.723531   -0.752935
     15          1           0       -2.197073    0.409932   -1.806433
     16          1           0       -1.212270    3.038004    0.539736
     17          1           0        1.094693    3.426667    1.376551
     18          1           0        2.877027    1.727171    0.975019
     19          1           0        0.030699   -0.749690   -1.107315
     20          1           0       -3.490914    1.307154    1.742577
     21          1           0       -1.916141    0.480518    2.143875
     22          1           0       -3.482732   -0.335414    2.507410
     23          1           0       -4.899630   -1.277244   -0.205482
 ---------------------------------------------------------------------
                    Distance matrix (angstroms):
                    1          2          3          4          5
     1  N    0.000000
     2  S    1.538219   0.000000
     3  C    2.860284   1.855930   0.000000
     4  C    3.250639   2.793740   1.491603   0.000000
     5  C    4.336051   3.752256   2.520603   1.401127   0.000000
     6  C    5.171686   4.896007   3.799834   2.427900   1.393457
     7  C    5.156900   5.268677   4.305563   2.814746   2.420309
     8  C    4.274574   4.622907   3.778899   2.415065   2.770115
     9  Br   5.166361   5.926148   5.334612   4.154205   4.658866
    10  C    3.216516   3.397322   2.503229   1.402196   2.415542
    11  C    2.577690   1.803887   2.797952   3.191090   3.504202
    12  N    2.741127   1.537655   2.596388   3.944975   4.862285
    13  H    1.018885   2.119685   3.280408   3.809093   5.046465
    14  H    3.707684   2.392775   1.097789   2.176927   2.676599
    15  H    3.130165   2.339131   1.098452   2.178479   3.368462
    16  H    4.825455   3.932904   2.732247   2.160582   1.093580
    17  H    6.118533   5.752913   4.677402   3.416834   2.158598
    18  H    6.085990   6.305017   5.396837   3.906117   3.414504
    19  H    2.859311   3.310738   2.713912   2.166251   3.408159
    20  H    3.523765   2.384588   2.914261   3.447351   3.493291
    21  H    2.735065   2.395970   2.974816   2.817609   2.938118
    22  H    2.773801   2.345956   3.758680   4.206260   4.557480
    23  H    2.889502   2.121991   3.529959   4.793656   5.742419
                    6          7          8          9         10
     6  C    0.000000
     7  C    1.394630   0.000000
     8  C    2.398533   1.393853   0.000000
     9  Br   4.142909   2.843530   1.888757   0.000000
    10  C    2.791339   2.430762   1.391357   2.839744   0.000000
    11  C    4.497365   5.117888   4.895462   6.381992   4.015660
    12  N    6.142967   6.633775   5.983990   7.270827   4.667621
    13  H    5.890101   5.756117   4.701218   5.345683   3.586910
    14  H    4.064845   4.859909   4.587472   6.267548   3.433970
    15  H    4.550616   4.862774   4.114142   5.430591   2.758689
    16  H    2.157582   3.409020   3.863678   5.752425   3.406824
    17  H    1.092857   2.154271   3.390429   4.997764   3.884183
    18  H    2.168959   1.091416   2.161060   2.954186   3.416482
    19  H    3.881447   3.414442   2.155836   2.945096   1.090175
    20  H    4.602989   5.475898   5.432861   7.079250   4.546589
    21  H    3.678106   4.217410   4.118870   5.608223   3.488382
    22  H    5.453087   5.979519   5.705566   7.027539   4.867540
    23  H    6.968935   7.378666   6.658810   7.800466   5.367507
                   11         12         13         14         15
    11  C    0.000000
    12  N    2.806092   0.000000
    13  H    3.505728   2.888254   0.000000
    14  H    2.929448   2.693283   4.178200   0.000000
    15  H    3.716239   2.694598   3.204153   1.788826   0.000000
    16  H    3.455190   4.807270   5.574149   2.433576   3.658020
    17  H    5.109094   6.945000   6.892355   4.755030   5.483411
    18  H    6.057390   7.700359   6.675665   5.934952   5.934483
    19  H    4.333961   4.457390   2.929174   3.776220   2.607001
    20  H    1.097263   2.950210   4.373541   2.622440   3.882589
    21  H    1.097293   3.696462   3.741399   3.274023   3.960914
    22  H    1.097011   3.100246   3.646125   3.915881   4.562642
    23  H    3.249478   1.018334   2.881711   3.702622   3.565588
                   16         17         18         19         20
    16  H    0.000000
    17  H    2.484632   0.000000
    18  H    4.316261   2.495241   0.000000
    19  H    4.313278   4.974297   4.309587   0.000000
    20  H    3.104011   5.064987   6.427770   4.975364   0.000000
    21  H    3.099908   4.281787   5.088696   3.984198   1.823260
    22  H    4.517376   6.031990   6.859228   5.057871   1.811924
    23  H    5.724801   7.782128   8.420005   5.039817   3.529664
                   21         22         23
    21  H    0.000000
    22  H    1.803360   0.000000
    23  H    4.184544   3.202254   0.000000
 Stoichiometry    C8H11BrN2S
 Framework group  C1[X(C8H11BrN2S)]
 Deg. of freedom    63
 Full point group                 C1      NOp   1
 Largest Abelian subgroup         C1      NOp   1
 Largest concise Abelian subgroup C1      NOp   1
                         Standard orientation:                         
 ---------------------------------------------------------------------
 Center     Atomic      Atomic             Coordinates (Angstroms)
 Number     Number       Type             X           Y           Z
 ---------------------------------------------------------------------
      1          7           0       -1.943618   -1.701107    0.735905
      2         16           0       -2.807559   -0.610564    0.079827
      3          6           0       -1.912022    0.439001   -1.161504
      4          6           0       -0.572916    0.884714   -0.678789
      5          6           0       -0.352472    2.205742   -0.267151
      6          6           0        0.888788    2.596458    0.231184
      7          6           0        1.932167    1.676503    0.331370
      8          6           0        1.708533    0.364169   -0.081660
      9         35           0        3.111652   -0.894373    0.039699
     10          6           0        0.475544   -0.041390   -0.582795
     11          6           0       -2.940811    0.570096    1.437138
     12          7           0       -4.122820   -0.836037   -0.684134
     13          1           0       -1.967864   -2.554285    0.179464
     14          1           0       -2.595451    1.268008   -1.386921
     15          1           0       -1.866231   -0.234282   -2.028217
     16          1           0       -1.162428    2.936362   -0.345129
     17          1           0        1.051263    3.630901    0.544017
     18          1           0        2.908002    1.973237    0.719811
     19          1           0        0.323307   -1.076027   -0.890743
     20          1           0       -3.488577    1.448012    1.072168
     21          1           0       -1.932548    0.823355    1.788306
     22          1           0       -3.501745    0.047634    2.221880
     23          1           0       -4.650404   -1.602557   -0.270485
 ---------------------------------------------------------------------
 Rotational constants (GHZ):           1.1489029           0.2963353           0.2558725
 Standard basis: def2SVP (5D, 7F)
 There are   259 symmetry adapted cartesian basis functions of A   symmetry.
 There are   245 symmetry adapted basis functions of A   symmetry.
   245 basis functions,   444 primitive gaussians,   259 cartesian basis functions
    62 alpha electrons       62 beta electrons
       nuclear repulsion energy      1088.6836422880 Hartrees.
 NAtoms=   23 NActive=   23 NUniq=   23 SFac= 1.00D+00 NAtFMM=   60 NAOKFM=F Big=F
 Integral buffers will be    131072 words long.
 Raffenetti 2 integral format.
 Two-electron integral symmetry is turned on.
 Nuclear repulsion after empirical dispersion term =     1088.6557324485 Hartrees.
 One-electron integrals computed using PRISM.
   1 Symmetry operations used in ECPInt.
 ECPInt:  NShTT=    6441 NPrTT=   25202 LenC2=    6127 LenP2D=   17584.
 LDataN:  DoStor=T MaxTD1= 4 Len=   56
 NBasis=   245 RedAO= T EigKep=  2.74D-04  NBF=   245
 NBsUse=   245 1.00D-06 EigRej= -1.00D+00 NBFU=   245
 Initial guess from the checkpoint file:  "SDI2997_10.chk"
 B after Tr=     0.000000    0.000000    0.000000
         Rot=    0.999952   -0.007940    0.000893    0.005748 Ang=  -1.13 deg.
 ExpMin= 1.22D-01 ExpMax= 1.13D+05 ExpMxC= 1.70D+04 IAcc=3 IRadAn=         5 AccDes= 0.00D+00
 Harris functional with IExCor= 1009 and IRadAn=       5 diagonalized for initial guess.
 HarFok:  IExCor= 1009 AccDes= 0.00D+00 IRadAn=         5 IDoV= 1 UseB2=F ITyADJ=14
 ICtDFT=  3500011 ScaDFX=  1.000000  1.000000  1.000000  1.000000
 FoFCou: FMM=F IPFlag=           0 FMFlag=      100000 FMFlg1=           0
         NFxFlg=           0 DoJE=T BraDBF=F KetDBF=T FulRan=T
         wScrn=  0.000000 ICntrl=       500 IOpCl=  0 I1Cent=   200000004 NGrid=           0
         NMat0=    1 NMatS0=      1 NMatT0=    0 NMatD0=    1 NMtDS0=    0 NMtDT0=    0
 Petite list used in FoFCou.
 Requested convergence on RMS density matrix=1.00D-08 within 128 cycles.
 Requested convergence on MAX density matrix=1.00D-06.
 Requested convergence on             energy=1.00D-06.
 No special actions if energy rises.
 Integral accuracy reduced to 1.0D-05 until final iterations.
 Initial convergence to 1.0D-05 achieved.  Increase integral accuracy.
 SCF Done:  E(RPBE1PBE) =  -3391.55103286     A.U. after   12 cycles
            NFock= 12  Conv=0.86D-08     -V/T= 2.0022
   1 Symmetry operations used in ECPInt.
 ECPInt:  NShTT=    6441 NPrTT=   25202 LenC2=    6127 LenP2D=   17584.
 LDataN:  DoStor=T MaxTD1= 5 Len=  102
 Calling FoFJK, ICntrl=      2127 FMM=F ISym2X=0 I1Cent= 0 IOpClX= 0 NMat=1 NMatS=1 NMatT=0.
 ***** Axes restored to original set *****
 -------------------------------------------------------------------
 Center     Atomic                   Forces (Hartrees/Bohr)
 Number     Number              X              Y              Z
 -------------------------------------------------------------------
      1        7           0.003619437   -0.008057234    0.005137914
      2       16           0.004236968    0.012040145    0.003392682
      3        6           0.000017964   -0.002397505    0.003338651
      4        6           0.000225556   -0.000555942   -0.000282872
      5        6          -0.000193742   -0.000393673   -0.000213424
      6        6           0.000159130   -0.000714378   -0.000481945
      7        6          -0.001708709    0.001275838    0.000111059
      8        6           0.001200100   -0.001289008   -0.000303529
      9       35          -0.000236775    0.000274089    0.000024216
     10        6          -0.001416393    0.001725439    0.000499985
     11        6           0.000585744   -0.001856503   -0.002467007
     12        7          -0.004881874    0.001391999   -0.007847434
     13        1           0.000171266    0.000528578   -0.004223041
     14        1          -0.000025520    0.000033655   -0.001260775
     15        1          -0.000292633    0.000086340   -0.000608585
     16        1           0.000151792   -0.000305713    0.000058079
     17        1          -0.000107889   -0.000277624   -0.000155289
     18        1          -0.000262205   -0.000159163   -0.000166016
     19        1          -0.000046832   -0.000142265    0.000465685
     20        1           0.000051564   -0.000244142    0.000338633
     21        1          -0.000486700    0.000321563    0.000566331
     22        1          -0.000107859    0.000116917    0.000239500
     23        1          -0.000652390   -0.001401414    0.003837182
 -------------------------------------------------------------------
 Cartesian Forces:  Max     0.012040145 RMS     0.002543415

 GradGradGradGradGradGradGradGradGradGradGradGradGradGradGradGradGradGrad
 Berny optimization.
 Using GEDIIS/GDIIS optimizer.
 FormGI is forming the generalized inverse of G from B-inverse, IUseBI=4.
 Internal  Forces:  Max     0.008371640 RMS     0.001411350
 Search for a local minimum.
 Step number   2 out of a maximum of  125
 All quantities printed in internal units (Hartrees-Bohrs-Radians)
 Mixed Optimization -- RFO/linear search
 Update second derivatives using D2CorX and points    1    2
 DE= -4.93D-03 DEPred=-4.53D-03 R= 1.09D+00
 TightC=F SS=  1.41D+00  RLast= 2.31D-01 DXNew= 5.0454D-01 6.9401D-01
 Trust test= 1.09D+00 RLast= 2.31D-01 DXMaxT set to 5.05D-01
 ITU=  1  0
 Use linear search instead of GDIIS.
     Eigenvalues ---    0.00228   0.00230   0.01042   0.01744   0.02206
     Eigenvalues ---    0.02247   0.02264   0.02289   0.02296   0.02302
     Eigenvalues ---    0.02304   0.02314   0.03219   0.03491   0.04323
     Eigenvalues ---    0.05658   0.05877   0.06254   0.06285   0.07691
     Eigenvalues ---    0.08474   0.09122   0.12581   0.14110   0.14442
     Eigenvalues ---    0.15999   0.16000   0.16000   0.16000   0.16000
     Eigenvalues ---    0.16000   0.16000   0.16165   0.18100   0.18902
     Eigenvalues ---    0.21218   0.22000   0.22527   0.23483   0.23488
     Eigenvalues ---    0.24048   0.24947   0.25000   0.34714   0.35166
     Eigenvalues ---    0.35448   0.35625   0.35700   0.35862   0.36012
     Eigenvalues ---    0.36109   0.36178   0.37616   0.43419   0.43635
     Eigenvalues ---    0.45608   0.46547   0.47330   0.48311   0.48373
     Eigenvalues ---    0.50369   0.66362   0.67671
 RFO step:  Lambda=-1.57030311D-03 EMin= 2.28261484D-03
 Quartic linear search produced a step of  0.17189.
 Iteration  1 RMS(Cart)=  0.09103698 RMS(Int)=  0.00227675
 Iteration  2 RMS(Cart)=  0.00348677 RMS(Int)=  0.00004100
 Iteration  3 RMS(Cart)=  0.00000414 RMS(Int)=  0.00004085
 Iteration  4 RMS(Cart)=  0.00000000 RMS(Int)=  0.00004085
 Variable       Old X    -DE/DX   Delta X   Delta X   Delta X     New X
                                 (Linear)    (Quad)   (Total)
    R1        2.90681   0.00837   0.00155   0.01439   0.01595   2.92276
    R2        1.92541   0.00272   0.00392   0.00624   0.01016   1.93557
    R3        3.50720  -0.00371  -0.00296  -0.01942  -0.02238   3.48482
    R4        3.40885  -0.00193  -0.00711  -0.00813  -0.01525   3.39361
    R5        2.90575   0.00674   0.00092   0.01169   0.01261   2.91836
    R6        2.81872  -0.00232   0.00410  -0.00834  -0.00424   2.81448
    R7        2.07452  -0.00001   0.00420  -0.00063   0.00356   2.07808
    R8        2.07577   0.00054   0.00369   0.00125   0.00494   2.08072
    R9        2.64775  -0.00143   0.00291  -0.00404  -0.00113   2.64662
   R10        2.64977  -0.00173   0.00347  -0.00477  -0.00130   2.64847
   R11        2.63325  -0.00121   0.00322  -0.00342  -0.00020   2.63306
   R12        2.06657  -0.00031   0.00435  -0.00161   0.00274   2.06931
   R13        2.63547  -0.00128   0.00337  -0.00351  -0.00014   2.63533
   R14        2.06520  -0.00033   0.00435  -0.00169   0.00266   2.06786
   R15        2.63400   0.00008   0.00306  -0.00012   0.00294   2.63694
   R16        2.06248  -0.00032   0.00411  -0.00161   0.00250   2.06498
   R17        3.56923  -0.00036  -0.00478  -0.00152  -0.00630   3.56293
   R18        2.62928  -0.00016   0.00309  -0.00070   0.00240   2.63168
   R19        2.06013  -0.00010   0.00384  -0.00086   0.00298   2.06311
   R20        2.07353  -0.00026   0.00466  -0.00151   0.00315   2.07668
   R21        2.07358  -0.00026   0.00500  -0.00156   0.00344   2.07702
   R22        2.07305   0.00013   0.00452  -0.00023   0.00429   2.07734
   R23        1.92437   0.00245   0.00387   0.00556   0.00944   1.93381
    A1        1.92555  -0.00425  -0.01286  -0.02843  -0.04130   1.88426
    A2        1.99896  -0.00006   0.00032  -0.00028  -0.00014   1.99882
    A3        1.75645   0.00047  -0.00163   0.00967   0.00801   1.76446
    A4        2.19984  -0.00088   0.00340  -0.01634  -0.01297   2.18687
    A5        1.74038   0.00131   0.00016   0.01612   0.01624   1.75662
    A6        1.73489  -0.00033  -0.00274  -0.00356  -0.00637   1.72852
    A7        1.98955   0.00001  -0.00001   0.00186   0.00188   1.99144
    A8        1.96679  -0.00012   0.00914  -0.00012   0.00896   1.97575
    A9        1.83796   0.00080  -0.00018   0.00904   0.00876   1.84672
   A10        1.77341  -0.00029  -0.00765  -0.00181  -0.00949   1.76391
   A11        1.98199  -0.00027  -0.00147  -0.00063  -0.00226   1.97973
   A12        1.98349   0.00041   0.00166   0.00243   0.00423   1.98772
   A13        1.90371  -0.00050  -0.00211  -0.00873  -0.01087   1.89284
   A14        2.11537  -0.00104  -0.00118  -0.00454  -0.00573   2.10965
   A15        2.08987   0.00036   0.00148   0.00156   0.00303   2.09291
   A16        2.07711   0.00069  -0.00014   0.00287   0.00271   2.07982
   A17        2.10549  -0.00024   0.00003  -0.00179  -0.00177   2.10372
   A18        2.08568   0.00007  -0.00022   0.00058   0.00036   2.08603
   A19        2.09200   0.00017   0.00020   0.00119   0.00139   2.09339
   A20        2.10268  -0.00001   0.00003  -0.00025  -0.00023   2.10245
   A21        2.09464  -0.00003  -0.00001  -0.00012  -0.00013   2.09451
   A22        2.08586   0.00004  -0.00002   0.00038   0.00036   2.08622
   A23        2.07116   0.00053   0.00003   0.00307   0.00310   2.07426
   A24        2.11196  -0.00013   0.00026  -0.00060  -0.00034   2.11162
   A25        2.10006  -0.00040  -0.00029  -0.00246  -0.00275   2.09730
   A26        2.08189   0.00052   0.00010   0.00220   0.00230   2.08419
   A27        2.12157  -0.00109  -0.00018  -0.00461  -0.00479   2.11678
   A28        2.07972   0.00056   0.00009   0.00241   0.00249   2.08222
   A29        2.08836   0.00012   0.00024   0.00073   0.00096   2.08932
   A30        2.09794  -0.00001   0.00032  -0.00012   0.00020   2.09813
   A31        2.09685  -0.00011  -0.00056  -0.00066  -0.00122   2.09564
   A32        1.88627   0.00018  -0.00252   0.00141  -0.00116   1.88511
   A33        1.90074   0.00113   0.00432   0.00831   0.01264   1.91338
   A34        1.83828   0.00013  -0.00637   0.00146  -0.00493   1.83335
   A35        1.96112  -0.00054   0.00103  -0.00297  -0.00195   1.95917
   A36        1.94306  -0.00035   0.00177  -0.00467  -0.00301   1.94005
   A37        1.92926  -0.00046   0.00137  -0.00276  -0.00134   1.92792
   A38        1.93020  -0.00406  -0.01214  -0.02723  -0.03936   1.89083
    D1       -1.54211   0.00254   0.00627   0.05994   0.06618  -1.47593
    D2        2.89224   0.00081   0.00685   0.03645   0.04328   2.93552
    D3        0.61605   0.00104   0.00574   0.03701   0.04279   0.65884
    D4       -0.79033  -0.00127  -0.00283  -0.10623  -0.10897  -0.89930
    D5       -2.95986  -0.00141  -0.00629  -0.11164  -0.11796  -3.07782
    D6        1.33870  -0.00103  -0.00077  -0.10451  -0.10535   1.23334
    D7        1.06843  -0.00006  -0.00450  -0.08678  -0.09118   0.97725
    D8       -1.10110  -0.00021  -0.00796  -0.09219  -0.10017  -1.20127
    D9       -3.08573   0.00018  -0.00245  -0.08506  -0.08757   3.10989
   D10        3.10209   0.00021  -0.00523  -0.08145  -0.08659   3.01550
   D11        0.93256   0.00007  -0.00869  -0.08685  -0.09558   0.83698
   D12       -1.05207   0.00045  -0.00318  -0.07973  -0.08297  -1.13504
   D13        3.07462   0.00056  -0.00060   0.01587   0.01528   3.08990
   D14        0.93951   0.00041  -0.00293   0.01361   0.01069   0.95021
   D15       -1.13007   0.00031  -0.00335   0.01191   0.00864  -1.12143
   D16        1.02497   0.00009  -0.00051   0.00851   0.00794   1.03292
   D17       -1.11014  -0.00006  -0.00284   0.00625   0.00336  -1.10678
   D18        3.10347  -0.00016  -0.00326   0.00455   0.00130   3.10477
   D19       -0.80638  -0.00021   0.00253   0.00383   0.00633  -0.80005
   D20       -2.94149  -0.00035   0.00019   0.00158   0.00174  -2.93975
   D21        1.27211  -0.00045  -0.00023  -0.00013  -0.00031   1.27180
   D22        0.60435   0.00189   0.00732   0.05339   0.06068   0.66503
   D23        2.87089   0.00072   0.00764   0.03567   0.04336   2.91424
   D24       -1.57750   0.00204   0.00642   0.05267   0.05908  -1.51842
   D25       -1.84380  -0.00053  -0.00517  -0.02309  -0.02821  -1.87202
   D26        1.25362  -0.00054  -0.00177  -0.02612  -0.02784   1.22577
   D27        0.24422   0.00023   0.00014  -0.01177  -0.01163   0.23258
   D28       -2.94155   0.00022   0.00353  -0.01480  -0.01126  -2.95282
   D29        2.43388  -0.00034  -0.00262  -0.02231  -0.02498   2.40890
   D30       -0.75189  -0.00035   0.00077  -0.02534  -0.02461  -0.77650
   D31        3.09725   0.00018   0.00229   0.00717   0.00944   3.10669
   D32       -0.05138   0.00012   0.00250   0.00425   0.00674  -0.04464
   D33       -0.00048   0.00020  -0.00114   0.01020   0.00906   0.00858
   D34        3.13407   0.00014  -0.00093   0.00729   0.00636   3.14043
   D35       -3.09668  -0.00012  -0.00315  -0.00543  -0.00860  -3.10527
   D36        0.03543  -0.00024  -0.00299  -0.01099  -0.01400   0.02143
   D37        0.00171  -0.00017   0.00013  -0.00858  -0.00845  -0.00674
   D38        3.13382  -0.00029   0.00030  -0.01414  -0.01385   3.11997
   D39       -0.00276  -0.00007   0.00116  -0.00429  -0.00313  -0.00589
   D40        3.13548  -0.00006   0.00010  -0.00301  -0.00290   3.13258
   D41       -3.13729  -0.00001   0.00095  -0.00136  -0.00041  -3.13770
   D42        0.00095   0.00000  -0.00011  -0.00008  -0.00019   0.00076
   D43        0.00468  -0.00007  -0.00015  -0.00324  -0.00339   0.00129
   D44        3.14093   0.00001  -0.00069   0.00073   0.00004   3.14097
   D45       -3.13358  -0.00008   0.00090  -0.00452  -0.00361  -3.13719
   D46        0.00267  -0.00001   0.00037  -0.00054  -0.00018   0.00249
   D47        3.13721   0.00007  -0.00010   0.00364   0.00354   3.14075
   D48       -0.00347   0.00009  -0.00087   0.00485   0.00398   0.00051
   D49        0.00092  -0.00000   0.00044  -0.00031   0.00013   0.00105
   D50       -3.13976   0.00001  -0.00034   0.00090   0.00056  -3.13919
   D51        0.00028   0.00003   0.00088   0.00111   0.00198   0.00226
   D52       -3.13183   0.00015   0.00071   0.00667   0.00737  -3.12447
   D53       -3.14040   0.00005   0.00011   0.00231   0.00242  -3.13798
   D54        0.01068   0.00017  -0.00006   0.00787   0.00780   0.01848
         Item               Value     Threshold  Converged?
 Maximum Force            0.008372     0.000450     NO 
 RMS     Force            0.001411     0.000300     NO 
 Maximum Displacement     0.331261     0.001800     NO 
 RMS     Displacement     0.091144     0.001200     NO 
 Predicted change in Energy=-9.686541D-04
 GradGradGradGradGradGradGradGradGradGradGradGradGradGradGradGradGradGrad

                          Input orientation:                          
 ---------------------------------------------------------------------
 Center     Atomic      Atomic             Coordinates (Angstroms)
 Number     Number       Type             X           Y           Z
 ---------------------------------------------------------------------
      1          7           0       -2.198974   -1.760934    0.398617
      2         16           0       -2.997675   -0.451076    0.202416
      3          6           0       -2.135554    0.826814   -0.809716
      4          6           0       -0.752170    1.113621   -0.338353
      5          6           0       -0.451143    2.312983    0.319216
      6          6           0        0.836050    2.556258    0.793962
      7          6           0        1.842490    1.605410    0.627379
      8          6           0        1.537588    0.409311   -0.023428
      9         35           0        2.886440   -0.886881   -0.258589
     10          6           0        0.255885    0.154248   -0.504658
     11          6           0       -2.870380    0.279612    1.837915
     12          7           0       -4.404752   -0.349483   -0.425891
     13          1           0       -2.368548   -2.359179   -0.415297
[...]
 Alpha virt. eigenvalues --    1.64951   1.66712   1.67953   1.68445   1.69740
 Alpha virt. eigenvalues --    1.70332   1.70861   1.72428   1.73083   1.73589
 Alpha virt. eigenvalues --    1.74852   1.77472   1.78524   1.79291   1.80142
 Alpha virt. eigenvalues --    1.81473   1.82618   1.84939   1.86055   1.87766
 Alpha virt. eigenvalues --    1.88387   1.91144   1.92657   1.95036   1.95707
 Alpha virt. eigenvalues --    1.96642   1.97615   1.98677   1.99980   2.01173
 Alpha virt. eigenvalues --    2.03600   2.03703   2.04070   2.05785   2.07035
 Alpha virt. eigenvalues --    2.08584   2.08814   2.11112   2.12584   2.13837
 Alpha virt. eigenvalues --    2.14600   2.16130   2.17372   2.17741   2.18878
 Alpha virt. eigenvalues --    2.23448   2.24361   2.27289   2.28526   2.29333
 Alpha virt. eigenvalues --    2.31003   2.33761   2.34968   2.37328   2.38794
 Alpha virt. eigenvalues --    2.39801   2.43203   2.45035   2.46697   2.47435
 Alpha virt. eigenvalues --    2.48101   2.48902   2.51653   2.53132   2.54166
 Alpha virt. eigenvalues --    2.55953   2.57172   2.59493   2.60308   2.61879
 Alpha virt. eigenvalues --    2.63016   2.63793   2.64899   2.65666   2.67040
 Alpha virt. eigenvalues --    2.68351   2.69599   2.70860   2.71804   2.72569
 Alpha virt. eigenvalues --    2.74023   2.75564   2.76333   2.77901   2.78883
 Alpha virt. eigenvalues --    2.79618   2.80752   2.83493   2.83600   2.84792
 Alpha virt. eigenvalues --    2.85782   2.88080   2.89668   2.90632   2.91960
 Alpha virt. eigenvalues --    2.93797   2.96742   2.98642   3.00631   3.02556
 Alpha virt. eigenvalues --    3.03926   3.05328   3.09514   3.10664   3.11504
 Alpha virt. eigenvalues --    3.12037   3.12932   3.14046   3.16088   3.16724
 Alpha virt. eigenvalues --    3.19070   3.19854   3.20036   3.22462   3.23908
 Alpha virt. eigenvalues --    3.24330   3.25197   3.26239   3.27821   3.29653
 Alpha virt. eigenvalues --    3.31119   3.34364   3.36946   3.37233   3.38611
 Alpha virt. eigenvalues --    3.38879   3.40240   3.41944   3.42690   3.43830
 Alpha virt. eigenvalues --    3.45200   3.46782   3.48014   3.49792   3.50325
 Alpha virt. eigenvalues --    3.51886   3.53191   3.54922   3.55331   3.59189
 Alpha virt. eigenvalues --    3.60601   3.62750   3.63897   3.64821   3.68272
 Alpha virt. eigenvalues --    3.71554   3.73558   3.75746   3.77992   3.80514
 Alpha virt. eigenvalues --    3.84544   3.85948   3.87971   3.89154   3.93812
 Alpha virt. eigenvalues --    3.96024   3.98923   4.03024   4.03490   4.04293
 Alpha virt. eigenvalues --    4.05952   4.08126   4.11646   4.13211   4.13638
 Alpha virt. eigenvalues --    4.15454   4.16470   4.18147   4.19134   4.19734
 Alpha virt. eigenvalues --    4.21020   4.22348   4.23087   4.24962   4.25513
 Alpha virt. eigenvalues --    4.26492   4.28464   4.29146   4.31186   4.32530
 Alpha virt. eigenvalues --    4.33709   4.36158   4.38376   4.41479   4.44002
 Alpha virt. eigenvalues --    4.45721   4.47738   4.52344   4.54349   4.58477
 Alpha virt. eigenvalues --    4.60176   4.64409   4.65753   4.66789   4.69074
 Alpha virt. eigenvalues --    4.69949   4.74333   4.74377   4.76493   4.78334
 Alpha virt. eigenvalues --    4.82841   4.89594   4.91102   4.99957   5.02156
 Alpha virt. eigenvalues --    5.07787   5.12051   5.13929   5.15429   5.17355
 Alpha virt. eigenvalues --    5.19914   5.22613   5.23890   5.38563   5.41165
 Alpha virt. eigenvalues --    5.44202   5.54765   5.57517   5.60828   7.79850
 Alpha virt. eigenvalues --    9.42496   9.47614   9.59700  21.54366  22.09758
 Alpha virt. eigenvalues --   22.34457  22.52895  22.69353  22.72640  22.79866
 Alpha virt. eigenvalues --   22.91525  23.24068  31.87844  31.91112
          Condensed to atoms (all electrons):
               1          2          3          4          5          6
     1  N    6.931779   0.495296  -0.048631  -0.056930   0.003570  -0.001096
     2  S    0.495296  14.152299   0.229930  -0.042459   0.000938  -0.001271
     3  C   -0.048631   0.229930   5.760895  -0.087529  -0.054673   0.003869
     4  C   -0.056930  -0.042459  -0.087529   5.742386   0.325893   0.108750
     5  C    0.003570   0.000938  -0.054673   0.325893   5.062067   0.414236
     6  C   -0.001096  -0.001271   0.003869   0.108750   0.414236   4.975738
     7  C    0.001973   0.001722   0.007743  -0.211073   0.072704   0.345963
     8  C   -0.006862  -0.002564  -0.009719   0.218250  -0.130650   0.123367
     9  Br   0.000064   0.000081  -0.001382   0.015482   0.000149   0.016369
    10  C    0.025169   0.019146  -0.026859  -0.018156   0.091277  -0.185371
    11  C   -0.074077   0.273255  -0.128262   0.049742  -0.002127   0.002133
    12  N   -0.078244   0.528344  -0.110589   0.014072   0.000632  -0.000114
    13  H    0.307895  -0.021804  -0.010065   0.003668  -0.000322   0.000048
    14  H    0.005888  -0.008000   0.364664  -0.048310  -0.002439   0.000610
    15  H   -0.003089  -0.021147   0.350043   0.002366  -0.000299  -0.000149
    16  H    0.000033  -0.000349  -0.002590  -0.069200   0.427760  -0.046155
    17  H   -0.000004  -0.000002  -0.000657   0.013661  -0.052408   0.427056
    18  H    0.000005   0.000005   0.000131  -0.003653   0.011076  -0.061308
    19  H    0.035576   0.007400   0.001272  -0.122674   0.016248  -0.007890
    20  H    0.005789  -0.020981   0.011120  -0.006221   0.002599  -0.000735
    21  H    0.000705  -0.007477   0.009573  -0.006605  -0.004214  -0.000078
    22  H    0.005024  -0.012290   0.010069  -0.001105   0.000194   0.000030
    23  H   -0.003102  -0.023520   0.016330  -0.002355  -0.000018   0.000004
               7          8          9         10         11         12
     1  N    0.001973  -0.006862   0.000064   0.025169  -0.074077  -0.078244
     2  S    0.001722  -0.002564   0.000081   0.019146   0.273255   0.528344
     3  C    0.007743  -0.009719  -0.001382  -0.026859  -0.128262  -0.110589
     4  C   -0.211073   0.218250   0.015482  -0.018156   0.049742   0.014072
     5  C    0.072704  -0.130650   0.000149   0.091277  -0.002127   0.000632
     6  C    0.345963   0.123367   0.016369  -0.185371   0.002133  -0.000114
     7  C    5.189047   0.275090  -0.071982   0.148119  -0.001310   0.000048
     8  C    0.275090   4.995128   0.321711   0.189242   0.001721  -0.000255
     9  Br  -0.071982   0.321711  34.880808  -0.073843   0.000027   0.000000
    10  C    0.148119   0.189242  -0.073843   5.588841  -0.007638   0.002594
    11  C   -0.001310   0.001721   0.000027  -0.007638   5.172685  -0.054763
    12  N    0.000048  -0.000255   0.000000   0.002594  -0.054763   6.902120
    13  H   -0.000051   0.000658   0.000006  -0.002486   0.012822  -0.002589
    14  H    0.000329  -0.000622   0.000013   0.013925   0.002181   0.011609
    15  H   -0.000195   0.001927   0.000001  -0.009917   0.009238   0.012074
    16  H    0.010644  -0.003129   0.000066   0.016513   0.000303   0.000024
    17  H   -0.052860   0.011583  -0.000502  -0.003318   0.000000  -0.000001
    18  H    0.437550  -0.061257  -0.003124   0.016661  -0.000002   0.000000
    19  H    0.024865  -0.068711  -0.005006   0.458295  -0.000270   0.001008
    20  H    0.000141  -0.000071   0.000000   0.000168   0.376572   0.003335
    21  H    0.001001  -0.001343  -0.000011   0.000248   0.358045   0.004801
    22  H   -0.000030   0.000036   0.000002  -0.000551   0.367382   0.002165
    23  H   -0.000002   0.000005   0.000000  -0.000035  -0.008721   0.312212
              13         14         15         16         17         18
     1  N    0.307895   0.005888  -0.003089   0.000033  -0.000004   0.000005
     2  S   -0.021804  -0.008000  -0.021147  -0.000349  -0.000002   0.000005
     3  C   -0.010065   0.364664   0.350043  -0.002590  -0.000657   0.000131
     4  C    0.003668  -0.048310   0.002366  -0.069200   0.013661  -0.003653
     5  C   -0.000322  -0.002439  -0.000299   0.427760  -0.052408   0.011076
     6  C    0.000048   0.000610  -0.000149  -0.046155   0.427056  -0.061308
     7  C   -0.000051   0.000329  -0.000195   0.010644  -0.052860   0.437550
     8  C    0.000658  -0.000622   0.001927  -0.003129   0.011583  -0.061257
     9  Br   0.000006   0.000013   0.000001   0.000066  -0.000502  -0.003124
    10  C   -0.002486   0.013925  -0.009917   0.016513  -0.003318   0.016661
    11  C    0.012822   0.002181   0.009238   0.000303   0.000000  -0.000002
    12  N   -0.002589   0.011609   0.012074   0.000024  -0.000001   0.000000
    13  H    0.494418   0.000166   0.002721  -0.000005   0.000000  -0.000000
    14  H    0.000166   0.500692  -0.008481   0.002774  -0.000051  -0.000004
    15  H    0.002721  -0.008481   0.512316   0.000296   0.000013  -0.000003
    16  H   -0.000005   0.002774   0.000296   0.548588  -0.007759  -0.000228
    17  H    0.000000  -0.000051   0.000013  -0.007759   0.546361  -0.007528
    18  H   -0.000000  -0.000004  -0.000003  -0.000228  -0.007528   0.534233
    19  H    0.000352   0.001296   0.000188  -0.000099   0.000018  -0.000001
    20  H   -0.000587  -0.003380  -0.000090   0.000601  -0.000009   0.000001
    21  H   -0.000711   0.001031  -0.000912  -0.000249  -0.000022  -0.000007
    22  H   -0.000708  -0.000552  -0.000261  -0.000016   0.000001  -0.000000
    23  H   -0.000106  -0.001391  -0.001061  -0.000003   0.000000  -0.000000
              19         20         21         22         23
     1  N    0.035576   0.005789   0.000705   0.005024  -0.003102
     2  S    0.007400  -0.020981  -0.007477  -0.012290  -0.023520
     3  C    0.001272   0.011120   0.009573   0.010069   0.016330
     4  C   -0.122674  -0.006221  -0.006605  -0.001105  -0.002355
     5  C    0.016248   0.002599  -0.004214   0.000194  -0.000018
     6  C   -0.007890  -0.000735  -0.000078   0.000030   0.000004
     7  C    0.024865   0.000141   0.001001  -0.000030  -0.000002
     8  C   -0.068711  -0.000071  -0.001343   0.000036   0.000005
     9  Br  -0.005006   0.000000  -0.000011   0.000002   0.000000
    10  C    0.458295   0.000168   0.000248  -0.000551  -0.000035
    11  C   -0.000270   0.376572   0.358045   0.367382  -0.008721
    12  N    0.001008   0.003335   0.004801   0.002165   0.312212
    13  H    0.000352  -0.000587  -0.000711  -0.000708  -0.000106
    14  H    0.001296  -0.003380   0.001031  -0.000552  -0.001391
    15  H    0.000188  -0.000090  -0.000912  -0.000261  -0.001061
    16  H   -0.000099   0.000601  -0.000249  -0.000016  -0.000003
    17  H    0.000018  -0.000009  -0.000022   0.000001   0.000000
    18  H   -0.000001   0.000001  -0.000007  -0.000000  -0.000000
    19  H    0.532333  -0.000110   0.000210  -0.000138  -0.000086
    20  H   -0.000110   0.518218  -0.017689  -0.012971  -0.000175
    21  H    0.000210  -0.017689   0.497494  -0.007639   0.000161
    22  H   -0.000138  -0.012971  -0.007639   0.491773   0.002476
    23  H   -0.000086  -0.000175   0.000161   0.002476   0.492289
 Mulliken charges:
               1
     1  N   -0.546730
     2  S    0.453449
     3  C   -0.284681
     4  C    0.181999
     5  C   -0.182195
     6  C   -0.114005
     7  C   -0.179439
     8  C    0.146466
     9  Br  -0.078928
    10  C   -0.242026
    11  C   -0.348934
    12  N   -0.548483
    13  H    0.216681
    14  H    0.168049
    15  H    0.154423
    16  H    0.122179
    17  H    0.126424
    18  H    0.137455
    19  H    0.125924
    20  H    0.144478
    21  H    0.173687
    22  H    0.157109
    23  H    0.217096
 Sum of Mulliken charges =  -0.00000
 Mulliken charges with hydrogens summed into heavy atoms:
               1
     1  N   -0.330050
     2  S    0.453449
     3  C    0.037792
     4  C    0.181999
     5  C   -0.060015
     6  C    0.012419
     7  C   -0.041983
     8  C    0.146466
     9  Br  -0.078928
    10  C   -0.116102
    11  C    0.126340
    12  N   -0.331386
 Electronic spatial extent (au):  <R**2>=           3924.6149
 Charge=             -0.0000 electrons
 Dipole moment (field-independent basis, Debye):
    X=             -0.1230    Y=              2.6156    Z=              0.6303  Tot=              2.6933
 Quadrupole moment (field-independent basis, Debye-Ang):
   XX=            -98.1625   YY=            -86.2522   ZZ=            -91.0825
   XY=              1.1439   XZ=             -3.9908   YZ=              4.7677
 Traceless Quadrupole moment (field-independent basis, Debye-Ang):
   XX=             -6.3301   YY=              5.5802   ZZ=              0.7499
   XY=              1.1439   XZ=             -3.9908   YZ=              4.7677
 Octapole moment (field-independent basis, Debye-Ang**2):
  XXX=            117.5113  YYY=            -15.6911  ZZZ=              5.2745  XYY=             26.1520
  XXY=            -16.6540  XXZ=             36.7172  XZZ=             20.5701  YZZ=            -14.3364
  YYZ=             -4.3290  XYZ=              0.5791
 Hexadecapole moment (field-independent basis, Debye-Ang**3):
 XXXX=          -3499.8518 YYYY=           -939.6601 ZZZZ=           -337.5112 XXXY=              0.2958
 XXXZ=           -136.3279 YYYX=            -76.5684 YYYZ=             42.3555 ZZZX=            -16.3870
 ZZZY=              0.7974 XXYY=           -659.5411 XXZZ=           -624.0513 YYZZ=           -239.7020
 XXYZ=              5.2660 YYXZ=             29.4991 ZZXY=            -30.4763
 N-N= 1.090749213406D+03 E-N=-1.025654908175D+04  KE= 3.386301845499D+03
 Breneman (CHELPG) radii used.
 Read replacement radii for each type of atom:
 Rad(35) =   1.850000000000D+00
 Atom Element Radius
    1     7    1.70
    2    16    2.00
    3     6    1.50
    4     6    1.50
    5     6    1.50
    6     6    1.50
    7     6    1.50
    8     6    1.50
    9    35    1.85
   10     6    1.50
   11     6    1.50
   12     7    1.70
   13     1    1.45
   14     1    1.45
   15     1    1.45
   16     1    1.45
   17     1    1.45
   18     1    1.45
   19     1    1.45
   20     1    1.45
   21     1    1.45
   22     1    1.45
   23     1    1.45
 Generate Potential Derived Charges using the Breneman model, NDens= 1.
 Grid spacing= 0.300 Box extension= 2.800
 NStep X,Y,Z=   46     41     35   Total possible points=       66010
 Number of Points to Fit=   14947

 **********************************************************************

            Electrostatic Properties Using The SCF Density.

 **********************************************************************

       Atomic Center    1 is at  -2.031522 -1.907135  0.326966
       Atomic Center    2 is at  -2.799353 -0.585548  0.052610
       Atomic Center    3 is at  -1.946256  0.576660 -1.081385
       Atomic Center    4 is at  -0.581237  0.962407 -0.620190
       Atomic Center    5 is at  -0.312930  2.275615 -0.217785
       Atomic Center    6 is at   0.952533  2.628550  0.243864
       Atomic Center    7 is at   1.967243  1.677336  0.318777
       Atomic Center    8 is at   1.693931  0.368416 -0.077311
       Atomic Center    9 is at   3.058174 -0.931300  0.018475
       Atomic Center   10 is at   0.435514  0.002002 -0.546087
       Atomic Center   11 is at  -2.606803  0.244088  1.632766
       Atomic Center   12 is at  -4.225380 -0.508157 -0.548559
       Atomic Center   13 is at  -2.183477 -2.516150 -0.483038
       Atomic Center   14 is at  -2.624213  1.432241 -1.194630
       Atomic Center   15 is at  -1.947046  0.009792 -2.024437
       Atomic Center   16 is at  -1.103907  3.027896 -0.273071
       Atomic Center   17 is at   1.155585  3.657488  0.549392
       Atomic Center   18 is at   2.962161  1.944640  0.678242
       Atomic Center   19 is at   0.232491 -1.032414 -0.824548
       Atomic Center   20 is at  -3.073422  1.233930  1.555500
       Atomic Center   21 is at  -1.543081  0.309817  1.891966
       Atomic Center   22 is at  -3.138353 -0.386120  2.356985
       Atomic Center   23 is at  -4.796833 -1.220251 -0.085492
   14947 points will be used for fitting atomic charges
 Fitting point charges to electrostatic potential
 Charges from ESP fit, RMS=   0.00431 RRMS=   0.28209:
 ESP charges:
               1
     1  N   -0.805004
     2  S    0.878617
     3  C   -0.254212
     4  C    0.163692
     5  C   -0.199637
     6  C   -0.092501
     7  C   -0.077760
     8  C    0.067404
     9  Br  -0.087401
    10  C   -0.123790
    11  C   -0.273386
    12  N   -0.830420
    13  H    0.329462
    14  H    0.138990
    15  H    0.098037
    16  H    0.115894
    17  H    0.112300
    18  H    0.083305
    19  H    0.107521
    20  H    0.094623
    21  H    0.110420
    22  H    0.116389
    23  H    0.327457
 Sum of ESP charges =  -0.00000
 ESP charges with hydrogens summed into heavy atoms:
               1
     1  N   -0.475543
     2  S    0.878617
     3  C   -0.017185
     4  C    0.163692
     5  C   -0.083743
     6  C    0.019799
     7  C    0.005545
     8  C    0.067404
     9  Br  -0.087401
    10  C   -0.016269
    11  C    0.048045
    12  N   -0.502963
 Charge=  -0.00000 Dipole=     0.0609     2.6669     0.4761 Tot=     2.7097
 -----------------------------------------------------------------

              Electrostatic Properties (Atomic Units)

 -----------------------------------------------------------------
    Center     Electric         -------- Electric Field --------
               Potential          X             Y             Z
 -----------------------------------------------------------------
    1 Atom    -18.422128
    2 Atom    -59.074518
    3 Atom    -14.720859
    4 Atom    -14.727033
    5 Atom    -14.742894
    6 Atom    -14.741346
    7 Atom    -14.741009
    8 Atom    -14.694588
    9 Atom   -175.800364
   10 Atom    -14.743713
   11 Atom    -14.733531
   12 Atom    -18.424207
   13 Atom     -1.047883
   14 Atom     -1.074365
   15 Atom     -1.070869
   16 Atom     -1.081672
   17 Atom     -1.083199
   18 Atom     -1.081557
   19 Atom     -1.086025
   20 Atom     -1.073826
   21 Atom     -1.075033
   22 Atom     -1.072225
   23 Atom     -1.048898
 -----------------------------------------------------------------
 Unable to Open any file for archive entry.
 1\1\GINC-NOTCH244\SP\RPBE1PBE\def2TZVP\C8H11Br1N2S1\U1414944\07-Jun-20
 25\0\\#N Guess=Read Geom=Check Integral(Ultrafine) Density Pop=(ChelpG
 ,ReadRadii) NMR pbe1pbe EmpiricalDispersion=GD3BJ def2TZVP\\SDI2997_10
 \\0,1\N,0,-2.2669387724,-1.8142521767,0.2560599117\S,0,-3.0060365244,-
 0.4510786459,0.1728686669\C,0,-2.1425973224,0.8312866266,-0.8142770365
 \C,0,-0.7612367472,1.1219361924,-0.3324626248\C,0,-0.4540448498,2.3641
 023204,0.2341858602\C,0,0.8269960357,2.6244143465,0.7140319787\C,0,1.8
 188669137,1.649072625,0.6436155218\C,0,1.5068792305,0.4104345759,0.083
 8879255\Br,0,2.8398195773,-0.9208807687,-0.0184175833\C,0,0.2324327307
 ,0.137548724,-0.4049311542\C,0,-2.7677502095,0.1579798897,1.8445540858
 \N,0,-4.4391261137,-0.2629045422,-0.3855141341\H,0,-2.4468721158,-2.30
 73420469,-0.6240427363\H,0,-2.8008449943,1.70935233,-0.8008809224\H,0,
 -2.1725117121,0.3941427211,-1.8235823233\H,0,-1.2269006055,3.134683379
 2,0.2935800929\H,0,1.0603623829,3.5991408857,1.1484739031\H,0,2.825724
 1544,1.8441086089,1.0160776237\H,0,-0.0006081741,-0.8461836062,-0.8132
 686257\H,0,-3.2108470238,1.1595901124,1.9072525425\H,0,-1.6987207314,0
 .1649581733,2.0897807764\H,0,-3.3031321381,-0.5502757828,2.4894887614\
 H,0,-5.0205966734,-1.0169074481,-0.0094296887\\Version=ES64L-G16RevC.0
 1\State=1-A\HF=-3392.4952864\RMSD=2.454e-09\Dipole=-0.0188738,0.988092
 5,0.3822422\Quadrupole=-4.7492441,3.0978843,1.6513598,1.4858871,-2.620
 054,3.9261805\PG=C01 [X(C8H11Br1N2S1)]\\@
 The archive entry for this job was punched.


 WE HAVE LEFT UNDONE THOSE THINGS WHICH WE OUGHT TO HAVE DONE,
 AND WE HAVE DONE THOSE THINGS WHICH WE OUGHT NOT TO HAVE DONE.
                   BOOK OF COMMON PRAYER                      
 Job cpu time:       0 days  0 hours 22 minutes 45.6 seconds.
 Elapsed time:       0 days  0 hours  1 minutes 32.8 seconds.
 File lengths (MBytes):  RWF=    137 Int=      0 D2E=      0 Chk=     21 Scr=      2
 Normal termination of Gaussian 16 at Sat Jun  7 01:59:15 2025.
