 Entering Gaussian System, Link 0=g16
 Input=SDI-drug_14.com
 Output=SDI-drug_14.log
 Initial command:
 /uufs/chpc.utah.edu/sys/installdir/gaussian16/C01/AVX/g16/l1.exe "/scratch/general/vast/u1414944/6939693-notchpeak.peaks/Gau-2417194.inp" -scrdir="/scratch/general/vast/u1414944/6939693-notchpeak.peaks/"
 Entering Link 1 = /uufs/chpc.utah.edu/sys/installdir/gaussian16/C01/AVX/g16/l1.exe PID=   2417195.
  
 Copyright (c) 1988-2019, Gaussian, Inc.  All Rights Reserved.
  
 This is part of the Gaussian(R) 16 program.  It is based on
 the Gaussian(R) 09 system (copyright 2009, Gaussian, Inc.),
 the Gaussian(R) 03 system (copyright 2003, Gaussian, Inc.),
 the Gaussian(R) 98 system (copyright 1998, Gaussian, Inc.),
 the Gaussian(R) 94 system (copyright 1995, Gaussian, Inc.),
 the Gaussian 92(TM) system (copyright 1992, Gaussian, Inc.),
 the Gaussian 90(TM) system (copyright 1990, Gaussian, Inc.),
 the Gaussian 88(TM) system (copyright 1988, Gaussian, Inc.),
 the Gaussian 86(TM) system (copyright 1986, Carnegie Mellon
 University), and the Gaussian 82(TM) system (copyright 1983,
 Carnegie Mellon University). Gaussian is a federally registered
 trademark of Gaussian, Inc.
  
 This software contains proprietary and confidential information,
 including trade secrets, belonging to Gaussian, Inc.
  
 This software is provided under written license and may be
 used, copied, transmitted, or stored only in accord with that
 written license.
  
 The following legend is applicable only to US Government
 contracts under FAR:
  
                    RESTRICTED RIGHTS LEGEND
  
 Use, reproduction and disclosure by the US Government is
 subject to restrictions as set forth in subparagraphs (a)
 and (c) of the Commercial Computer Software - Restricted
 Rights clause in FAR 52.227-19.
  
 Gaussian, Inc.
 340 Quinnipiac St., Bldg. 40, Wallingford CT 06492
  
  
 ---------------------------------------------------------------
 Warning -- This program may not be used in any manner that
 competes with the business of Gaussian, Inc. or will provide
 assistance to any competitor of Gaussian, Inc.  The licensee
 of this program is prohibited from giving any competitor of
 Gaussian, Inc. access to this program.  By using this program,
 the user acknowledges that Gaussian, Inc. is engaged in the
 business of creating and licensing software in the field of
 computational chemistry and represents and warrants to the
 licensee that it is not a competitor of Gaussian, Inc. and that
 it will not use this program in any manner prohibited above.
 ---------------------------------------------------------------
  

 Cite this work as:
 Gaussian 16, Revision C.01,
 M. J. Frisch, G. W. Trucks, H. B. Schlegel, G. E. Scuseria, 
 M. A. Robb, J. R. Cheeseman, G. Scalmani, V. Barone, 
 G. A. Petersson, H. Nakatsuji, X. Li, M. Caricato, A. V. Marenich, 
 J. Bloino, B. G. Janesko, R. Gomperts, B. Mennucci, H. P. Hratchian, 
 J. V. Ortiz, A. F. Izmaylov, J. L. Sonnenberg, D. Williams-Young, 
 F. Ding, F. Lipparini, F. Egidi, J. Goings, B. Peng, A. Petrone, 
 T. Henderson, D. Ranasinghe, V. G. Zakrzewski, J. Gao, N. Rega, 
 G. Zheng, W. Liang, M. Hada, M. Ehara, K. Toyota, R. Fukuda, 
 J. Hasegawa, M. Ishida, T. Nakajima, Y. Honda, O. Kitao, H. Nakai, 
 T. Vreven, K. Throssell, J. A. Montgomery, Jr., J. E. Peralta, 
 F. Ogliaro, M. J. Bearpark, J. J. Heyd, E. N. Brothers, K. N. Kudin, 
 V. N. Staroverov, T. A. Keith, R. Kobayashi, J. Normand, 
 K. Raghavachari, A. P. Rendell, J. C. Burant, S. S. Iyengar, 
 J. Tomasi, M. Cossi, J. M. Millam, M. Klene, C. Adamo, R. Cammi, 
 J. W. Ochterski, R. L. Martin, K. Morokuma, O. Farkas, 
 J. B. Foresman, and D. J. Fox, Gaussian, Inc., Wallingford CT, 2019.
 
 ******************************************
 Gaussian 16:  ES64L-G16RevC.01  3-Jul-2019
                13-Oct-2025 
 ******************************************
 %NProcShared=16
 Will use up to   16 processors via shared memory.
 %Mem=40GB
 %chk=SDI-drug_14.chk
 ----------------------------------------------------------------------
 #N OPT FREQ=NORAMAN Integral(Ultrafine) pbe1pbe EmpiricalDispersion=GD
 3BJ def2SVP
 ----------------------------------------------------------------------
 1/18=20,19=15,26=4,38=1/1,3;
 2/9=110,12=2,17=6,18=5,40=1/2;
 3/5=43,7=101,11=2,25=1,30=1,71=1,74=-13,75=-5,124=41/1,2,3;
 4//1;
 5/5=2,38=5/2;
 6/7=2,8=2,9=2,10=2,28=1/1;
 7//1,2,3,16;
 1/18=20,19=15,26=4/3(2);
 2/9=110/2;
 99//99;
 2/9=110/2;
 3/5=43,7=101,11=2,25=1,30=1,71=1,74=-13,75=-5,124=41/1,2,3;
 4/5=5,16=3,69=1/1;
 5/5=2,38=5/2;
 7//1,2,3,16;
 1/18=20,19=15,26=4/3(-5);
 2/9=110/2;
 6/7=2,8=2,9=2,10=2,19=2,28=1/1;
 99/9=1/99;
 -----------
 SDI-drug_14
 -----------
 Symbolic Z-matrix:
 Charge =  0 Multiplicity = 1
 O                     0.1202   -4.62772   0.69553 
 C                     0.36824  -3.45759   0.49924 
 N                     1.65684  -3.01438   0.52082 
 C                     2.21922  -1.74682   0.35587 
 C                     3.5366   -1.67197  -0.09838 
 C                     4.14502  -0.44911  -0.29087 
 C                     3.44494   0.72276  -0.04533 
 Cl                    4.20574   2.23494  -0.35658 
 C                     2.13259   0.6725    0.42162 
 C                     1.33479   1.89706   0.63089 
 C                     0.08572   2.01246   0.02083 
 C                    -0.62804   3.18681   0.18407 
 C                    -0.08379   4.19425   0.96623 
 C                     1.15992   3.97489   1.54091 
 N                     1.85393   2.86508   1.37569 
 C                     1.54343  -0.56684   0.64429 
 C                    -0.71659  -2.45561   0.24876 
 C                    -0.8053   -1.71973  -0.93258 
 Cl                    0.35521  -1.94608  -2.19041 
 C                    -1.81662  -0.78653  -1.10165 
 C                    -1.70904  -2.31092   1.21429 
 C                    -2.72216  -1.38455   1.04908 
 C                    -2.74209  -0.60493  -0.09313 
 S                    -4.03111   0.65987  -0.29085 
 N                    -3.55949   1.39775  -1.55351 
 C                    -3.75383   1.60714   1.25047 
 N                    -5.45626   0.14385  -0.05108 
 H                     2.32731  -3.77299   0.58793 
 H                     4.08159  -2.58013  -0.30933 
 H                     5.16142  -0.39626  -0.64696 
 H                    -0.30074   1.21186  -0.58978 
 H                    -1.58457   3.30786  -0.30373 
 H                    -0.60401   5.12673   1.12035 
 H                     1.63156   4.72596   2.16129 
 H                     0.54989  -0.5915    1.06099 
 H                    -1.8988   -0.1853   -1.99346 
 H                    -1.66174  -2.92551   2.10027 
 H                    -3.49388  -1.26685   1.79265 
 H                    -4.27707   1.9362   -2.00952 
 H                    -2.68847   1.70868   1.42096 
 H                    -4.24262   1.0705    2.05186 
 H                    -4.21409   2.58056   1.12554 
 H                    -5.8998   -0.25495  -0.8619 
 

 GradGradGradGradGradGradGradGradGradGradGradGradGradGradGradGradGradGrad
 Berny optimization.
 Initialization pass.
                           ----------------------------
                           !    Initial Parameters    !
                           ! (Angstroms and Degrees)  !
 --------------------------                            --------------------------
 ! Name  Definition              Value          Derivative Info.                !
 --------------------------------------------------------------------------------
 ! R1    R(1,2)                  1.2121         estimate D2E/DX2                !
 ! R2    R(2,3)                  1.3629         estimate D2E/DX2                !
 ! R3    R(2,17)                 1.4979         estimate D2E/DX2                !
 ! R4    R(3,4)                  1.3965         estimate D2E/DX2                !
 ! R5    R(3,28)                 1.0146         estimate D2E/DX2                !
 ! R6    R(4,5)                  1.3955         estimate D2E/DX2                !
 ! R7    R(4,16)                 1.39           estimate D2E/DX2                !
 ! R8    R(5,6)                  1.3793         estimate D2E/DX2                !
 ! R9    R(5,29)                 1.0799         estimate D2E/DX2                !
 ! R10   R(6,7)                  1.387          estimate D2E/DX2                !
 ! R11   R(6,30)                 1.0783         estimate D2E/DX2                !
 ! R12   R(7,8)                  1.7212         estimate D2E/DX2                !
 ! R13   R(7,9)                  1.3939         estimate D2E/DX2                !
 ! R14   R(9,10)                 1.4764         estimate D2E/DX2                !
 ! R15   R(9,16)                 1.3902         estimate D2E/DX2                !
 ! R16   R(10,11)                1.3949         estimate D2E/DX2                !
 ! R17   R(10,15)                1.3271         estimate D2E/DX2                !
 ! R18   R(11,12)                1.3839         estimate D2E/DX2                !
 ! R19   R(11,31)                1.0785         estimate D2E/DX2                !
 ! R20   R(12,13)                1.3867         estimate D2E/DX2                !
 ! R21   R(12,32)                1.0805         estimate D2E/DX2                !
 ! R22   R(13,14)                1.3875         estimate D2E/DX2                !
 ! R23   R(13,33)                1.0788         estimate D2E/DX2                !
 ! R24   R(14,15)                1.3193         estimate D2E/DX2                !
 ! R25   R(14,34)                1.0823         estimate D2E/DX2                !
 ! R26   R(16,35)                1.0777         estimate D2E/DX2                !
 ! R27   R(17,18)                1.3946         estimate D2E/DX2                !
 ! R28   R(17,21)                1.3922         estimate D2E/DX2                !
 ! R29   R(18,19)                1.7263         estimate D2E/DX2                !
 ! R30   R(18,20)                1.3864         estimate D2E/DX2                !
 ! R31   R(20,23)                1.3808         estimate D2E/DX2                !
 ! R32   R(20,36)                1.0787         estimate D2E/DX2                !
 ! R33   R(21,22)                1.3827         estimate D2E/DX2                !
 ! R34   R(21,37)                1.0793         estimate D2E/DX2                !
 ! R35   R(22,23)                1.3831         estimate D2E/DX2                !
 ! R36   R(22,38)                1.0781         estimate D2E/DX2                !
 ! R37   R(23,24)                1.8167         estimate D2E/DX2                !
 ! R38   R(24,25)                1.5366         estimate D2E/DX2                !
 ! R39   R(24,26)                1.8303         estimate D2E/DX2                !
 ! R40   R(24,27)                1.5345         estimate D2E/DX2                !
 ! R41   R(25,39)                1.0064         estimate D2E/DX2                !
 ! R42   R(26,40)                1.0837         estimate D2E/DX2                !
 ! R43   R(26,41)                1.0813         estimate D2E/DX2                !
 ! R44   R(26,42)                1.084          estimate D2E/DX2                !
 ! R45   R(27,43)                1.0066         estimate D2E/DX2                !
 ! A1    A(1,2,3)              120.3216         estimate D2E/DX2                !
 ! A2    A(1,2,17)             121.6442         estimate D2E/DX2                !
 ! A3    A(3,2,17)             118.0275         estimate D2E/DX2                !
 ! A4    A(2,3,4)              132.3824         estimate D2E/DX2                !
 ! A5    A(2,3,28)             112.5005         estimate D2E/DX2                !
 ! A6    A(4,3,28)             114.8555         estimate D2E/DX2                !
 ! A7    A(3,4,5)              117.8593         estimate D2E/DX2                !
 ! A8    A(3,4,16)             123.3817         estimate D2E/DX2                !
 ! A9    A(5,4,16)             118.7475         estimate D2E/DX2                !
 ! A10   A(4,5,6)              120.6224         estimate D2E/DX2                !
 ! A11   A(4,5,29)             119.6612         estimate D2E/DX2                !
 ! A12   A(6,5,29)             119.7142         estimate D2E/DX2                !
 ! A13   A(5,6,7)              120.1129         estimate D2E/DX2                !
 ! A14   A(5,6,30)             120.3527         estimate D2E/DX2                !
 ! A15   A(7,6,30)             119.5279         estimate D2E/DX2                !
 ! A16   A(6,7,8)              119.1565         estimate D2E/DX2                !
 ! A17   A(6,7,9)              120.2705         estimate D2E/DX2                !
 ! A18   A(8,7,9)              120.5601         estimate D2E/DX2                !
 ! A19   A(7,9,10)             121.7583         estimate D2E/DX2                !
 ! A20   A(7,9,16)             119.0003         estimate D2E/DX2                !
 ! A21   A(10,9,16)            119.1899         estimate D2E/DX2                !
 ! A22   A(9,10,11)            119.3738         estimate D2E/DX2                !
 ! A23   A(9,10,15)            118.2391         estimate D2E/DX2                !
 ! A24   A(11,10,15)           122.37           estimate D2E/DX2                !
 ! A25   A(10,11,12)           118.716          estimate D2E/DX2                !
 ! A26   A(10,11,31)           120.4692         estimate D2E/DX2                !
 ! A27   A(12,11,31)           120.79           estimate D2E/DX2                !
 ! A28   A(11,12,13)           118.7246         estimate D2E/DX2                !
 ! A29   A(11,12,32)           119.8932         estimate D2E/DX2                !
 ! A30   A(13,12,32)           121.3782         estimate D2E/DX2                !
 ! A31   A(12,13,14)           118.0711         estimate D2E/DX2                !
 ! A32   A(12,13,33)           121.2831         estimate D2E/DX2                !
 ! A33   A(14,13,33)           120.6439         estimate D2E/DX2                !
 ! A34   A(13,14,15)           123.5475         estimate D2E/DX2                !
 ! A35   A(13,14,34)           121.2186         estimate D2E/DX2                !
 ! A36   A(15,14,34)           115.2328         estimate D2E/DX2                !
 ! A37   A(10,15,14)           118.5604         estimate D2E/DX2                !
 ! A38   A(4,16,9)             121.1645         estimate D2E/DX2                !
 ! A39   A(4,16,35)            120.5983         estimate D2E/DX2                !
 ! A40   A(9,16,35)            118.2319         estimate D2E/DX2                !
 ! A41   A(2,17,18)            122.7314         estimate D2E/DX2                !
 ! A42   A(2,17,21)            118.0245         estimate D2E/DX2                !
 ! A43   A(18,17,21)           119.1628         estimate D2E/DX2                !
 ! A44   A(17,18,19)           120.3477         estimate D2E/DX2                !
 ! A45   A(17,18,20)           120.3221         estimate D2E/DX2                !
 ! A46   A(19,18,20)           119.3251         estimate D2E/DX2                !
 ! A47   A(18,20,23)           119.2327         estimate D2E/DX2                !
 ! A48   A(18,20,36)           122.1104         estimate D2E/DX2                !
 ! A49   A(23,20,36)           118.6524         estimate D2E/DX2                !
 ! A50   A(17,21,22)           120.6039         estimate D2E/DX2                !
 ! A51   A(17,21,37)           118.613          estimate D2E/DX2                !
 ! A52   A(22,21,37)           120.7762         estimate D2E/DX2                !
 ! A53   A(21,22,23)           119.1361         estimate D2E/DX2                !
 ! A54   A(21,22,38)           121.0124         estimate D2E/DX2                !
 ! A55   A(23,22,38)           119.8508         estimate D2E/DX2                !
 ! A56   A(20,23,22)           121.2927         estimate D2E/DX2                !
 ! A57   A(20,23,24)           119.1858         estimate D2E/DX2                !
 ! A58   A(22,23,24)           119.5081         estimate D2E/DX2                !
 ! A59   A(23,24,25)           101.8861         estimate D2E/DX2                !
 ! A60   A(23,24,26)            99.2757         estimate D2E/DX2                !
 ! A61   A(23,24,27)           114.0698         estimate D2E/DX2                !
 ! A62   A(25,24,26)           113.388          estimate D2E/DX2                !
 ! A63   A(25,24,27)           125.0933         estimate D2E/DX2                !
 ! A64   A(26,24,27)           100.5537         estimate D2E/DX2                !
 ! A65   A(24,25,39)           114.2301         estimate D2E/DX2                !
 ! A66   A(24,26,40)           109.264          estimate D2E/DX2                !
 ! A67   A(24,26,41)           107.3854         estimate D2E/DX2                !
 ! A68   A(24,26,42)           107.6616         estimate D2E/DX2                !
 ! A69   A(40,26,41)           111.9818         estimate D2E/DX2                !
 ! A70   A(40,26,42)           110.5741         estimate D2E/DX2                !
 ! A71   A(41,26,42)           109.8258         estimate D2E/DX2                !
 ! A72   A(24,27,43)           114.6197         estimate D2E/DX2                !
 ! D1    D(1,2,3,4)           -178.688          estimate D2E/DX2                !
 ! D2    D(1,2,3,28)             7.6256         estimate D2E/DX2                !
 ! D3    D(17,2,3,4)             0.3879         estimate D2E/DX2                !
 ! D4    D(17,2,3,28)         -173.2985         estimate D2E/DX2                !
 ! D5    D(1,2,17,18)         -119.2436         estimate D2E/DX2                !
 ! D6    D(1,2,17,21)           57.4477         estimate D2E/DX2                !
 ! D7    D(3,2,17,18)           61.6933         estimate D2E/DX2                !
 ! D8    D(3,2,17,21)         -121.6153         estimate D2E/DX2                !
 ! D9    D(2,3,4,5)           -154.5893         estimate D2E/DX2                !
 ! D10   D(2,3,4,16)            26.6621         estimate D2E/DX2                !
 ! D11   D(28,3,4,5)            18.9818         estimate D2E/DX2                !
 ! D12   D(28,3,4,16)         -159.7667         estimate D2E/DX2                !
 ! D13   D(3,4,5,6)            179.519          estimate D2E/DX2                !
 ! D14   D(3,4,5,29)             0.0581         estimate D2E/DX2                !
 ! D15   D(16,4,5,6)            -1.6728         estimate D2E/DX2                !
 ! D16   D(16,4,5,29)          178.8662         estimate D2E/DX2                !
 ! D17   D(3,4,16,9)          -177.8803         estimate D2E/DX2                !
 ! D18   D(3,4,16,35)            2.9776         estimate D2E/DX2                !
 ! D19   D(5,4,16,9)             3.3816         estimate D2E/DX2                !
 ! D20   D(5,4,16,35)         -175.7605         estimate D2E/DX2                !
 ! D21   D(4,5,6,7)             -0.61           estimate D2E/DX2                !
 ! D22   D(4,5,6,30)          -179.6771         estimate D2E/DX2                !
 ! D23   D(29,5,6,7)           178.8507         estimate D2E/DX2                !
 ! D24   D(29,5,6,30)           -0.2164         estimate D2E/DX2                !
 ! D25   D(5,6,7,8)           -177.4545         estimate D2E/DX2                !
 ! D26   D(5,6,7,9)              1.2469         estimate D2E/DX2                !
 ! D27   D(30,6,7,8)             1.6203         estimate D2E/DX2                !
 ! D28   D(30,6,7,9)          -179.6783         estimate D2E/DX2                !
 ! D29   D(6,7,9,10)          -176.9513         estimate D2E/DX2                !
 ! D30   D(6,7,9,16)             0.4189         estimate D2E/DX2                !
 ! D31   D(8,7,9,10)             1.7317         estimate D2E/DX2                !
 ! D32   D(8,7,9,16)           179.102          estimate D2E/DX2                !
 ! D33   D(7,9,10,11)          125.992          estimate D2E/DX2                !
 ! D34   D(7,9,10,15)          -52.5365         estimate D2E/DX2                !
 ! D35   D(16,9,10,11)         -51.3734         estimate D2E/DX2                !
 ! D36   D(16,9,10,15)         130.0981         estimate D2E/DX2                !
 ! D37   D(7,9,16,4)            -2.7651         estimate D2E/DX2                !
 ! D38   D(7,9,16,35)          176.3968         estimate D2E/DX2                !
 ! D39   D(10,9,16,4)          174.6737         estimate D2E/DX2                !
 ! D40   D(10,9,16,35)          -6.1645         estimate D2E/DX2                !
 ! D41   D(9,10,11,12)        -177.542          estimate D2E/DX2                !
 ! D42   D(9,10,11,31)           0.6598         estimate D2E/DX2                !
 ! D43   D(15,10,11,12)          0.9231         estimate D2E/DX2                !
 ! D44   D(15,10,11,31)        179.1249         estimate D2E/DX2                !
 ! D45   D(9,10,15,14)         178.4244         estimate D2E/DX2                !
 ! D46   D(11,10,15,14)         -0.0573         estimate D2E/DX2                !
 ! D47   D(10,11,12,13)         -1.0752         estimate D2E/DX2                !
 ! D48   D(10,11,12,32)        178.2135         estimate D2E/DX2                !
 ! D49   D(31,11,12,13)       -179.271          estimate D2E/DX2                !
 ! D50   D(31,11,12,32)          0.0177         estimate D2E/DX2                !
 ! D51   D(11,12,13,14)          0.4271         estimate D2E/DX2                !
 ! D52   D(11,12,13,33)        179.9336         estimate D2E/DX2                !
 ! D53   D(32,12,13,14)       -178.8505         estimate D2E/DX2                !
 ! D54   D(32,12,13,33)          0.656          estimate D2E/DX2                !
 ! D55   D(12,13,14,15)          0.4647         estimate D2E/DX2                !
 ! D56   D(12,13,14,34)       -179.9382         estimate D2E/DX2                !
 ! D57   D(33,13,14,15)       -179.0451         estimate D2E/DX2                !
 ! D58   D(33,13,14,34)          0.5519         estimate D2E/DX2                !
 ! D59   D(13,14,15,10)         -0.6531         estimate D2E/DX2                !
 ! D60   D(34,14,15,10)        179.7279         estimate D2E/DX2                !
 ! D61   D(2,17,18,19)           0.3857         estimate D2E/DX2                !
 ! D62   D(2,17,18,20)        -178.7848         estimate D2E/DX2                !
 ! D63   D(21,17,18,19)       -176.2695         estimate D2E/DX2                !
 ! D64   D(21,17,18,20)          4.56           estimate D2E/DX2                !
 ! D65   D(2,17,21,22)         178.8126         estimate D2E/DX2                !
 ! D66   D(2,17,21,37)          -0.2323         estimate D2E/DX2                !
 ! D67   D(18,17,21,22)         -4.3746         estimate D2E/DX2                !
 ! D68   D(18,17,21,37)        176.5805         estimate D2E/DX2                !
 ! D69   D(17,18,20,23)         -0.6787         estimate D2E/DX2                !
 ! D70   D(17,18,20,36)        178.533          estimate D2E/DX2                !
 ! D71   D(19,18,20,23)       -179.8577         estimate D2E/DX2                !
 ! D72   D(19,18,20,36)         -0.646          estimate D2E/DX2                !
 ! D73   D(18,20,23,22)         -3.5162         estimate D2E/DX2                !
 ! D74   D(18,20,23,24)        177.8215         estimate D2E/DX2                !
 ! D75   D(36,20,23,22)        177.2446         estimate D2E/DX2                !
 ! D76   D(36,20,23,24)         -1.4176         estimate D2E/DX2                !
 ! D77   D(17,21,22,23)          0.3017         estimate D2E/DX2                !
 ! D78   D(17,21,22,38)       -179.9866         estimate D2E/DX2                !
 ! D79   D(37,21,22,23)        179.3259         estimate D2E/DX2                !
 ! D80   D(37,21,22,38)         -0.9624         estimate D2E/DX2                !
 ! D81   D(21,22,23,20)          3.7081         estimate D2E/DX2                !
 ! D82   D(21,22,23,24)       -177.6339         estimate D2E/DX2                !
 ! D83   D(38,22,23,20)       -176.007          estimate D2E/DX2                !
 ! D84   D(38,22,23,24)          2.651          estimate D2E/DX2                !
 ! D85   D(20,23,24,25)         -9.2684         estimate D2E/DX2                !
 ! D86   D(20,23,24,26)       -125.7176         estimate D2E/DX2                !
 ! D87   D(20,23,24,27)        128.2483         estimate D2E/DX2                !
 ! D88   D(22,23,24,25)        172.0451         estimate D2E/DX2                !
 ! D89   D(22,23,24,26)         55.5959         estimate D2E/DX2                !
 ! D90   D(22,23,24,27)        -50.4382         estimate D2E/DX2                !
 ! D91   D(23,24,25,39)        160.8966         estimate D2E/DX2                !
 ! D92   D(26,24,25,39)        -93.4098         estimate D2E/DX2                !
 ! D93   D(27,24,25,39)         29.8043         estimate D2E/DX2                !
 ! D94   D(23,24,26,40)         41.0489         estimate D2E/DX2                !
 ! D95   D(23,24,26,41)        -80.6139         estimate D2E/DX2                !
 ! D96   D(23,24,26,42)        161.1784         estimate D2E/DX2                !
 ! D97   D(25,24,26,40)        -66.2893         estimate D2E/DX2                !
 ! D98   D(25,24,26,41)        172.0478         estimate D2E/DX2                !
 ! D99   D(25,24,26,42)         53.8401         estimate D2E/DX2                !
 ! D100  D(27,24,26,40)        157.8434         estimate D2E/DX2                !
 ! D101  D(27,24,26,41)         36.1806         estimate D2E/DX2                !
 ! D102  D(27,24,26,42)        -82.0271         estimate D2E/DX2                !
 ! D103  D(23,24,27,43)        -86.8627         estimate D2E/DX2                !
 ! D104  D(25,24,27,43)         39.263          estimate D2E/DX2                !
 ! D105  D(26,24,27,43)        167.9013         estimate D2E/DX2                !
 --------------------------------------------------------------------------------
 Trust Radius=3.00D-01 FncErr=1.00D-07 GrdErr=1.00D-06 EigMax=2.50D+02 EigMin=1.00D-04
 Number of steps in this run=    232 maximum allowed number of steps=    258.
 GradGradGradGradGradGradGradGradGradGradGradGradGradGradGradGradGradGrad

                          Input orientation:                          
 ---------------------------------------------------------------------
 Center     Atomic      Atomic             Coordinates (Angstroms)
 Number     Number       Type             X           Y           Z
 ---------------------------------------------------------------------
      1          8           0        0.120198   -4.627718    0.695528
      2          6           0        0.368237   -3.457591    0.499245
      3          7           0        1.656840   -3.014384    0.520824
      4          6           0        2.219222   -1.746822    0.355871
      5          6           0        3.536599   -1.671966   -0.098383
      6          6           0        4.145020   -0.449110   -0.290866
      7          6           0        3.444938    0.722757   -0.045329
      8         17           0        4.205736    2.234938   -0.356585
      9          6           0        2.132586    0.672498    0.421616
     10          6           0        1.334793    1.897059    0.630887
     11          6           0        0.085718    2.012463    0.020830
     12          6           0       -0.628040    3.186805    0.184066
     13          6           0       -0.083788    4.194250    0.966228
     14          6           0        1.159919    3.974895    1.540912
     15          7           0        1.853930    2.865077    1.375686
     16          6           0        1.543433   -0.566842    0.644290
     17          6           0       -0.716591   -2.455608    0.248758
     18          6           0       -0.805304   -1.719726   -0.932577
     19         17           0        0.355213   -1.946082   -2.190414
     20          6           0       -1.816623   -0.786525   -1.101647
     21          6           0       -1.709042   -2.310922    1.214285
     22          6           0       -2.722163   -1.384551    1.049080
     23          6           0       -2.742086   -0.604927   -0.093134
     24         16           0       -4.031113    0.659868   -0.290847
     25          7           0       -3.559486    1.397751   -1.553514
     26          6           0       -3.753830    1.607143    1.250465
     27          7           0       -5.456263    0.143854   -0.051076
     28          1           0        2.327306   -3.772987    0.587931
     29          1           0        4.081593   -2.580134   -0.309329
     30          1           0        5.161417   -0.396260   -0.646958
     31          1           0       -0.300738    1.211863   -0.589780
     32          1           0       -1.584569    3.307855   -0.303734
     33          1           0       -0.604010    5.126727    1.120354
     34          1           0        1.631556    4.725960    2.161294
     35          1           0        0.549892   -0.591501    1.060987
     36          1           0       -1.898798   -0.185297   -1.993456
     37          1           0       -1.661741   -2.925509    2.100268
     38          1           0       -3.493881   -1.266849    1.792647
     39          1           0       -4.277073    1.936196   -2.009520
     40          1           0       -2.688475    1.708682    1.420956
     41          1           0       -4.242625    1.070503    2.051861
     42          1           0       -4.214092    2.580560    1.125539
     43          1           0       -5.899800   -0.254954   -0.861899
 ---------------------------------------------------------------------
                    Distance matrix (angstroms):
                    1          2          3          4          5
     1  O    0.000000
     2  C    1.212125   0.000000
     3  N    2.234869   1.362863   0.000000
     4  C    3.580619   2.524565   1.396494   0.000000
     5  C    4.586781   3.685665   2.391442   1.395504   0.000000
     6  C    5.884975   4.892783   3.664766   2.410607   1.379349
     7  C    6.342740   5.219000   4.181393   2.786066   2.397064
     8  Cl   8.055720   6.918362   5.901025   4.506467   3.972193
     9  C    5.676004   4.491836   3.718773   2.421763   2.781755
    10  C    6.637178   5.442778   4.923220   3.759749   4.256492
    11  C    6.674460   5.498199   5.290331   4.335472   5.049535
    12  C    7.866907   6.726062   6.617313   5.698868   6.405596
    13  C    8.828477   7.679393   7.429170   6.400994   6.975176
    14  C    8.706357   7.546766   7.080786   5.938391   6.342155
    15  N    7.720779   6.553745   5.944552   4.737412   5.058559
    16  C    4.303364   3.123869   2.453277   1.390046   2.396992
    17  C    2.370207   1.497855   2.453452   3.022060   4.338689
    18  C    3.458857   2.539190   3.138576   3.287641   4.421569
    19  Cl   3.946526   3.085303   3.191600   3.161931   3.817454
    20  C    4.662175   3.804085   4.434039   4.397109   5.517928
    21  C    2.997127   2.478149   3.507835   4.060337   5.445007
    22  C    4.326909   3.761700   4.702241   5.002905   6.369566
    23  C    4.999750   4.261774   5.053016   5.110783   6.368711
    24  S    6.794474   6.077171   6.819952   6.728825   7.921159
    25  N    7.409760   6.573825   7.140018   6.850369   7.867337
    26  C    7.361355   6.573227   7.153058   6.908453   8.106929
    27  N    7.377142   6.870085   7.803702   7.915385   9.174475
    28  H    2.369277   1.986276   1.014646   2.042272   2.519464
    29  H    4.571104   3.900351   2.599453   2.146003   1.079947
    30  H    6.717246   5.801732   4.527731   3.389129   2.137380
    31  H    5.994157   4.841209   4.788185   3.999784   4.825256
    32  H    8.177902   7.087277   7.152435   6.360319   7.146128
    33  H    9.790513   8.661499   8.470452   7.469989   8.053086
    34  H    9.587699   8.445644   7.912313   6.745503   7.047609
    35  H    4.075444   2.926265   2.717990   2.149097   3.381118
    36  H    5.571542   4.696905   5.193062   4.991572   5.945168
    37  H    2.836568   2.639545   3.676346   4.415212   5.781710
    38  H    5.055757   4.624738   5.585816   5.910519   7.291622
    39  H    8.350942   7.547566   8.131555   7.833361   8.816164
    40  H    6.968849   6.073172   6.480690   6.095933   7.244910
    41  H    7.303669   6.646375   7.337169   7.250459   8.524142
    42  H    8.422010   7.605870   8.132461   7.791415   8.924975
    43  H    7.601777   7.169232   8.162669   8.344288   9.572695
                    6          7          8          9         10
     6  C    0.000000
     7  C    1.386966   0.000000
     8  Cl   2.685539   1.721158   0.000000
     9  C    2.411540   1.393855   2.710123   0.000000
    10  C    3.775117   2.507781   3.054763   1.476421   0.000000
    11  C    4.757565   3.598899   4.143246   2.479074   1.394875
    12  C    6.018932   4.765848   4.956183   3.741555   2.390776
    13  C    6.404989   5.052367   4.897831   4.196624   2.720645
    14  C    5.642522   4.279471   3.988100   3.620046   2.275111
    15  N    4.360083   3.023264   2.988114   2.407344   1.327135
    16  C    2.767062   2.398825   3.992440   1.390197   2.472755
    17  C    5.287012   5.244694   6.826197   4.234706   4.826997
    18  C    5.150918   4.981715   6.409497   4.023403   4.483923
    19  Cl   4.495759   4.611994   5.972469   4.103501   4.867140
    20  C    6.025977   5.574743   6.778876   4.477201   4.487172
    21  C    6.324702   6.111738   7.623455   4.928207   5.226125
    22  C    7.058945   6.608450   7.941812   5.309778   5.234762
    23  C    6.891705   6.328056   7.510424   5.065492   4.837880
    24  S    8.250999   7.480346   8.386349   6.204752   5.583295
    25  N    8.022754   7.196679   7.901404   6.068510   5.382832
    26  C    8.306366   7.367732   8.144411   6.017512   5.134395
    27  N    9.622564   8.920007   9.890409   7.621911   7.046789
    28  H    3.889026   4.675663   6.365200   4.452854   5.756417
    29  H    2.132047   3.374035   4.816904   3.861673   5.336119
    30  H    1.078266   2.135522   2.814400   3.384953   4.640608
    31  H    4.755307   3.816509   4.627026   2.689778   2.152785
    32  H    6.851507   5.660870   5.889107   4.613945   3.374394
    33  H    7.458873   6.094895   5.803227   5.274216   3.798591
    34  H    6.253954   4.917639   4.378505   4.439377   3.230000
    35  H    3.843531   3.366378   4.833577   2.124008   2.644614
    36  H    6.284596   5.759798   6.767734   4.777075   4.656124
    37  H    6.750448   6.632616   8.191070   5.491852   5.864763
    38  H    7.960058   7.448751   8.727303   6.107203   5.888641
    39  H    8.920488   8.059772   8.647513   6.970731   6.202122
    40  H    7.367703   6.382851   7.139099   5.031400   4.104434
    41  H    8.840259   7.976074   8.861790   6.592376   5.814632
    42  H    9.003325   7.967629   8.556264   6.664573   5.612663
    43  H   10.062911   9.431162  10.420017   8.186990   7.694082
                   11         12         13         14         15
    11  C    0.000000
    12  C    1.383899   0.000000
    13  C    2.383842   1.386698   0.000000
    14  C    2.704754   2.378848   1.387511   0.000000
    15  N    2.385196   2.771939   2.385185   1.319335   0.000000
    16  C    3.027614   4.360845   5.041774   4.645254   3.522700
    17  C    4.545251   5.643479   6.718319   6.822193   6.015583
    18  C    3.953750   5.035113   6.253092   6.512216   5.781005
    19  Cl   4.542280   5.740337   6.918149   7.044737   6.173368
    20  C    3.565556   4.342020   5.664533   6.205968   5.739716
    21  C    4.830854   5.696922   6.709712   6.917305   6.285840
    22  C    4.525616   5.102048   6.171783   6.635971   6.253530
    23  C    3.854892   4.350088   5.587566   6.234622   5.943208
    24  S    4.344532   4.265191   5.445500   6.425851   6.501847
    25  N    4.017952   3.848801   5.123473   6.204025   6.327585
    26  C    4.051965   3.661025   4.499235   5.462191   5.748483
    27  N    5.848967   5.711967   6.804711   7.809299   7.929667
    28  H    6.230389   7.572046   8.332667   7.893075   6.701383
    29  H    6.096554   7.462015   8.054174   7.411341   6.119810
    30  H    5.657791   6.859065   7.154531   6.317100   5.066249
    31  H    1.078496   2.146243   3.370883   3.782553   3.352427
    32  H    2.138514   1.080532   2.156581   3.373407   3.852243
    33  H    3.373917   2.154184   1.078842   2.148262   3.349884
    34  H    3.786062   3.374049   2.157152   1.082319   2.032121
    35  H    2.842184   4.053654   4.828451   4.631893   3.707760
    36  H    3.581313   4.210404   5.588776   6.257372   5.893969
    37  H    5.635711   6.488509   7.380172   7.475976   6.812918
    38  H    5.167857   5.534944   6.491171   7.014064   6.770949
    39  H    4.812700   4.437486   5.615828   6.806081   7.064817
    40  H    3.122304   2.821371   3.628942   4.467689   4.687509
    41  H    4.873082   4.586133   5.313409   6.155001   6.391063
    42  H    4.475655   3.756817   4.437205   5.567468   6.079837
    43  H    6.461177   6.382100   7.547414   8.573491   8.652266
                   16         17         18         19         20
    16  C    0.000000
    17  C    2.971799   0.000000
    18  C    3.054867   1.394612   0.000000
    19  Cl   3.368934   2.712553   1.726323   0.000000
    20  C    3.792958   2.412364   1.386440   2.691999   0.000000
    21  C    3.734341   1.392169   2.403179   3.998279   2.774689
    22  C    4.362088   2.410393   2.777347   4.503319   2.408996
    23  C    4.348668   2.764875   2.387167   3.973731   1.380781
    24  S    5.784018   4.580766   4.059573   5.444188   2.766481
    25  N    5.893195   5.116504   4.205918   5.187651   2.830692
    26  C    5.758008   5.170511   4.952529   6.430341   3.874900
    27  N    7.069962   5.414018   5.087376   6.535889   3.900805
    28  H    3.301060   3.334042   4.042408   3.865997   5.380128
    29  H    3.377128   4.832137   5.001050   4.222134   6.215606
    30  H    3.845286   6.292392   6.118406   5.280512   7.003720
    31  H    2.843886   3.785026   2.994380   3.600683   2.559975
    32  H    5.069164   5.854582   5.126331   5.909837   4.177854
    33  H    6.103677   7.633096   7.150452   7.868031   6.432283
    34  H    5.506616   7.794004   7.553621   8.067376   7.274903
    35  H    1.077668   2.395535   2.661530   3.527662   3.211761
    36  H    4.353417   3.402859   2.162329   2.867005   1.078680
    37  H    4.237490   2.131244   3.374247   4.841212   3.853764
    38  H    5.213757   3.392651   3.854918   5.580471   3.379474
    39  H    6.869221   6.088086   5.155459   6.046724   3.780378
    40  H    4.867264   4.754333   4.565023   5.971878   3.653726
    41  H    6.175809   5.302598   5.339234   6.945271   4.390746
    42  H    6.579273   6.193887   5.860729   7.236337   4.695261
    43  H    7.600499   5.739519   5.301362   6.614382   4.124607
                   21         22         23         24         25
    21  C    0.000000
    22  C    1.382704   0.000000
    23  C    2.384731   1.383063   0.000000
    24  S    4.059930   2.772797   1.816697   0.000000
    25  N    4.983885   3.900745   2.609899   1.536631   0.000000
    26  C    4.419695   3.170982   2.778874   1.830262   2.818496
    27  N    4.654968   3.319890   2.815883   1.534539   2.725315
    28  H    4.338440   5.604857   6.016576   7.800766   8.122600
    29  H    5.993774   7.040297   7.107093   8.735786   8.703887
    30  H    7.371116   8.124290   7.925630   9.259850   8.949551
    31  H    4.200950   3.910310   3.083433   3.782824   3.403347
    32  H    5.821557   5.014270   4.085837   3.605215   3.018401
    33  H    7.519876   6.847510   6.236648   5.804253   5.457991
    34  H    7.846918   7.584869   7.254622   7.389988   7.198867
    35  H    2.843007   3.366810   3.488451   4.937508   5.261153
    36  H    3.852777   3.372412   2.120954   2.856562   2.336124
    37  H    1.079314   2.145702   3.370943   4.917955   5.970103
    38  H    2.147148   1.078098   2.135300   2.888218   4.277989
    39  H    5.918252   4.774949   3.533557   2.154842   1.006377
    40  H    4.142369   3.115689   2.765526   2.415152   3.114934
    41  H    4.307506   3.056904   3.108004   2.387811   3.684088
    42  H    5.496339   4.237193   3.714740   2.393467   3.000812
    43  H    5.108815   3.876236   3.268737   2.157542   2.947344
                   26         27         28         29         30
    26  C    0.000000
    27  N    2.594899   0.000000
    28  H    8.146470   8.736928   0.000000
    29  H    9.019984   9.922575   2.303366   0.000000
    30  H    9.332495  10.648094   4.578145   2.459536   0.000000
    31  H    3.932759   5.292473   5.756939   5.801958   5.694249
    32  H    3.164435   5.006470   8.138560   8.171526   7.703674
    33  H    4.725015   7.053058   9.385147   9.132063   8.177219
    34  H    6.289595   8.725104   8.671311   8.092321   6.825198
    35  H    4.836523   6.152343   3.674893   4.278474   4.921520
    36  H    4.144516   4.066538   6.115148   6.658574   7.190563
    37  H    5.063984   5.333635   4.349469   6.237895   7.778164
    38  H    2.936216   3.039793   6.451224   7.970623   9.034588
    39  H    3.318066   2.904906   9.108202   9.651693   9.817434
    40  H    1.083679   3.503743   7.476676   8.198881   8.386170
    41  H    1.081267   2.598834   8.292555   9.391218   9.892978
    42  H    1.083969   2.977406   9.134904   9.874715   9.995167
    43  H    3.540434   1.006582   9.064427  10.263528  11.064207
                   31         32         33         34         35
    31  H    0.000000
    32  H    2.474515   0.000000
    33  H    4.282836   2.509545   0.000000
    34  H    4.863234   4.293116   2.498384   0.000000
    35  H    2.588576   4.650093   5.833793   5.536792   0.000000
    36  H    2.544830   3.893073   6.292050   7.337970   3.935824
    37  H    5.119231   6.681317   8.180313   8.330336   3.379203
    38  H    4.692135   5.382211   7.048485   7.894287   4.164555
    39  H    4.283872   3.469976   5.785066   7.751798   6.254347
    40  H    3.160882   2.598176   4.014771   5.321159   3.988413
    41  H    4.747285   4.197598   5.528126   6.919562   5.168394
    42  H    4.486645   3.079963   4.417656   6.312458   5.723782
    43  H    5.794402   5.623733   7.806228   9.522107   6.738640
                   36         37         38         39         40
    36  H    0.000000
    37  H    4.931889   0.000000
    38  H    4.248367   2.490486   0.000000
    39  H    3.187033   6.882331   5.032828   0.000000
    40  H    3.983586   4.794932   3.104934   3.787291   0.000000
    41  H    4.840986   4.757248   2.467999   4.152762   1.794630
    42  H    4.768509   6.146656   3.970679   3.201213   1.781839
    43  H    4.158520   5.819573   3.722766   2.958279   4.402261
                   41         42         43
    41  H    0.000000
    42  H    1.771768   0.000000
    43  H    3.604589   3.851189   0.000000
 Stoichiometry    C19H16Cl2N4OS
 Framework group  C1[X(C19H16Cl2N4OS)]
 Deg. of freedom   123
 Full point group                 C1      NOp   1
 Largest Abelian subgroup         C1      NOp   1
 Largest concise Abelian subgroup C1      NOp   1
                         Standard orientation:                         
 ---------------------------------------------------------------------
 Center     Atomic      Atomic             Coordinates (Angstroms)
 Number     Number       Type             X           Y           Z
 ---------------------------------------------------------------------
      1          8           0        0.194589   -4.551001   -1.159313
      2          6           0       -0.144791   -3.432667   -0.837756
      3          7           0       -1.465515   -3.098479   -0.800325
      4          6           0       -2.126668   -1.906473   -0.496689
      5          6           0       -3.437377   -1.989643   -0.024930
      6          6           0       -4.140255   -0.848662    0.301763
      7          6           0       -3.542927    0.396698    0.175454
      8         17           0       -4.419184    1.799247    0.652335
      9          6           0       -2.239466    0.505156   -0.306269
     10          6           0       -1.548430    1.807064   -0.391832
     11          6           0       -0.302226    1.961413    0.215481
     12          6           0        0.310006    3.201728    0.171140
     13          6           0       -0.328816    4.236852   -0.494710
     14          6           0       -1.560530    3.976225   -1.077925
     15          7           0       -2.158328    2.801288   -1.024944
     16          6           0       -1.554982   -0.650597   -0.664553
     17          6           0        0.858743   -2.375674   -0.492427
     18          6           0        0.908160   -1.762998    0.759423
     19         17           0       -0.207156   -2.215925    1.996806
     20          6           0        1.842609   -0.771744    1.017181
     21          6           0        1.818519   -2.048347   -1.446273
     22          6           0        2.755252   -1.063307   -1.193099
     23          6           0        2.731840   -0.408904    0.025126
     24         16           0        3.916404    0.931071    0.343972
     25          7           0        3.408749    1.490543    1.682072
     26          6           0        3.534896    2.008455   -1.085557
     27          7           0        5.374456    0.563525    0.037696
     28          1           0       -2.072763   -3.899027   -0.941325
     29          1           0       -3.902360   -2.957137    0.093524
     30          1           0       -5.151005   -0.918278    0.670809
     31          1           0        0.159348    1.136132    0.734146
     32          1           0        1.262034    3.350142    0.660186
     33          1           0        0.110514    5.220412   -0.553860
     34          1           0       -2.103107    4.746351   -1.610776
     35          1           0       -0.570403   -0.548586   -1.090658
     36          1           0        1.891327   -0.262672    1.966930
     37          1           0        1.805750   -2.568366   -2.391967
     38          1           0        3.501267   -0.804388   -1.927073
     39          1           0        4.087952    2.036033    2.185976
     40          1           0        2.461914    2.038267   -1.234487
     41          1           0        4.051480    1.601439   -1.943822
     42          1           0        3.916140    2.998312   -0.862346
     43          1           0        5.863633    0.120159    0.797524
 ---------------------------------------------------------------------
 Rotational constants (GHZ):           0.2006158           0.1433245           0.0960442
 Standard basis: def2SVP (5D, 7F)
 There are   497 symmetry adapted cartesian basis functions of A   symmetry.
 There are   470 symmetry adapted basis functions of A   symmetry.
   470 basis functions,   823 primitive gaussians,   497 cartesian basis functions
   108 alpha electrons      108 beta electrons
       nuclear repulsion energy      3001.3061686619 Hartrees.
 NAtoms=   43 NActive=   43 NUniq=   43 SFac= 1.00D+00 NAtFMM=   60 NAOKFM=F Big=F
 Integral buffers will be    131072 words long.
 Raffenetti 2 integral format.
 Two-electron integral symmetry is turned on.
 Nuclear repulsion after empirical dispersion term =     3001.2382671191 Hartrees.
 One-electron integrals computed using PRISM.
   1 Symmetry operations used in ECPInt.
 ECPInt:  NShTT=   23436 NPrTT=   89682 LenC2=   20718 LenP2D=   52478.
 LDataN:  DoStor=T MaxTD1= 4 Len=   56
 NBasis=   470 RedAO= T EigKep=  1.86D-04  NBF=   470
 NBsUse=   470 1.00D-06 EigRej= -1.00D+00 NBFU=   470
 ExpMin= 1.22D-01 ExpMax= 1.04D+04 ExpMxC= 1.57D+03 IAcc=3 IRadAn=         5 AccDes= 0.00D+00
 Harris functional with IExCor= 1009 and IRadAn=       5 diagonalized for initial guess.
 HarFok:  IExCor= 1009 AccDes= 0.00D+00 IRadAn=         5 IDoV= 1 UseB2=F ITyADJ=14
 ICtDFT=  3500011 ScaDFX=  1.000000  1.000000  1.000000  1.000000
 FoFCou: FMM=F IPFlag=           0 FMFlag=      100000 FMFlg1=           0
         NFxFlg=           0 DoJE=T BraDBF=F KetDBF=T FulRan=T
         wScrn=  0.000000 ICntrl=       500 IOpCl=  0 I1Cent=   200000004 NGrid=           0
         NMat0=    1 NMatS0=      1 NMatT0=    0 NMatD0=    1 NMtDS0=    0 NMtDT0=    0
 Petite list used in FoFCou.
 Requested convergence on RMS density matrix=1.00D-08 within 128 cycles.
 Requested convergence on MAX density matrix=1.00D-06.
 Requested convergence on             energy=1.00D-06.
 No special actions if energy rises.
 Integral accuracy reduced to 1.0D-05 until final iterations.
 Initial convergence to 1.0D-05 achieved.  Increase integral accuracy.
 SCF Done:  E(RPBE1PBE) =  -2343.64397511     A.U. after   16 cycles
            NFock= 16  Conv=0.28D-08     -V/T= 2.0050

 **********************************************************************

            Population analysis using the SCF Density.

 **********************************************************************

 Orbital symmetries:
       Occupied  (A) (A) (A) (A) (A) (A) (A) (A) (A) (A) (A) (A)
                 (A) (A) (A) (A) (A) (A) (A) (A) (A) (A) (A) (A)
                 (A) (A) (A) (A) (A) (A) (A) (A) (A) (A) (A) (A)
                 (A) (A) (A) (A) (A) (A) (A) (A) (A) (A) (A) (A)
                 (A) (A) (A) (A) (A) (A) (A) (A) (A) (A) (A) (A)
                 (A) (A) (A) (A) (A) (A) (A) (A) (A) (A) (A) (A)
                 (A) (A) (A) (A) (A) (A) (A) (A) (A) (A) (A) (A)
                 (A) (A) (A) (A) (A) (A) (A) (A) (A) (A) (A) (A)
                 (A) (A) (A) (A) (A) (A) (A) (A) (A) (A) (A) (A)
       Virtual   (A) (A) (A) (A) (A) (A) (A) (A) (A) (A) (A) (A)
                 (A) (A) (A) (A) (A) (A) (A) (A) (A) (A) (A) (A)
                 (A) (A) (A) (A) (A) (A) (A) (A) (A) (A) (A) (A)
                 (A) (A) (A) (A) (A) (A) (A) (A) (A) (A) (A) (A)
                 (A) (A) (A) (A) (A) (A) (A) (A) (A) (A) (A) (A)
                 (A) (A) (A) (A) (A) (A) (A) (A) (A) (A) (A) (A)
                 (A) (A) (A) (A) (A) (A) (A) (A) (A) (A) (A) (A)
                 (A) (A) (A) (A) (A) (A) (A) (A) (A) (A) (A) (A)
                 (A) (A) (A) (A) (A) (A) (A) (A) (A) (A) (A) (A)
                 (A) (A) (A) (A) (A) (A) (A) (A) (A) (A) (A) (A)
                 (A) (A) (A) (A) (A) (A) (A) (A) (A) (A) (A) (A)
                 (A) (A) (A) (A) (A) (A) (A) (A) (A) (A) (A) (A)
                 (A) (A) (A) (A) (A) (A) (A) (A) (A) (A) (A) (A)
                 (A) (A) (A) (A) (A) (A) (A) (A) (A) (A) (A) (A)
                 (A) (A) (A) (A) (A) (A) (A) (A) (A) (A) (A) (A)
                 (A) (A) (A) (A) (A) (A) (A) (A) (A) (A) (A) (A)
                 (A) (A) (A) (A) (A) (A) (A) (A) (A) (A) (A) (A)
                 (A) (A) (A) (A) (A) (A) (A) (A) (A) (A) (A) (A)
                 (A) (A) (A) (A) (A) (A) (A) (A) (A) (A) (A) (A)
                 (A) (A) (A) (A) (A) (A) (A) (A) (A) (A) (A) (A)
                 (A) (A) (A) (A) (A) (A) (A) (A) (A) (A) (A) (A)
                 (A) (A) (A) (A) (A) (A) (A) (A) (A) (A) (A) (A)
                 (A) (A) (A) (A) (A) (A) (A) (A) (A) (A) (A) (A)
                 (A) (A) (A) (A) (A) (A) (A) (A) (A) (A) (A) (A)
                 (A) (A) (A) (A) (A) (A) (A) (A) (A) (A) (A) (A)
                 (A) (A) (A) (A) (A) (A) (A) (A) (A) (A) (A) (A)
                 (A) (A) (A) (A) (A) (A) (A) (A) (A) (A) (A) (A)
                 (A) (A) (A) (A) (A) (A) (A) (A) (A) (A) (A) (A)
                 (A) (A) (A) (A) (A) (A) (A) (A) (A) (A) (A) (A)
                 (A) (A) (A) (A) (A) (A) (A) (A) (A) (A) (A) (A)
                 (A) (A)
 The electronic state is 1-A.
 Alpha  occ. eigenvalues -- -101.70111-101.67620 -89.19893 -19.19515 -14.44618
 Alpha  occ. eigenvalues --  -14.38886 -14.36211 -14.35781 -10.35724 -10.32343
 Alpha  occ. eigenvalues --  -10.29939 -10.29622 -10.28582 -10.28389 -10.28260
 Alpha  occ. eigenvalues --  -10.27487 -10.27416 -10.27234 -10.27210 -10.26993
 Alpha  occ. eigenvalues --  -10.26185 -10.25870 -10.25591 -10.25538 -10.25330
 Alpha  occ. eigenvalues --  -10.25032 -10.24939  -9.55283  -9.52842  -8.17296
 Alpha  occ. eigenvalues --   -7.29417  -7.28439  -7.28393  -7.26979  -7.26000
 Alpha  occ. eigenvalues --   -7.25942  -6.11429  -6.11337  -6.11299  -1.08239
 Alpha  occ. eigenvalues --   -1.02110  -0.98295  -0.97923  -0.94392  -0.91953
 Alpha  occ. eigenvalues --   -0.88851  -0.86840  -0.86159  -0.83106  -0.82301
 Alpha  occ. eigenvalues --   -0.81739  -0.78658  -0.77404  -0.77132  -0.75686
 Alpha  occ. eigenvalues --   -0.70838  -0.67917  -0.66154  -0.65868  -0.65172
 Alpha  occ. eigenvalues --   -0.63199  -0.63044  -0.60721  -0.58363  -0.56308
 Alpha  occ. eigenvalues --   -0.55616  -0.53626  -0.52925  -0.52136  -0.51399
 Alpha  occ. eigenvalues --   -0.51066  -0.49433  -0.48911  -0.48845  -0.48124
 Alpha  occ. eigenvalues --   -0.47295  -0.47051  -0.46163  -0.45629  -0.45536
 Alpha  occ. eigenvalues --   -0.45247  -0.44630  -0.43941  -0.43114  -0.42462
 Alpha  occ. eigenvalues --   -0.42053  -0.41531  -0.40768  -0.39979  -0.39629
 Alpha  occ. eigenvalues --   -0.37946  -0.37811  -0.36297  -0.36200  -0.34171
 Alpha  occ. eigenvalues --   -0.32683  -0.31501  -0.31349  -0.30594  -0.29920
 Alpha  occ. eigenvalues --   -0.28842  -0.28518  -0.28193  -0.27190  -0.26994
 Alpha  occ. eigenvalues --   -0.26588  -0.25638  -0.23775
 Alpha virt. eigenvalues --   -0.06380  -0.04842  -0.03815  -0.02573  -0.02017
 Alpha virt. eigenvalues --    0.00151   0.02918   0.03536   0.05188   0.05488
 Alpha virt. eigenvalues --    0.06381   0.07132   0.07922   0.08118   0.08654
 Alpha virt. eigenvalues --    0.09314   0.09978   0.10488   0.11378   0.11683
 Alpha virt. eigenvalues --    0.12580   0.13201   0.13636   0.14062   0.14329
 Alpha virt. eigenvalues --    0.15198   0.15432   0.16058   0.17029   0.17591
 Alpha virt. eigenvalues --    0.18918   0.20392   0.21719   0.22571   0.24012
 Alpha virt. eigenvalues --    0.25218   0.26379   0.26631   0.27403   0.27989
 Alpha virt. eigenvalues --    0.28877   0.29054   0.29440   0.30038   0.30778
 Alpha virt. eigenvalues --    0.32002   0.32221   0.32727   0.34203   0.35119
 Alpha virt. eigenvalues --    0.35834   0.37176   0.38093   0.38716   0.38960
 Alpha virt. eigenvalues --    0.39660   0.40081   0.41095   0.41961   0.43105
 Alpha virt. eigenvalues --    0.43204   0.43650   0.44077   0.44871   0.45540
 Alpha virt. eigenvalues --    0.46006   0.46347   0.47474   0.47692   0.48120
 Alpha virt. eigenvalues --    0.49085   0.49614   0.50150   0.50801   0.51536
 Alpha virt. eigenvalues --    0.51637   0.52661   0.53244   0.54328   0.55882
 Alpha virt. eigenvalues --    0.56291   0.57023   0.57354   0.58327   0.58528
 Alpha virt. eigenvalues --    0.59131   0.59680   0.60071   0.60242   0.61277
 Alpha virt. eigenvalues --    0.61627   0.62298   0.63234   0.63800   0.64183
 Alpha virt. eigenvalues --    0.64395   0.64705   0.64987   0.66041   0.66212
 Alpha virt. eigenvalues --    0.66507   0.67181   0.67670   0.68108   0.68508
 Alpha virt. eigenvalues --    0.69036   0.69145   0.69440   0.69581   0.70206
 Alpha virt. eigenvalues --    0.70391   0.70812   0.71759   0.72031   0.72821
 Alpha virt. eigenvalues --    0.72883   0.73195   0.73324   0.74165   0.74576
 Alpha virt. eigenvalues --    0.74889   0.75855   0.76182   0.77411   0.77677
 Alpha virt. eigenvalues --    0.78332   0.78835   0.79406   0.80075   0.80438
 Alpha virt. eigenvalues --    0.81104   0.81395   0.82343   0.82884   0.83750
 Alpha virt. eigenvalues --    0.84191   0.85262   0.85587   0.86109   0.86798
 Alpha virt. eigenvalues --    0.87201   0.87716   0.88645   0.88913   0.89336
 Alpha virt. eigenvalues --    0.90132   0.90572   0.91910   0.92807   0.93602
 Alpha virt. eigenvalues --    0.94130   0.94825   0.95810   0.96428   0.97561
 Alpha virt. eigenvalues --    0.98490   0.99745   1.00663   1.02862   1.03886
 Alpha virt. eigenvalues --    1.04671   1.05529   1.05961   1.07552   1.08449
 Alpha virt. eigenvalues --    1.08585   1.09653   1.11507   1.12250   1.13409
 Alpha virt. eigenvalues --    1.14612   1.15184   1.15678   1.17440   1.19688
 Alpha virt. eigenvalues --    1.19830   1.20583   1.21409   1.21579   1.21946
 Alpha virt. eigenvalues --    1.23293   1.23984   1.24423   1.24738   1.25635
 Alpha virt. eigenvalues --    1.25846   1.26363   1.27617   1.28442   1.29244
 Alpha virt. eigenvalues --    1.30616   1.31977   1.33390   1.33917   1.35202
 Alpha virt. eigenvalues --    1.36494   1.37737   1.38127   1.39744   1.41200
 Alpha virt. eigenvalues --    1.42815   1.43493   1.44360   1.44788   1.46655
 Alpha virt. eigenvalues --    1.47399   1.48925   1.49759   1.50525   1.52242
 Alpha virt. eigenvalues --    1.53744   1.54599   1.54961   1.57330   1.61874
 Alpha virt. eigenvalues --    1.63327   1.63854   1.66422   1.68030   1.68690
 Alpha virt. eigenvalues --    1.69441   1.71455   1.72083   1.72259   1.73091
 Alpha virt. eigenvalues --    1.73638   1.73927   1.74414   1.75058   1.76132
 Alpha virt. eigenvalues --    1.76394   1.76629   1.77175   1.77715   1.78356
 Alpha virt. eigenvalues --    1.78959   1.79656   1.80323   1.81748   1.82064
 Alpha virt. eigenvalues --    1.82704   1.83450   1.83985   1.84675   1.86054
 Alpha virt. eigenvalues --    1.86671   1.87670   1.87970   1.89360   1.90782
 Alpha virt. eigenvalues --    1.91606   1.92790   1.93567   1.95304   1.96276
 Alpha virt. eigenvalues --    1.96836   1.97681   1.98192   1.99489   1.99905
 Alpha virt. eigenvalues --    2.00416   2.01485   2.02699   2.03753   2.06078
 Alpha virt. eigenvalues --    2.08197   2.08870   2.10255   2.11189   2.11625
 Alpha virt. eigenvalues --    2.13366   2.13857   2.14687   2.15032   2.15675
 Alpha virt. eigenvalues --    2.17467   2.17634   2.18682   2.20526   2.20987
 Alpha virt. eigenvalues --    2.22643   2.23930   2.25100   2.26922   2.27958
 Alpha virt. eigenvalues --    2.28835   2.29642   2.30432   2.30766   2.31445
 Alpha virt. eigenvalues --    2.32086   2.32912   2.34526   2.35120   2.36124
 Alpha virt. eigenvalues --    2.38314   2.38747   2.39727   2.41840   2.42567
 Alpha virt. eigenvalues --    2.42979   2.44889   2.45946   2.47242   2.48973
 Alpha virt. eigenvalues --    2.51870   2.52322   2.53679   2.53961   2.56057
 Alpha virt. eigenvalues --    2.56795   2.57949   2.58990   2.59575   2.61074
 Alpha virt. eigenvalues --    2.62038   2.62666   2.63914   2.66299   2.66730
 Alpha virt. eigenvalues --    2.67868   2.68896   2.69660   2.71615   2.73002
 Alpha virt. eigenvalues --    2.74172   2.77212   2.77503   2.80753   2.83159
 Alpha virt. eigenvalues --    2.83995   2.84486   2.85222   2.85644   2.87126
 Alpha virt. eigenvalues --    2.87557   2.89441   2.90838   2.92640   2.93771
 Alpha virt. eigenvalues --    2.94937   2.96230   2.96311   2.98442   3.03149
 Alpha virt. eigenvalues --    3.07201   3.08087   3.09446   3.12869   3.15797
 Alpha virt. eigenvalues --    3.16649   3.20188   3.21989   3.26955   3.30782
 Alpha virt. eigenvalues --    3.39949   3.42028   3.49214   3.55098   3.61253
 Alpha virt. eigenvalues --    3.68003   3.71792
          Condensed to atoms (all electrons):
               1          2          3          4          5          6
     1  O    7.675234   0.766835  -0.111572   0.002317  -0.000058  -0.000000
     2  C    0.766835   4.702702   0.329094  -0.023826   0.005951  -0.000436
     3  N   -0.111572   0.329094   6.587496   0.328343  -0.089893   0.007917
     4  C    0.002317  -0.023826   0.328343   5.217373   0.218120   0.130195
     5  C   -0.000058   0.005951  -0.089893   0.218120   5.217512   0.273611
     6  C   -0.000000  -0.000436   0.007917   0.130195   0.273611   4.981443
     7  C    0.000000   0.000092   0.000008  -0.186608   0.109529   0.313149
     8  Cl   0.000000   0.000000   0.000001   0.001115   0.003334  -0.062164
     9  C    0.000001   0.000326   0.007946   0.122220  -0.151649   0.080915
    10  C    0.000000  -0.000016  -0.000143   0.014725  -0.001600   0.013700
    11  C   -0.000000  -0.000025   0.000003  -0.000048   0.000094  -0.000343
    12  C    0.000000  -0.000000  -0.000000  -0.000005   0.000000  -0.000003
    13  C   -0.000000  -0.000000   0.000000   0.000001   0.000000  -0.000003
    14  C   -0.000000   0.000000  -0.000000   0.000005  -0.000002   0.000027
    15  N    0.000000   0.000000   0.000000  -0.000143  -0.000010  -0.000197
    16  C   -0.000104  -0.022824  -0.075500   0.226339   0.052828  -0.118733
    17  C   -0.103802   0.123709  -0.151685  -0.001689   0.000229   0.000105
    18  C   -0.003750  -0.072097  -0.006116  -0.005546  -0.000652   0.000159
    19  Cl  -0.000471   0.015370  -0.007222  -0.003959   0.005386  -0.001556
    20  C    0.000010   0.007572  -0.000064  -0.000234  -0.000087   0.000010
    21  C    0.003161  -0.036052   0.000906   0.001801  -0.000002   0.000002
    22  C    0.000429   0.010237  -0.000213  -0.000113  -0.000001  -0.000000
    23  C   -0.000062  -0.000373  -0.000023   0.000109  -0.000002   0.000001
    24  S    0.000000   0.000013  -0.000000  -0.000000   0.000000  -0.000000
    25  N   -0.000000   0.000000  -0.000000   0.000000  -0.000000   0.000000
    26  C   -0.000000  -0.000001  -0.000000  -0.000000  -0.000000   0.000000
    27  N   -0.000000  -0.000000   0.000000  -0.000000   0.000000   0.000000
    28  H    0.009271  -0.009207   0.323459  -0.010752  -0.020403   0.000610
    29  H   -0.000071  -0.000548  -0.010454  -0.084749   0.448884  -0.055699
    30  H   -0.000000   0.000001  -0.000126   0.016025  -0.063169   0.444664
    31  H    0.000000  -0.000018  -0.000006  -0.000218   0.000021   0.000036
    32  H    0.000000   0.000000   0.000000  -0.000001  -0.000000   0.000000
    33  H   -0.000000  -0.000000  -0.000000   0.000000   0.000000   0.000000
    34  H   -0.000000  -0.000000   0.000000  -0.000000  -0.000000  -0.000000
    35  H   -0.000061  -0.003468  -0.007103  -0.080355   0.015723  -0.002941
    36  H    0.000003  -0.000075   0.000007   0.000044  -0.000003   0.000002
    37  H    0.004593  -0.010784   0.000675   0.000044   0.000001   0.000000
    38  H   -0.000005  -0.000246   0.000003  -0.000000   0.000000  -0.000000
    39  H    0.000000  -0.000000  -0.000000  -0.000000   0.000000  -0.000000
    40  H    0.000000   0.000000  -0.000000   0.000000   0.000000  -0.000000
    41  H    0.000000   0.000000   0.000000  -0.000000   0.000000  -0.000000
    42  H   -0.000000   0.000000   0.000000  -0.000000   0.000000  -0.000000
    43  H    0.000000  -0.000000  -0.000000  -0.000000  -0.000000   0.000000
               7          8          9         10         11         12
     1  O    0.000000   0.000000   0.000001   0.000000  -0.000000   0.000000
     2  C    0.000092   0.000000   0.000326  -0.000016  -0.000025  -0.000000
     3  N    0.000008   0.000001   0.007946  -0.000143   0.000003  -0.000000
     4  C   -0.186608   0.001115   0.122220   0.014725  -0.000048  -0.000005
     5  C    0.109529   0.003334  -0.151649  -0.001600   0.000094   0.000000
     6  C    0.313149  -0.062164   0.080915   0.013700  -0.000343  -0.000003
     7  C    5.233962   0.267190   0.266322  -0.088802   0.006038  -0.000327
     8  Cl   0.267190  16.926526  -0.064395   0.003155  -0.002229   0.000224
     9  C    0.266322  -0.064395   5.303176   0.237645  -0.099329   0.009723
    10  C   -0.088802   0.003155   0.237645   5.214497   0.390035  -0.008048
    11  C    0.006038  -0.002229  -0.099329   0.390035   5.045125   0.411712
    12  C   -0.000327   0.000224   0.009723  -0.008048   0.411712   4.938760
    13  C    0.000128  -0.000465   0.002490  -0.080413   0.021810   0.358835
    14  C    0.000492   0.002619   0.007307  -0.045345  -0.088019   0.001889
    15  N   -0.004307  -0.009814  -0.086984   0.528235  -0.040256  -0.050955
    16  C    0.071497   0.002541   0.375695  -0.077710  -0.018639   0.001289
    17  C   -0.000032   0.000000  -0.001499   0.000098  -0.000546   0.000012
    18  C   -0.000154   0.000000   0.002448  -0.000005  -0.000441   0.000095
    19  Cl   0.000733  -0.000000  -0.000545  -0.000509  -0.000390   0.000004
    20  C   -0.000048  -0.000000   0.000111   0.000210   0.001082  -0.000002
    21  C   -0.000014   0.000000  -0.000110   0.000066   0.000186  -0.000010
    22  C    0.000001   0.000000  -0.000083  -0.000056  -0.000028  -0.000002
    23  C   -0.000001  -0.000000   0.000024  -0.000208  -0.000628   0.000407
    24  S    0.000000   0.000000   0.000004   0.000007   0.000034  -0.000638
    25  N   -0.000000  -0.000000  -0.000003   0.000111  -0.000864  -0.005686
    26  C    0.000000  -0.000000   0.000003  -0.000105  -0.000971  -0.001393
    27  N   -0.000000  -0.000000  -0.000000   0.000000  -0.000004  -0.000012
    28  H   -0.000006  -0.000000  -0.000250   0.000011   0.000000   0.000000
    29  H    0.016296  -0.000164  -0.002172   0.000053  -0.000002   0.000000
    30  H   -0.074548   0.002927   0.018579  -0.000259   0.000013  -0.000000
    31  H   -0.000047   0.000012  -0.015092  -0.043776   0.422801  -0.058554
    32  H   -0.000004   0.000001  -0.000451   0.015198  -0.060788   0.422354
    33  H   -0.000001  -0.000001   0.000093   0.000665   0.011828  -0.060400
    34  H   -0.000029   0.000190  -0.000502   0.006928   0.000987   0.006777
    35  H    0.019951  -0.000108  -0.060811  -0.022649   0.006602  -0.000167
    36  H   -0.000010  -0.000000  -0.000036   0.000167  -0.002116  -0.000059
    37  H   -0.000001  -0.000000   0.000005   0.000004  -0.000001  -0.000000
    38  H    0.000000   0.000000   0.000001  -0.000005   0.000025   0.000004
    39  H    0.000000   0.000000   0.000000  -0.000002  -0.000001   0.000117
    40  H    0.000000  -0.000000  -0.000019   0.000016   0.002277   0.005497
    41  H   -0.000000  -0.000000  -0.000001   0.000006   0.000009   0.000013
    42  H    0.000000  -0.000000  -0.000000   0.000000  -0.000028  -0.000307
    43  H    0.000000   0.000000   0.000000  -0.000000   0.000001   0.000002
              13         14         15         16         17         18
     1  O   -0.000000  -0.000000   0.000000  -0.000104  -0.103802  -0.003750
     2  C   -0.000000   0.000000   0.000000  -0.022824   0.123709  -0.072097
     3  N    0.000000  -0.000000   0.000000  -0.075500  -0.151685  -0.006116
     4  C    0.000001   0.000005  -0.000143   0.226339  -0.001689  -0.005546
     5  C    0.000000  -0.000002  -0.000010   0.052828   0.000229  -0.000652
     6  C   -0.000003   0.000027  -0.000197  -0.118733   0.000105   0.000159
     7  C    0.000128   0.000492  -0.004307   0.071497  -0.000032  -0.000154
     8  Cl  -0.000465   0.002619  -0.009814   0.002541   0.000000   0.000000
     9  C    0.002490   0.007307  -0.086984   0.375695  -0.001499   0.002448
    10  C   -0.080413  -0.045345   0.528235  -0.077710   0.000098  -0.000005
    11  C    0.021810  -0.088019  -0.040256  -0.018639  -0.000546  -0.000441
    12  C    0.358835   0.001889  -0.050955   0.001289   0.000012   0.000095
    13  C    5.075755   0.401941  -0.031669  -0.000137  -0.000001  -0.000002
    14  C    0.401941   4.743740   0.522992  -0.000133   0.000000   0.000000
    15  N   -0.031669   0.522992   6.339365  -0.001222  -0.000001  -0.000002
    16  C   -0.000137  -0.000133  -0.001222   5.150570  -0.001624  -0.005755
    17  C   -0.000001   0.000000  -0.000001  -0.001624   6.002835   0.190246
    18  C   -0.000002   0.000000  -0.000002  -0.005755   0.190246   5.330515
    19  Cl   0.000000  -0.000000  -0.000000   0.000773  -0.093363   0.301571
    20  C   -0.000010  -0.000001   0.000001  -0.002699   0.093299   0.186242
    21  C    0.000000   0.000000   0.000000  -0.004548   0.217755   0.110209
    22  C   -0.000001  -0.000000  -0.000000  -0.000120   0.127339  -0.184482
    23  C    0.000009  -0.000001  -0.000002   0.000619  -0.231243   0.162186
    24  S    0.000016  -0.000001  -0.000000  -0.000011   0.000055   0.007784
    25  N    0.000197  -0.000002   0.000000   0.000000  -0.000039   0.003027
    26  C   -0.000427   0.000006   0.000001  -0.000017  -0.000187   0.000266
    27  N    0.000000  -0.000000   0.000000   0.000000  -0.000059  -0.000031
    28  H    0.000000   0.000000  -0.000000   0.008860   0.017465   0.000059
    29  H   -0.000000   0.000000  -0.000000   0.017540  -0.000172  -0.000019
    30  H    0.000000  -0.000001   0.000019  -0.001973   0.000001  -0.000001
    31  H    0.013576  -0.000377   0.005658   0.000970  -0.001071  -0.001098
    32  H   -0.060735   0.009494  -0.000188  -0.000026   0.000003   0.000043
    33  H    0.422504  -0.044545   0.005905   0.000002   0.000000  -0.000000
    34  H   -0.076171   0.427298  -0.042464   0.000031   0.000000  -0.000000
    35  H   -0.000022  -0.000072   0.000091   0.458396   0.003942  -0.004578
    36  H    0.000002  -0.000000   0.000000  -0.000030   0.017749  -0.067145
    37  H    0.000000   0.000000   0.000000   0.000026  -0.078326   0.016575
    38  H   -0.000001   0.000000  -0.000000  -0.000019   0.016356  -0.001810
    39  H   -0.000007   0.000000  -0.000000   0.000000   0.000010  -0.000066
    40  H    0.000501  -0.000096  -0.000004  -0.000000   0.000064   0.000053
    41  H    0.000020  -0.000000  -0.000000   0.000001   0.000014  -0.000043
    42  H    0.000088  -0.000000  -0.000000   0.000000   0.000003  -0.000013
    43  H   -0.000000   0.000000  -0.000000  -0.000000  -0.000002  -0.000008
              19         20         21         22         23         24
     1  O   -0.000471   0.000010   0.003161   0.000429  -0.000062   0.000000
     2  C    0.015370   0.007572  -0.036052   0.010237  -0.000373   0.000013
     3  N   -0.007222  -0.000064   0.000906  -0.000213  -0.000023  -0.000000
     4  C   -0.003959  -0.000234   0.001801  -0.000113   0.000109  -0.000000
     5  C    0.005386  -0.000087  -0.000002  -0.000001  -0.000002   0.000000
     6  C   -0.001556   0.000010   0.000002  -0.000000   0.000001  -0.000000
     7  C    0.000733  -0.000048  -0.000014   0.000001  -0.000001   0.000000
     8  Cl  -0.000000  -0.000000   0.000000   0.000000  -0.000000   0.000000
     9  C   -0.000545   0.000111  -0.000110  -0.000083   0.000024   0.000004
    10  C   -0.000509   0.000210   0.000066  -0.000056  -0.000208   0.000007
    11  C   -0.000390   0.001082   0.000186  -0.000028  -0.000628   0.000034
    12  C    0.000004  -0.000002  -0.000010  -0.000002   0.000407  -0.000638
    13  C    0.000000  -0.000010   0.000000  -0.000001   0.000009   0.000016
    14  C   -0.000000  -0.000001   0.000000  -0.000000  -0.000001  -0.000001
    15  N   -0.000000   0.000001   0.000000  -0.000000  -0.000002  -0.000000
    16  C    0.000773  -0.002699  -0.004548  -0.000120   0.000619  -0.000011
    17  C   -0.093363   0.093299   0.217755   0.127339  -0.231243   0.000055
    18  C    0.301571   0.186242   0.110209  -0.184482   0.162186   0.007784
    19  Cl  16.892075  -0.076752   0.003579   0.000292   0.005696  -0.000027
    20  C   -0.076752   5.183778  -0.128498   0.087553   0.233658  -0.032410
    21  C    0.003579  -0.128498   5.004669   0.258132   0.147446   0.000783
    22  C    0.000292   0.087553   0.258132   5.225040   0.094628  -0.056959
    23  C    0.005696   0.233658   0.147446   0.094628   5.968719   0.079520
    24  S   -0.000027  -0.032410   0.000783  -0.056959   0.079520  14.665986
    25  N   -0.000007  -0.005146   0.000006   0.007594  -0.102767   0.359648
    26  C    0.000001   0.003418  -0.000587  -0.005092  -0.124504   0.305075
    27  N    0.000000  -0.002638   0.000812   0.009517  -0.047707   0.345050
    28  H    0.000185   0.000029  -0.000338   0.000015   0.000004   0.000000
    29  H    0.000117   0.000002   0.000003   0.000000  -0.000000   0.000000
    30  H   -0.000009   0.000000  -0.000000   0.000000  -0.000000  -0.000000
    31  H    0.004102  -0.007675   0.000268  -0.000350   0.000429  -0.000600
    32  H   -0.000002   0.000000   0.000001  -0.000085   0.000026   0.000686
    33  H   -0.000000   0.000001  -0.000000   0.000000  -0.000000   0.000001
    34  H   -0.000000   0.000000  -0.000000   0.000000  -0.000000   0.000000
    35  H   -0.000112  -0.004564  -0.003123   0.001771  -0.000530   0.000038
    36  H    0.002392   0.427245  -0.002517   0.014429  -0.049733  -0.013445
    37  H   -0.000094  -0.002226   0.470265  -0.074220   0.016574  -0.000150
    38  H    0.000010   0.013251  -0.055682   0.458263  -0.086412  -0.007957
    39  H   -0.000001   0.000612  -0.000011  -0.000348   0.010013  -0.015338
    40  H   -0.000000  -0.000059  -0.000100  -0.002294   0.008456  -0.019567
    41  H    0.000000  -0.000619   0.000633   0.004613  -0.001714  -0.003383
    42  H   -0.000000  -0.000010  -0.000006   0.000277   0.006926  -0.007565
    43  H    0.000000   0.000840  -0.000034  -0.001353  -0.004625  -0.010185
              25         26         27         28         29         30
     1  O   -0.000000  -0.000000  -0.000000   0.009271  -0.000071  -0.000000
     2  C    0.000000  -0.000001  -0.000000  -0.009207  -0.000548   0.000001
     3  N   -0.000000  -0.000000   0.000000   0.323459  -0.010454  -0.000126
     4  C    0.000000  -0.000000  -0.000000  -0.010752  -0.084749   0.016025
     5  C   -0.000000  -0.000000   0.000000  -0.020403   0.448884  -0.063169
     6  C    0.000000   0.000000   0.000000   0.000610  -0.055699   0.444664
     7  C   -0.000000   0.000000  -0.000000  -0.000006   0.016296  -0.074548
     8  Cl  -0.000000  -0.000000  -0.000000  -0.000000  -0.000164   0.002927
     9  C   -0.000003   0.000003  -0.000000  -0.000250  -0.002172   0.018579
    10  C    0.000111  -0.000105   0.000000   0.000011   0.000053  -0.000259
    11  C   -0.000864  -0.000971  -0.000004   0.000000  -0.000002   0.000013
    12  C   -0.005686  -0.001393  -0.000012   0.000000   0.000000  -0.000000
    13  C    0.000197  -0.000427   0.000000   0.000000  -0.000000   0.000000
    14  C   -0.000002   0.000006  -0.000000   0.000000   0.000000  -0.000001
    15  N    0.000000   0.000001   0.000000  -0.000000  -0.000000   0.000019
    16  C    0.000000  -0.000017   0.000000   0.008860   0.017540  -0.001973
    17  C   -0.000039  -0.000187  -0.000059   0.017465  -0.000172   0.000001
    18  C    0.003027   0.000266  -0.000031   0.000059  -0.000019  -0.000001
    19  Cl  -0.000007   0.000001   0.000000   0.000185   0.000117  -0.000009
    20  C   -0.005146   0.003418  -0.002638   0.000029   0.000002   0.000000
    21  C    0.000006  -0.000587   0.000812  -0.000338   0.000003  -0.000000
    22  C    0.007594  -0.005092   0.009517   0.000015   0.000000   0.000000
    23  C   -0.102767  -0.124504  -0.047707   0.000004  -0.000000  -0.000000
    24  S    0.359648   0.305075   0.345050   0.000000   0.000000  -0.000000
    25  N    6.870964  -0.054250  -0.038740   0.000000  -0.000000  -0.000000
    26  C   -0.054250   4.954052  -0.100058   0.000000   0.000000  -0.000000
    27  N   -0.038740  -0.100058   6.902696  -0.000000  -0.000000   0.000000
    28  H    0.000000   0.000000  -0.000000   0.527810   0.005741  -0.000038
    29  H   -0.000000   0.000000  -0.000000   0.005741   0.675150  -0.013557
    30  H   -0.000000  -0.000000   0.000000  -0.000038  -0.013557   0.656800
    31  H    0.003761   0.000195   0.000020  -0.000001  -0.000002  -0.000001
    32  H    0.019994  -0.001459   0.000094  -0.000000   0.000000   0.000000
    33  H   -0.000006  -0.000008  -0.000000   0.000000  -0.000000  -0.000000
    34  H   -0.000000   0.000000  -0.000000  -0.000000   0.000000  -0.000000
    35  H   -0.000008   0.000023   0.000000  -0.000578  -0.000234   0.000022
    36  H    0.036353   0.001373   0.000145  -0.000001   0.000000   0.000000
    37  H    0.000001   0.000035  -0.000000  -0.000096   0.000000   0.000000
    38  H    0.000446   0.001335   0.008135  -0.000000   0.000000   0.000000
    39  H    0.333187  -0.004154  -0.000194   0.000000   0.000000  -0.000000
    40  H    0.001304   0.371847   0.005469  -0.000000  -0.000000   0.000000
    41  H    0.003793   0.352312   0.007311  -0.000000   0.000000   0.000000
    42  H    0.001369   0.366799   0.003968  -0.000000  -0.000000   0.000000
    43  H   -0.002143   0.009236   0.328548  -0.000000   0.000000   0.000000
              31         32         33         34         35         36
     1  O    0.000000   0.000000  -0.000000  -0.000000  -0.000061   0.000003
     2  C   -0.000018   0.000000  -0.000000  -0.000000  -0.003468  -0.000075
     3  N   -0.000006   0.000000  -0.000000   0.000000  -0.007103   0.000007
     4  C   -0.000218  -0.000001   0.000000  -0.000000  -0.080355   0.000044
     5  C    0.000021  -0.000000   0.000000  -0.000000   0.015723  -0.000003
     6  C    0.000036   0.000000   0.000000  -0.000000  -0.002941   0.000002
     7  C   -0.000047  -0.000004  -0.000001  -0.000029   0.019951  -0.000010
     8  Cl   0.000012   0.000001  -0.000001   0.000190  -0.000108  -0.000000
     9  C   -0.015092  -0.000451   0.000093  -0.000502  -0.060811  -0.000036
    10  C   -0.043776   0.015198   0.000665   0.006928  -0.022649   0.000167
    11  C    0.422801  -0.060788   0.011828   0.000987   0.006602  -0.002116
    12  C   -0.058554   0.422354  -0.060400   0.006777  -0.000167  -0.000059
    13  C    0.013576  -0.060735   0.422504  -0.076171  -0.000022   0.000002
    14  C   -0.000377   0.009494  -0.044545   0.427298  -0.000072  -0.000000
    15  N    0.005658  -0.000188   0.005905  -0.042464   0.000091   0.000000
    16  C    0.000970  -0.000026   0.000002   0.000031   0.458396  -0.000030
    17  C   -0.001071   0.000003   0.000000   0.000000   0.003942   0.017749
    18  C   -0.001098   0.000043  -0.000000  -0.000000  -0.004578  -0.067145
    19  Cl   0.004102  -0.000002  -0.000000  -0.000000  -0.000112   0.002392
    20  C   -0.007675   0.000000   0.000001   0.000000  -0.004564   0.427245
    21  C    0.000268   0.000001  -0.000000  -0.000000  -0.003123  -0.002517
    22  C   -0.000350  -0.000085   0.000000   0.000000   0.001771   0.014429
    23  C    0.000429   0.000026  -0.000000  -0.000000  -0.000530  -0.049733
    24  S   -0.000600   0.000686   0.000001   0.000000   0.000038  -0.013445
    25  N    0.003761   0.019994  -0.000006  -0.000000  -0.000008   0.036353
    26  C    0.000195  -0.001459  -0.000008   0.000000   0.000023   0.001373
    27  N    0.000020   0.000094  -0.000000  -0.000000   0.000000   0.000145
    28  H   -0.000001  -0.000000   0.000000  -0.000000  -0.000578  -0.000001
    29  H   -0.000002   0.000000  -0.000000   0.000000  -0.000234   0.000000
    30  H   -0.000001   0.000000  -0.000000  -0.000000   0.000022   0.000000
    31  H    0.665753  -0.010969  -0.000172   0.000094  -0.000096   0.004358
    32  H   -0.010969   0.650209  -0.011230  -0.000285   0.000009   0.000107
    33  H   -0.000172  -0.011230   0.657013  -0.005995  -0.000002  -0.000000
    34  H    0.000094  -0.000285  -0.005995   0.653451  -0.000001  -0.000000
    35  H   -0.000096   0.000009  -0.000002  -0.000001   0.670949  -0.000106
    36  H    0.004358   0.000107  -0.000000  -0.000000  -0.000106   0.585574
    37  H    0.000004   0.000000  -0.000000   0.000000   0.000020   0.000020
    38  H   -0.000060  -0.000011   0.000000   0.000000   0.000102  -0.000227
    39  H   -0.000102  -0.000281   0.000000  -0.000000   0.000000  -0.001134
    40  H    0.000185   0.000688   0.000039  -0.000001   0.000100  -0.000135
    41  H    0.000004   0.000282  -0.000001  -0.000000  -0.000002  -0.000069
    42  H   -0.000055   0.000918   0.000012  -0.000000   0.000001  -0.000066
    43  H   -0.000001  -0.000010   0.000000   0.000000   0.000000   0.000112
              37         38         39         40         41         42
     1  O    0.004593  -0.000005   0.000000   0.000000   0.000000  -0.000000
     2  C   -0.010784  -0.000246  -0.000000   0.000000   0.000000   0.000000
     3  N    0.000675   0.000003  -0.000000  -0.000000   0.000000   0.000000
     4  C    0.000044  -0.000000  -0.000000   0.000000  -0.000000  -0.000000
     5  C    0.000001   0.000000   0.000000   0.000000   0.000000   0.000000
     6  C    0.000000  -0.000000  -0.000000  -0.000000  -0.000000  -0.000000
     7  C   -0.000001   0.000000   0.000000   0.000000  -0.000000   0.000000
[...]
    21  C   -0.000758   0.000031  -0.000000  -0.000000  -0.002669  -0.004722
    22  C    0.001092  -0.000449   0.000002  -0.000000   0.005486   0.012318
    23  C   -0.004166  -0.001631   0.000011  -0.000001  -0.001900  -0.041389
    24  S   -0.000358   0.003018  -0.000013   0.000001   0.000208  -0.007697
    25  N   -0.000937   0.023860  -0.000039   0.000001   0.000083   0.020464
    26  C    0.000018  -0.001122  -0.000032  -0.000007  -0.000240   0.001394
    27  N   -0.000024   0.000343  -0.000001   0.000000   0.000021   0.000707
    28  H   -0.000002  -0.000000   0.000000  -0.000000  -0.000740  -0.000001
    29  H   -0.000000   0.000000   0.000000   0.000000  -0.000175  -0.000000
    30  H   -0.000007   0.000000  -0.000000  -0.000000   0.000046  -0.000000
    31  H    0.545479  -0.009609   0.000132   0.000195  -0.002369   0.002214
    32  H   -0.009609   0.491380  -0.006729  -0.000209   0.000137   0.000365
    33  H    0.000132  -0.006729   0.546593  -0.001891  -0.000003  -0.000001
    34  H    0.000195  -0.000209  -0.001891   0.555734   0.000008  -0.000000
    35  H   -0.002369   0.000137  -0.000003   0.000008   0.514271  -0.000022
    36  H    0.002214   0.000365  -0.000001  -0.000000  -0.000022   0.449670
    37  H    0.000009   0.000000  -0.000000  -0.000000  -0.000672   0.000048
    38  H    0.000008  -0.000032   0.000000  -0.000000  -0.000025  -0.000124
    39  H   -0.000019  -0.000030   0.000000  -0.000000  -0.000003  -0.001301
    40  H    0.000760  -0.004119   0.000215   0.000036  -0.000125  -0.000125
    41  H   -0.000065   0.000325  -0.000001   0.000001   0.000046  -0.000077
    42  H   -0.000002   0.000116   0.000033   0.000000  -0.000002  -0.000067
    43  H    0.000002  -0.000013   0.000000  -0.000000  -0.000000   0.000115
              37         38         39         40         41         42
     1  O    0.005084  -0.000043  -0.000000   0.000000   0.000000  -0.000000
     2  C   -0.006373  -0.000029   0.000000   0.000012   0.000008  -0.000000
     3  N   -0.000883   0.000017   0.000000   0.000000  -0.000000   0.000000
     4  C    0.001355  -0.000000  -0.000000   0.000002  -0.000000  -0.000000
     5  C    0.000054  -0.000002  -0.000000  -0.000000   0.000000   0.000000
     6  C    0.000004   0.000000   0.000000   0.000000  -0.000000  -0.000000
     7  C   -0.000009  -0.000000  -0.000000   0.000007   0.000000   0.000000
     8  Cl   0.000000  -0.000000   0.000000   0.000000  -0.000000   0.000000
     9  C   -0.000081   0.000011  -0.000000  -0.000004  -0.000001   0.000001
    10  C    0.000004  -0.000034   0.000016  -0.000115   0.000042   0.000040
    11  C   -0.000003   0.000066   0.000215  -0.001197   0.000406   0.000257
    12  C    0.000002   0.000033  -0.000248   0.001669   0.000030  -0.000559
    13  C   -0.000000   0.000009  -0.000104  -0.000065  -0.000400  -0.000337
    14  C   -0.000000  -0.000002   0.000002   0.000283   0.000033   0.000011
    15  N    0.000000   0.000000  -0.000000   0.000273  -0.000004   0.000000
    16  C   -0.000641   0.000005   0.000001  -0.000014  -0.000026   0.000002
    17  C   -0.056027   0.016585  -0.000019   0.000384  -0.000014  -0.000004
    18  C    0.011711  -0.004152  -0.000146  -0.000167   0.000182  -0.000022
    19  Cl  -0.000174   0.000029  -0.000006  -0.000004   0.000000  -0.000000
    20  C   -0.002954   0.013248  -0.002670  -0.003828  -0.001961  -0.000330
    21  C    0.450071  -0.060977   0.000095  -0.000550   0.000610  -0.000020
    22  C   -0.071600   0.451344  -0.001026   0.003308  -0.001347   0.000019
    23  C    0.015479  -0.085004   0.016519   0.005381   0.004561   0.007704
    24  S   -0.000232   0.002035  -0.017152  -0.019477  -0.008014  -0.014209
    25  N   -0.000004   0.001400   0.314227  -0.003133   0.005484   0.001500
    26  C    0.000195  -0.002861  -0.007387   0.368105   0.367282   0.367083
    27  N   -0.000039   0.014440  -0.000708   0.006346  -0.000413   0.004875
    28  H   -0.000106  -0.000001   0.000000   0.000000  -0.000000   0.000000
    29  H   -0.000000  -0.000000   0.000000  -0.000000   0.000000  -0.000000
    30  H   -0.000000   0.000000   0.000000  -0.000000  -0.000000  -0.000000
    31  H    0.000009   0.000008  -0.000019   0.000760  -0.000065  -0.000002
    32  H    0.000000  -0.000032  -0.000030  -0.004119   0.000325   0.000116
    33  H   -0.000000   0.000000   0.000000   0.000215  -0.000001   0.000033
    34  H   -0.000000  -0.000000  -0.000000   0.000036   0.000001   0.000000
    35  H   -0.000672  -0.000025  -0.000003  -0.000125   0.000046  -0.000002
    36  H    0.000048  -0.000124  -0.001301  -0.000125  -0.000077  -0.000067
    37  H    0.515088  -0.007729  -0.000000  -0.000029  -0.000011  -0.000002
    38  H   -0.007729   0.510402  -0.000064   0.000582  -0.001566  -0.000159
    39  H   -0.000000  -0.000064   0.475877   0.000316   0.000085   0.002081
    40  H   -0.000029   0.000582   0.000316   0.508041  -0.021556  -0.010596
    41  H   -0.000011  -0.001566   0.000085  -0.021556   0.509479  -0.008327
    42  H   -0.000002  -0.000159   0.002081  -0.010596  -0.008327   0.498729
    43  H    0.000010  -0.000894  -0.000164  -0.000636  -0.000743  -0.000653
              43
     1  O    0.000000
     2  C   -0.000001
     3  N    0.000000
     4  C   -0.000000
     5  C   -0.000000
     6  C    0.000000
     7  C   -0.000000
     8  Cl  -0.000000
     9  C   -0.000000
    10  C   -0.000001
    11  C   -0.000010
    12  C    0.000024
    13  C    0.000003
    14  C   -0.000000
    15  N   -0.000000
    16  C    0.000000
    17  C   -0.000101
    18  C   -0.000015
    19  Cl   0.000001
    20  C    0.003299
    21  C    0.000262
    22  C   -0.006238
    23  C   -0.003747
    24  S   -0.018558
    25  N   -0.002467
    26  C    0.013586
    27  N    0.309776
    28  H   -0.000000
    29  H    0.000000
    30  H    0.000000
    31  H    0.000002
    32  H   -0.000013
    33  H    0.000000
    34  H   -0.000000
    35  H   -0.000000
    36  H    0.000115
    37  H    0.000010
    38  H   -0.000894
    39  H   -0.000164
    40  H   -0.000636
    41  H   -0.000743
    42  H   -0.000653
    43  H    0.487152
 Mulliken charges:
               1
     1  O   -0.320090
     2  C    0.192511
     3  N   -0.211958
     4  C    0.270701
     5  C   -0.226387
     6  C   -0.217028
     7  C    0.074339
     8  Cl  -0.083737
     9  C    0.167737
    10  C    0.190416
    11  C   -0.228469
    12  C   -0.167797
    13  C   -0.079537
    14  C   -0.081440
    15  N   -0.212072
    16  C   -0.322028
    17  C    0.058353
    18  C    0.191836
    19  Cl  -0.069150
    20  C   -0.368671
    21  C   -0.150317
    22  C   -0.201116
    23  C    0.167228
    24  S    0.467535
    25  N   -0.577988
    26  C   -0.350727
    27  N   -0.539276
    28  H    0.234656
    29  H    0.117784
    30  H    0.128332
    31  H    0.143893
    32  H    0.161761
    33  H    0.129514
    34  H    0.122683
    35  H    0.174337
    36  H    0.191807
    37  H    0.148453
    38  H    0.153481
    39  H    0.221614
    40  H    0.170018
    41  H    0.155952
    42  H    0.152837
    43  H    0.220011
 Sum of Mulliken charges =  -0.00000
 Mulliken charges with hydrogens summed into heavy atoms:
               1
     1  O   -0.320090
     2  C    0.192511
     3  N    0.022699
     4  C    0.270701
     5  C   -0.108603
     6  C   -0.088696
     7  C    0.074339
     8  Cl  -0.083737
     9  C    0.167737
    10  C    0.190416
    11  C   -0.084576
    12  C   -0.006036
    13  C    0.049978
    14  C    0.041243
    15  N   -0.212072
    16  C   -0.147691
    17  C    0.058353
    18  C    0.191836
    19  Cl  -0.069150
    20  C   -0.176865
    21  C   -0.001864
    22  C   -0.047635
    23  C    0.167228
    24  S    0.467535
    25  N   -0.356374
    26  C    0.128080
    27  N   -0.319265
 Electronic spatial extent (au):  <R**2>=          11029.5793
 Charge=             -0.0000 electrons
 Dipole moment (field-independent basis, Debye):
    X=              0.4989    Y=              1.8414    Z=             -0.6665  Tot=              2.0209
 Quadrupole moment (field-independent basis, Debye-Ang):
   XX=           -180.2260   YY=           -178.4542   ZZ=           -177.5992
   XY=             19.3781   XZ=             -1.9847   YZ=             -2.1113
 Traceless Quadrupole moment (field-independent basis, Debye-Ang):
   XX=             -1.4662   YY=              0.3056   ZZ=              1.1606
   XY=             19.3781   XZ=             -1.9847   YZ=             -2.1113
 Octapole moment (field-independent basis, Debye-Ang**2):
  XXX=            -77.5403  YYY=            145.1918  ZZZ=              0.9265  XYY=             -5.9494
  XXY=            -58.8641  XXZ=             31.7301  XZZ=             19.4949  YZZ=             -5.6195
  YYZ=              8.4235  XYZ=             -3.6526
 Hexadecapole moment (field-independent basis, Debye-Ang**3):
 XXXX=          -8444.7216 YYYY=          -5638.7123 ZZZZ=          -1145.2927 XXXY=            162.2282
 XXXZ=            158.3107 YYYX=            256.7837 YYYZ=           -166.8389 ZZZX=            -56.1283
 ZZZY=             11.7148 XXYY=          -2083.4857 XXZZ=          -1543.2741 YYZZ=          -1110.1284
 XXYZ=             37.8767 YYXZ=             27.2181 ZZXY=              7.4423
 N-N= 2.988988709185D+03 E-N=-1.150133873723D+04  KE= 2.338134590832D+03
 Breneman (CHELPG) radii used.
 Read replacement radii for each type of atom:
 Atom Element Radius
    1     8    1.70
    2     6    1.50
    3     7    1.70
    4     6    1.50
    5     6    1.50
    6     6    1.50
    7     6    1.50
    8    17    2.00
    9     6    1.50
   10     6    1.50
   11     6    1.50
   12     6    1.50
   13     6    1.50
   14     6    1.50
   15     7    1.70
   16     6    1.50
   17     6    1.50
   18     6    1.50
   19    17    2.00
   20     6    1.50
   21     6    1.50
   22     6    1.50
   23     6    1.50
   24    16    2.00
   25     7    1.70
   26     6    1.50
   27     7    1.70
   28     1    1.45
   29     1    1.45
   30     1    1.45
   31     1    1.45
   32     1    1.45
   33     1    1.45
   34     1    1.45
   35     1    1.45
   36     1    1.45
   37     1    1.45
   38     1    1.45
   39     1    1.45
   40     1    1.45
   41     1    1.45
   42     1    1.45
   43     1    1.45
 Generate Potential Derived Charges using the Breneman model, NDens= 1.
 Grid spacing= 0.300 Box extension= 2.800
 NStep X,Y,Z=   57     52     35   Total possible points=      103740
 Number of Points to Fit=   22858

 **********************************************************************

            Electrostatic Properties Using The SCF Density.

 **********************************************************************

       Atomic Center    1 is at   0.071078 -4.575732 -1.060512
       Atomic Center    2 is at  -0.249114 -3.448659 -0.747036
       Atomic Center    3 is at  -1.566752 -3.068414 -0.754625
       Atomic Center    4 is at  -2.216338 -1.851603 -0.511874
       Atomic Center    5 is at  -3.567713 -1.891441 -0.145109
       Atomic Center    6 is at  -4.264376 -0.720464  0.118043
       Atomic Center    7 is at  -3.620599  0.514828  0.052658
       Atomic Center    8 is at  -4.505073  1.935028  0.485604
       Atomic Center    9 is at  -2.270082  0.582137 -0.313937
       Atomic Center   10 is at  -1.487885  1.846771 -0.306224
       Atomic Center   11 is at  -0.339249  1.914973  0.493444
       Atomic Center   12 is at   0.414869  3.083884  0.495279
       Atomic Center   13 is at  -0.009774  4.143960 -0.302291
       Atomic Center   14 is at  -1.173233  3.979091 -1.056825
       Atomic Center   15 is at  -1.897011  2.864725 -1.063964
       Atomic Center   16 is at  -1.599110 -0.603148 -0.627930
       Atomic Center   17 is at   0.798395 -2.427244 -0.406637
       Atomic Center   18 is at   0.896338 -1.778715  0.830072
       Atomic Center   19 is at  -0.204933 -2.154159  2.108885
       Atomic Center   20 is at   1.849165 -0.784612  1.042258
       Atomic Center   21 is at   1.751924 -2.146524 -1.391211
       Atomic Center   22 is at   2.715288 -1.165482 -1.194050
       Atomic Center   23 is at   2.714692 -0.458492  0.006480
       Atomic Center   24 is at   3.934229  0.855657  0.212169
       Atomic Center   25 is at   3.528499  1.418459  1.600972
       Atomic Center   26 is at   3.497260  1.951780 -1.141210
       Atomic Center   27 is at   5.364132  0.440040 -0.208339
       Atomic Center   28 is at  -2.172122 -3.864192 -0.932654
       Atomic Center   29 is at  -4.076684 -2.854218 -0.052639
       Atomic Center   30 is at  -5.314949 -0.757251  0.410001
       Atomic Center   31 is at  -0.058439  1.065342  1.116238
       Atomic Center   32 is at   1.318988  3.141002  1.108135
       Atomic Center   33 is at   0.541498  5.086122 -0.338790
       Atomic Center   34 is at  -1.536586  4.796017 -1.691260
       Atomic Center   35 is at  -0.567784 -0.524160 -0.965339
       Atomic Center   36 is at   1.920893 -0.240235  1.985422
       Atomic Center   37 is at   1.712214 -2.705439 -2.328394
       Atomic Center   38 is at   3.464914 -0.952437 -1.959266
       Atomic Center   39 is at   4.250513  2.081482  1.891436
       Atomic Center   40 is at   2.444148  2.235449 -1.025544
       Atomic Center   41 is at   3.689672  1.465350 -2.104153
       Atomic Center   42 is at   4.156262  2.822541 -1.024996
       Atomic Center   43 is at   5.736460 -0.184735  0.513175
   22858 points will be used for fitting atomic charges
 Fitting point charges to electrostatic potential
 Charges from ESP fit, RMS=   0.00391 RRMS=   0.24674:
 ESP charges:
               1
     1  O   -0.558987
     2  C    0.642050
     3  N   -0.566409
     4  C    0.302396
     5  C   -0.271345
     6  C   -0.005599
     7  C   -0.005026
     8  Cl  -0.098501
     9  C   -0.020014
    10  C    0.534378
    11  C   -0.364043
    12  C    0.219839
    13  C   -0.365061
    14  C    0.358098
    15  N   -0.600868
    16  C   -0.154137
    17  C    0.031949
    18  C    0.010802
    19  Cl  -0.087734
    20  C   -0.042554
    21  C   -0.100239
    22  C   -0.179905
    23  C    0.104961
    24  S    0.608859
    25  N   -0.733297
    26  C   -0.190201
    27  N   -0.733896
    28  H    0.341524
    29  H    0.150818
    30  H    0.092566
    31  H    0.112870
    32  H    0.049407
    33  H    0.127404
    34  H    0.034973
    35  H    0.044271
    36  H    0.106992
    37  H    0.125697
    38  H    0.150162
    39  H    0.337009
    40  H    0.043066
    41  H    0.098800
    42  H    0.133421
    43  H    0.315504
 Sum of ESP charges =   0.00000
 ESP charges with hydrogens summed into heavy atoms:
               1
     1  O   -0.558987
     2  C    0.642050
     3  N   -0.224885
     4  C    0.302396
     5  C   -0.120527
     6  C    0.086967
     7  C   -0.005026
     8  Cl  -0.098501
     9  C   -0.020014
    10  C    0.534378
    11  C   -0.251173
    12  C    0.269246
    13  C   -0.237658
    14  C    0.393071
    15  N   -0.600868
    16  C   -0.109866
    17  C    0.031949
    18  C    0.010802
    19  Cl  -0.087734
    20  C    0.064438
    21  C    0.025458
    22  C   -0.029743
    23  C    0.104961
    24  S    0.608859
    25  N   -0.396288
    26  C    0.085086
    27  N   -0.418392
 Charge=   0.00000 Dipole=     0.5541     1.7973    -0.7384 Tot=     2.0205
 -----------------------------------------------------------------

              Electrostatic Properties (Atomic Units)

 -----------------------------------------------------------------
    Center     Electric         -------- Electric Field --------
               Potential          X             Y             Z
 -----------------------------------------------------------------
    1 Atom    -22.364281
    2 Atom    -14.636965
    3 Atom    -18.315862
    4 Atom    -14.692158
    5 Atom    -14.739392
    6 Atom    -14.740360
    7 Atom    -14.692741
    8 Atom    -64.422345
    9 Atom    -14.729697
   10 Atom    -14.709495
   11 Atom    -14.747668
   12 Atom    -14.738987
   13 Atom    -14.745812
   14 Atom    -14.723014
   15 Atom    -18.381133
   16 Atom    -14.742409
   17 Atom    -14.711547
   18 Atom    -14.668261
   19 Atom    -64.400997
   20 Atom    -14.724427
   21 Atom    -14.723422
   22 Atom    -14.723325
   23 Atom    -14.707088
   24 Atom    -59.057785
   25 Atom    -18.408949
   26 Atom    -14.723796
   27 Atom    -18.411910
   28 Atom     -0.992843
   29 Atom     -1.073979
   30 Atom     -1.080956
   31 Atom     -1.085442
   32 Atom     -1.083597
   33 Atom     -1.082249
   34 Atom     -1.096001
   35 Atom     -1.079769
   36 Atom     -1.068157
   37 Atom     -1.070231
   38 Atom     -1.064891
   39 Atom     -1.033225
   40 Atom     -1.066278
   41 Atom     -1.064800
   42 Atom     -1.061909
   43 Atom     -1.037997
 -----------------------------------------------------------------
 Unable to Open any file for archive entry.
 1\1\GINC-NOTCH454\SP\RPBE1PBE\def2TZVP\C19H16Cl2N4O1S1\U1414944\13-Oct
 -2025\0\\#N Guess=Read Geom=Check Integral(Ultrafine) Density Pop=(Che
 lpG,ReadRadii) NMR pbe1pbe EmpiricalDispersion=GD3BJ def2TZVP\\SDI-dru
 g_14\\0,1\O,0,0.0786738727,-4.6336239152,0.6154517746\C,0,0.3471957983
 ,-3.467028543,0.4204245355\N,0,1.6462871021,-3.0305091762,0.4716651354
 \C,0,2.2398837093,-1.7671415573,0.3573667792\C,0,3.5912696818,-1.70809
 6392,-0.0067558881\C,0,4.2339465109,-0.4860551271,-0.1458840828\C,0,3.
 5350095051,0.7056834325,0.0436338144\Cl,0,4.3538389944,2.2012832797,-0
 .2381500319\C,0,2.1832364882,0.6739924557,0.410409078\C,0,1.3446128962
 ,1.8961479544,0.5297363428\C,0,0.1931826792,1.994196429,-0.2627794621\
 C,0,-0.6130525286,3.1218950642,-0.1473291106\C,0,-0.2359265367,4.11255
 53137,0.7563130355\C,0,0.9346347998,3.9237528249,1.4940669085\N,0,1.70
 80995445,2.8483409971,1.3893815504\C,0,1.5669281125,-0.5663279624,0.59
 87332956\C,0,-0.7458309926,-2.4643720335,0.1829249915\C,0,-0.874385800
 9,-1.6973775528,-0.9810452174\Cl,0,0.2413290837,-1.8894642178,-2.28772
 03201\C,0,-1.8714503225,-0.7307518284,-1.0934767674\C,0,-1.7099955974,
 -2.3295351933,1.1877200286\C,0,-2.7169782503,-1.3779058031,1.088856250
 5\C,0,-2.7496995597,-0.5520883884,-0.0327766697\S,0,-4.0276744444,0.71
 98633401,-0.1068495275\N,0,-3.6493614155,1.4400127168,-1.4291197069\C,
 0,-3.639251643,1.6898324906,1.3534067321\N,0,-5.4368420632,0.199175992
 3,0.2637159756\H,0,2.2872400453,-3.8122313516,0.5692401919\H,0,4.14317
 9077,-2.6323405407,-0.1957291812\H,0,5.2847843272,-0.4452313456,-0.436
 3489993\H,0,-0.0495857504,1.2011987107,-0.9704640317\H,0,-1.519508078,
 3.2007825202,-0.7542906884\H,0,-0.829222965,5.020152939,0.8873468187\H
 ,0,1.2613540147,4.6867807717,2.2102680463\H,0,0.5334588136,-0.56901413
 02,0.9388076225\H,0,-1.9687793992,-0.0962090833,-1.9760473884\H,0,-1.6
 440007989,-2.9793547842,2.0627366456\H,0,-3.4746295508,-1.2785949519,1
 .8692314254\H,0,-4.4009558811,2.0960976123,-1.6525716259\H,0,-2.600181
 8343,2.0311040993,1.2711955646\H,0,-3.8083916442,1.0989223867,2.260662
 0463\H,0,-4.3371054709,2.5372976443,1.3248254776\H,0,-5.7813188817,-0.
 3643782172,-0.5194178297\\Version=ES64L-G16RevC.01\State=1-A\HF=-2345.
 243159\RMSD=8.276e-09\Dipole=-0.2285837,0.6841207,0.3344664\Quadrupole
 =0.2115729,-1.3673224,1.1557495,-14.1713135,-3.0153331,1.286735\PG=C01
  [X(C19H16Cl2N4O1S1)]\\@
 The archive entry for this job was punched.


 IT WAS AN ACT OF DESPARATION. FOR SIX YEARS I HAD STRUGGLED WITH THE
 BLACKBODY THEORY. I KNEW THE PROBLEM WAS FUNDAMENTAL, AND I KNEW
 THE ANSWER. I HAD TO FIND A THEORETICAL EXPLANATION AT ANY COST,
 EXCEPT FOR THE INVIOLABLITY OF THE TWO LAWS OF THERMODYNAMICS.
   -- MAX PLANCK, 1931
 Job cpu time:       0 days  2 hours 49 minutes 48.8 seconds.
 Elapsed time:       0 days  0 hours 11 minutes 28.7 seconds.
 File lengths (MBytes):  RWF=    525 Int=      0 D2E=      0 Chk=     83 Scr=      2
 Normal termination of Gaussian 16 at Mon Oct 13 23:44:55 2025.
