 Entering Gaussian System, Link 0=g16
 Input=SDI-drug_5.com
 Output=SDI-drug_5.log
 Initial command:
 /uufs/chpc.utah.edu/sys/installdir/gaussian16/C01/AVX/g16/l1.exe "/scratch/general/vast/u1414944/6939698-notchpeak.peaks/Gau-2798693.inp" -scrdir="/scratch/general/vast/u1414944/6939698-notchpeak.peaks/"
 Entering Link 1 = /uufs/chpc.utah.edu/sys/installdir/gaussian16/C01/AVX/g16/l1.exe PID=   2798694.
  
 Copyright (c) 1988-2019, Gaussian, Inc.  All Rights Reserved.
  
 This is part of the Gaussian(R) 16 program.  It is based on
 the Gaussian(R) 09 system (copyright 2009, Gaussian, Inc.),
 the Gaussian(R) 03 system (copyright 2003, Gaussian, Inc.),
 the Gaussian(R) 98 system (copyright 1998, Gaussian, Inc.),
 the Gaussian(R) 94 system (copyright 1995, Gaussian, Inc.),
 the Gaussian 92(TM) system (copyright 1992, Gaussian, Inc.),
 the Gaussian 90(TM) system (copyright 1990, Gaussian, Inc.),
 the Gaussian 88(TM) system (copyright 1988, Gaussian, Inc.),
 the Gaussian 86(TM) system (copyright 1986, Carnegie Mellon
 University), and the Gaussian 82(TM) system (copyright 1983,
 Carnegie Mellon University). Gaussian is a federally registered
 trademark of Gaussian, Inc.
  
 This software contains proprietary and confidential information,
 including trade secrets, belonging to Gaussian, Inc.
  
 This software is provided under written license and may be
 used, copied, transmitted, or stored only in accord with that
 written license.
  
 The following legend is applicable only to US Government
 contracts under FAR:
  
                    RESTRICTED RIGHTS LEGEND
  
 Use, reproduction and disclosure by the US Government is
 subject to restrictions as set forth in subparagraphs (a)
 and (c) of the Commercial Computer Software - Restricted
 Rights clause in FAR 52.227-19.
  
 Gaussian, Inc.
 340 Quinnipiac St., Bldg. 40, Wallingford CT 06492
  
  
 ---------------------------------------------------------------
 Warning -- This program may not be used in any manner that
 competes with the business of Gaussian, Inc. or will provide
 assistance to any competitor of Gaussian, Inc.  The licensee
 of this program is prohibited from giving any competitor of
 Gaussian, Inc. access to this program.  By using this program,
 the user acknowledges that Gaussian, Inc. is engaged in the
 business of creating and licensing software in the field of
 computational chemistry and represents and warrants to the
 licensee that it is not a competitor of Gaussian, Inc. and that
 it will not use this program in any manner prohibited above.
 ---------------------------------------------------------------
  

 Cite this work as:
 Gaussian 16, Revision C.01,
 M. J. Frisch, G. W. Trucks, H. B. Schlegel, G. E. Scuseria, 
 M. A. Robb, J. R. Cheeseman, G. Scalmani, V. Barone, 
 G. A. Petersson, H. Nakatsuji, X. Li, M. Caricato, A. V. Marenich, 
 J. Bloino, B. G. Janesko, R. Gomperts, B. Mennucci, H. P. Hratchian, 
 J. V. Ortiz, A. F. Izmaylov, J. L. Sonnenberg, D. Williams-Young, 
 F. Ding, F. Lipparini, F. Egidi, J. Goings, B. Peng, A. Petrone, 
 T. Henderson, D. Ranasinghe, V. G. Zakrzewski, J. Gao, N. Rega, 
 G. Zheng, W. Liang, M. Hada, M. Ehara, K. Toyota, R. Fukuda, 
 J. Hasegawa, M. Ishida, T. Nakajima, Y. Honda, O. Kitao, H. Nakai, 
 T. Vreven, K. Throssell, J. A. Montgomery, Jr., J. E. Peralta, 
 F. Ogliaro, M. J. Bearpark, J. J. Heyd, E. N. Brothers, K. N. Kudin, 
 V. N. Staroverov, T. A. Keith, R. Kobayashi, J. Normand, 
 K. Raghavachari, A. P. Rendell, J. C. Burant, S. S. Iyengar, 
 J. Tomasi, M. Cossi, J. M. Millam, M. Klene, C. Adamo, R. Cammi, 
 J. W. Ochterski, R. L. Martin, K. Morokuma, O. Farkas, 
 J. B. Foresman, and D. J. Fox, Gaussian, Inc., Wallingford CT, 2019.
 
 ******************************************
 Gaussian 16:  ES64L-G16RevC.01  3-Jul-2019
                13-Oct-2025 
 ******************************************
 %NProcShared=16
 Will use up to   16 processors via shared memory.
 %Mem=40GB
 %chk=SDI-drug_5.chk
 ----------------------------------------------------------------------
 #N OPT FREQ=NORAMAN Integral(Ultrafine) pbe1pbe EmpiricalDispersion=GD
 3BJ def2SVP
 ----------------------------------------------------------------------
 1/18=20,19=15,26=4,38=1/1,3;
 2/9=110,12=2,17=6,18=5,40=1/2;
 3/5=43,7=101,11=2,25=1,30=1,71=1,74=-13,75=-5,124=41/1,2,3;
 4//1;
 5/5=2,38=5/2;
 6/7=2,8=2,9=2,10=2,28=1/1;
 7//1,2,3,16;
 1/18=20,19=15,26=4/3(2);
 2/9=110/2;
 99//99;
 2/9=110/2;
 3/5=43,7=101,11=2,25=1,30=1,71=1,74=-13,75=-5,124=41/1,2,3;
 4/5=5,16=3,69=1/1;
 5/5=2,38=5/2;
 7//1,2,3,16;
 1/18=20,19=15,26=4/3(-5);
 2/9=110/2;
 6/7=2,8=2,9=2,10=2,19=2,28=1/1;
 99/9=1/99;
 ----------
 SDI-drug_5
 ----------
 Symbolic Z-matrix:
 Charge =  0 Multiplicity = 1
 O                     0.06459  -4.44896  -1.33868 
 C                     0.34754  -3.33099  -0.96608 
 N                     1.64478  -2.92361  -0.9026 
 C                     2.20124  -1.69151  -0.54535 
 C                     3.46457  -1.68046   0.045 
 C                     4.04852  -0.48906   0.42332 
 C                     3.38054   0.70989   0.22199 
 Cl                    4.1105    2.17228   0.75877 
 C                     2.12519   0.72391  -0.38501 
 C                     1.36952   1.9734   -0.59803 
 C                     0.03371   2.05301  -0.20436 
 C                    -0.6454    3.24172  -0.40348 
 C                     0.02137   4.30356  -0.99461 
 C                     1.34958   4.12091  -1.3516 
 N                     2.00729   2.99418  -1.15845 
 C                     1.55894  -0.48216  -0.78201 
 C                    -0.70615  -2.34347  -0.56305 
 C                    -0.77325  -1.81195   0.72508 
 Cl                    0.37919  -2.27693   1.92294 
 C                    -1.76328  -0.9008    1.05839 
 C                    -1.6799   -1.99665  -1.4951 
 C                    -2.6661   -1.08289  -1.17067 
 C                    -2.68766  -0.53764   0.09902 
 S                    -3.93938   0.71347   0.48889 
 N                    -3.23807   1.4966    1.60963 
 C                    -5.28058  -0.39157   1.04979 
 N                    -4.56938   1.34159  -0.76208 
 H                     2.30879  -3.67392  -1.05901 
 H                     3.98383  -2.61173   0.21584 
 H                     5.02166  -0.48274   0.88772 
 H                    -0.45214   1.21601   0.2719 
 H                    -1.67512   3.33055  -0.08886 
 H                    -0.47036   5.24798  -1.16843 
 H                     1.9208    4.91545  -1.81414 
 H                     0.61335  -0.45754  -1.29886 
 H                    -1.81413  -0.44933   2.03595 
 H                    -1.63766  -2.43959  -2.4785 
 H                    -3.41184  -0.772    -1.88634 
 H                    -3.67876   2.36986   1.84675 
 H                    -6.11627   0.22126   1.36596 
 H                    -4.9093   -0.9945    1.86962 
 H                    -5.56555  -1.00155   0.20295 
 H                    -4.08801   2.15323  -1.11279 
 

 GradGradGradGradGradGradGradGradGradGradGradGradGradGradGradGradGradGrad
 Berny optimization.
 Initialization pass.
                           ----------------------------
                           !    Initial Parameters    !
                           ! (Angstroms and Degrees)  !
 --------------------------                            --------------------------
 ! Name  Definition              Value          Derivative Info.                !
 --------------------------------------------------------------------------------
 ! R1    R(1,2)                  1.2119         estimate D2E/DX2                !
 ! R2    R(2,3)                  1.3612         estimate D2E/DX2                !
 ! R3    R(2,17)                 1.4993         estimate D2E/DX2                !
 ! R4    R(3,4)                  1.3983         estimate D2E/DX2                !
 ! R5    R(3,28)                 1.0141         estimate D2E/DX2                !
 ! R6    R(4,5)                  1.3945         estimate D2E/DX2                !
 ! R7    R(4,16)                 1.3896         estimate D2E/DX2                !
 ! R8    R(5,6)                  1.3797         estimate D2E/DX2                !
 ! R9    R(5,29)                 1.0799         estimate D2E/DX2                !
 ! R10   R(6,7)                  1.3872         estimate D2E/DX2                !
 ! R11   R(6,30)                 1.0783         estimate D2E/DX2                !
 ! R12   R(7,8)                  1.7203         estimate D2E/DX2                !
 ! R13   R(7,9)                  1.3945         estimate D2E/DX2                !
 ! R14   R(9,10)                 1.4757         estimate D2E/DX2                !
 ! R15   R(9,16)                 1.3903         estimate D2E/DX2                !
 ! R16   R(10,11)                1.3949         estimate D2E/DX2                !
 ! R17   R(10,15)                1.3277         estimate D2E/DX2                !
 ! R18   R(11,12)                1.3834         estimate D2E/DX2                !
 ! R19   R(11,31)                1.0786         estimate D2E/DX2                !
 ! R20   R(12,13)                1.3862         estimate D2E/DX2                !
 ! R21   R(12,32)                1.0804         estimate D2E/DX2                !
 ! R22   R(13,14)                1.3874         estimate D2E/DX2                !
 ! R23   R(13,33)                1.0789         estimate D2E/DX2                !
 ! R24   R(14,15)                1.3189         estimate D2E/DX2                !
 ! R25   R(14,34)                1.0824         estimate D2E/DX2                !
 ! R26   R(16,35)                1.0779         estimate D2E/DX2                !
 ! R27   R(17,18)                1.3951         estimate D2E/DX2                !
 ! R28   R(17,21)                1.3918         estimate D2E/DX2                !
 ! R29   R(18,19)                1.726          estimate D2E/DX2                !
 ! R30   R(18,20)                1.3862         estimate D2E/DX2                !
 ! R31   R(20,23)                1.3809         estimate D2E/DX2                !
 ! R32   R(20,36)                1.078          estimate D2E/DX2                !
 ! R33   R(21,22)                1.383          estimate D2E/DX2                !
 ! R34   R(21,37)                1.0794         estimate D2E/DX2                !
 ! R35   R(22,23)                1.382          estimate D2E/DX2                !
 ! R36   R(22,38)                1.0793         estimate D2E/DX2                !
 ! R37   R(23,24)                1.8122         estimate D2E/DX2                !
 ! R38   R(24,25)                1.5366         estimate D2E/DX2                !
 ! R39   R(24,26)                1.8261         estimate D2E/DX2                !
 ! R40   R(24,27)                1.535          estimate D2E/DX2                !
 ! R41   R(25,39)                1.0065         estimate D2E/DX2                !
 ! R42   R(26,40)                1.0835         estimate D2E/DX2                !
 ! R43   R(26,41)                1.0833         estimate D2E/DX2                !
 ! R44   R(26,42)                1.0819         estimate D2E/DX2                !
 ! R45   R(27,43)                1.0067         estimate D2E/DX2                !
 ! A1    A(1,2,3)              120.8588         estimate D2E/DX2                !
 ! A2    A(1,2,17)             121.7462         estimate D2E/DX2                !
 ! A3    A(3,2,17)             117.3946         estimate D2E/DX2                !
 ! A4    A(2,3,4)              130.9095         estimate D2E/DX2                !
 ! A5    A(2,3,28)             113.2914         estimate D2E/DX2                !
 ! A6    A(4,3,28)             115.5166         estimate D2E/DX2                !
 ! A7    A(3,4,5)              118.4011         estimate D2E/DX2                !
 ! A8    A(3,4,16)             122.6407         estimate D2E/DX2                !
 ! A9    A(5,4,16)             118.9426         estimate D2E/DX2                !
 ! A10   A(4,5,6)              120.4212         estimate D2E/DX2                !
 ! A11   A(4,5,29)             119.7209         estimate D2E/DX2                !
 ! A12   A(6,5,29)             119.8549         estimate D2E/DX2                !
 ! A13   A(5,6,7)              120.1822         estimate D2E/DX2                !
 ! A14   A(5,6,30)             120.3397         estimate D2E/DX2                !
 ! A15   A(7,6,30)             119.4743         estimate D2E/DX2                !
 ! A16   A(6,7,8)              119.0196         estimate D2E/DX2                !
 ! A17   A(6,7,9)              120.3561         estimate D2E/DX2                !
 ! A18   A(8,7,9)              120.6142         estimate D2E/DX2                !
 ! A19   A(7,9,10)             122.164          estimate D2E/DX2                !
 ! A20   A(7,9,16)             118.8318         estimate D2E/DX2                !
 ! A21   A(10,9,16)            118.9956         estimate D2E/DX2                !
 ! A22   A(9,10,11)            119.8666         estimate D2E/DX2                !
 ! A23   A(9,10,15)            117.7703         estimate D2E/DX2                !
 ! A24   A(11,10,15)           122.3614         estimate D2E/DX2                !
 ! A25   A(10,11,12)           118.5886         estimate D2E/DX2                !
 ! A26   A(10,11,31)           120.7761         estimate D2E/DX2                !
 ! A27   A(12,11,31)           120.6108         estimate D2E/DX2                !
 ! A28   A(11,12,13)           118.9113         estimate D2E/DX2                !
 ! A29   A(11,12,32)           119.7753         estimate D2E/DX2                !
 ! A30   A(13,12,32)           121.3101         estimate D2E/DX2                !
 ! A31   A(12,13,14)           117.9931         estimate D2E/DX2                !
 ! A32   A(12,13,33)           121.3337         estimate D2E/DX2                !
 ! A33   A(14,13,33)           120.672          estimate D2E/DX2                !
 ! A34   A(13,14,15)           123.5177         estimate D2E/DX2                !
 ! A35   A(13,14,34)           121.2346         estimate D2E/DX2                !
 ! A36   A(15,14,34)           115.2476         estimate D2E/DX2                !
 ! A37   A(10,15,14)           118.6259         estimate D2E/DX2                !
 ! A38   A(4,16,9)             121.2032         estimate D2E/DX2                !
 ! A39   A(4,16,35)            120.4646         estimate D2E/DX2                !
 ! A40   A(9,16,35)            118.3208         estimate D2E/DX2                !
 ! A41   A(2,17,18)            122.2044         estimate D2E/DX2                !
 ! A42   A(2,17,21)            118.4115         estimate D2E/DX2                !
 ! A43   A(18,17,21)           119.3228         estimate D2E/DX2                !
 ! A44   A(17,18,19)           120.4001         estimate D2E/DX2                !
 ! A45   A(17,18,20)           120.4507         estimate D2E/DX2                !
 ! A46   A(19,18,20)           119.1489         estimate D2E/DX2                !
 ! A47   A(18,20,23)           118.9425         estimate D2E/DX2                !
 ! A48   A(18,20,36)           121.805          estimate D2E/DX2                !
 ! A49   A(23,20,36)           119.231          estimate D2E/DX2                !
 ! A50   A(17,21,22)           120.4259         estimate D2E/DX2                !
 ! A51   A(17,21,37)           118.7166         estimate D2E/DX2                !
 ! A52   A(22,21,37)           120.8469         estimate D2E/DX2                !
 ! A53   A(21,22,23)           119.164          estimate D2E/DX2                !
 ! A54   A(21,22,38)           121.8332         estimate D2E/DX2                !
 ! A55   A(23,22,38)           118.9966         estimate D2E/DX2                !
 ! A56   A(20,23,22)           121.6081         estimate D2E/DX2                !
 ! A57   A(20,23,24)           119.6354         estimate D2E/DX2                !
 ! A58   A(22,23,24)           118.739          estimate D2E/DX2                !
 ! A59   A(23,24,25)           101.1582         estimate D2E/DX2                !
 ! A60   A(23,24,26)            98.9521         estimate D2E/DX2                !
 ! A61   A(23,24,27)           112.9945         estimate D2E/DX2                !
 ! A62   A(25,24,26)           114.809          estimate D2E/DX2                !
 ! A63   A(25,24,27)           124.9706         estimate D2E/DX2                !
 ! A64   A(26,24,27)           101.3327         estimate D2E/DX2                !
 ! A65   A(24,25,39)           114.4679         estimate D2E/DX2                !
 ! A66   A(24,26,40)           108.2918         estimate D2E/DX2                !
 ! A67   A(24,26,41)           108.5148         estimate D2E/DX2                !
 ! A68   A(24,26,42)           107.1115         estimate D2E/DX2                !
 ! A69   A(40,26,41)           110.9974         estimate D2E/DX2                !
 ! A70   A(40,26,42)           110.13           estimate D2E/DX2                !
 ! A71   A(41,26,42)           111.6454         estimate D2E/DX2                !
 ! A72   A(24,27,43)           114.6805         estimate D2E/DX2                !
 ! D1    D(1,2,3,4)            178.0273         estimate D2E/DX2                !
 ! D2    D(1,2,3,28)            -8.459          estimate D2E/DX2                !
 ! D3    D(17,2,3,4)            -1.7695         estimate D2E/DX2                !
 ! D4    D(17,2,3,28)          171.7441         estimate D2E/DX2                !
 ! D5    D(1,2,17,18)          118.5315         estimate D2E/DX2                !
 ! D6    D(1,2,17,21)          -58.5995         estimate D2E/DX2                !
 ! D7    D(3,2,17,18)          -61.6735         estimate D2E/DX2                !
 ! D8    D(3,2,17,21)          121.1955         estimate D2E/DX2                !
 ! D9    D(2,3,4,5)            149.7072         estimate D2E/DX2                !
 ! D10   D(2,3,4,16)           -31.7423         estimate D2E/DX2                !
 ! D11   D(28,3,4,5)           -23.6907         estimate D2E/DX2                !
 ! D12   D(28,3,4,16)          154.8598         estimate D2E/DX2                !
 ! D13   D(3,4,5,6)           -179.5004         estimate D2E/DX2                !
 ! D14   D(3,4,5,29)            -0.1283         estimate D2E/DX2                !
 ! D15   D(16,4,5,6)             1.8944         estimate D2E/DX2                !
 ! D16   D(16,4,5,29)         -178.7335         estimate D2E/DX2                !
 ! D17   D(3,4,16,9)           178.4194         estimate D2E/DX2                !
 ! D18   D(3,4,16,35)           -2.8279         estimate D2E/DX2                !
 ! D19   D(5,4,16,9)            -3.0377         estimate D2E/DX2                !
 ! D20   D(5,4,16,35)          175.7151         estimate D2E/DX2                !
 ! D21   D(4,5,6,7)              0.1607         estimate D2E/DX2                !
 ! D22   D(4,5,6,30)           179.4521         estimate D2E/DX2                !
 ! D23   D(29,5,6,7)          -179.2106         estimate D2E/DX2                !
 ! D24   D(29,5,6,30)            0.0807         estimate D2E/DX2                !
 ! D25   D(5,6,7,8)            177.7161         estimate D2E/DX2                !
 ! D26   D(5,6,7,9)             -1.1343         estimate D2E/DX2                !
 ! D27   D(30,6,7,8)            -1.5814         estimate D2E/DX2                !
 ! D28   D(30,6,7,9)           179.5682         estimate D2E/DX2                !
 ! D29   D(6,7,9,10)           178.9455         estimate D2E/DX2                !
 ! D30   D(6,7,9,16)             0.025          estimate D2E/DX2                !
 ! D31   D(8,7,9,10)             0.1136         estimate D2E/DX2                !
 ! D32   D(8,7,9,16)          -178.8069         estimate D2E/DX2                !
 ! D33   D(7,9,10,11)         -130.2924         estimate D2E/DX2                !
 ! D34   D(7,9,10,15)           49.243          estimate D2E/DX2                !
 ! D35   D(16,9,10,11)          48.6265         estimate D2E/DX2                !
 ! D36   D(16,9,10,15)        -131.8382         estimate D2E/DX2                !
 ! D37   D(7,9,16,4)             2.0844         estimate D2E/DX2                !
 ! D38   D(7,9,16,35)         -176.6943         estimate D2E/DX2                !
 ! D39   D(10,9,16,4)         -176.8708         estimate D2E/DX2                !
 ! D40   D(10,9,16,35)           4.3504         estimate D2E/DX2                !
 ! D41   D(9,10,11,12)         179.3145         estimate D2E/DX2                !
 ! D42   D(9,10,11,31)           1.1036         estimate D2E/DX2                !
 ! D43   D(15,10,11,12)         -0.1987         estimate D2E/DX2                !
 ! D44   D(15,10,11,31)       -178.4096         estimate D2E/DX2                !
 ! D45   D(9,10,15,14)        -179.7203         estimate D2E/DX2                !
 ! D46   D(11,10,15,14)         -0.1974         estimate D2E/DX2                !
 ! D47   D(10,11,12,13)          0.4954         estimate D2E/DX2                !
 ! D48   D(10,11,12,32)       -178.8549         estimate D2E/DX2                !
 ! D49   D(31,11,12,13)        178.7093         estimate D2E/DX2                !
 ! D50   D(31,11,12,32)         -0.6409         estimate D2E/DX2                !
 ! D51   D(11,12,13,14)         -0.4051         estimate D2E/DX2                !
 ! D52   D(11,12,13,33)        179.9946         estimate D2E/DX2                !
 ! D53   D(32,12,13,14)        178.9348         estimate D2E/DX2                !
 ! D54   D(32,12,13,33)         -0.6655         estimate D2E/DX2                !
 ! D55   D(12,13,14,15)          0.0064         estimate D2E/DX2                !
 ! D56   D(12,13,14,34)       -179.8454         estimate D2E/DX2                !
 ! D57   D(33,13,14,15)        179.6095         estimate D2E/DX2                !
 ! D58   D(33,13,14,34)         -0.2423         estimate D2E/DX2                !
 ! D59   D(13,14,15,10)          0.2968         estimate D2E/DX2                !
 ! D60   D(34,14,15,10)       -179.8434         estimate D2E/DX2                !
 ! D61   D(2,17,18,19)           0.1964         estimate D2E/DX2                !
 ! D62   D(2,17,18,20)         179.9953         estimate D2E/DX2                !
 ! D63   D(21,17,18,19)        177.3021         estimate D2E/DX2                !
 ! D64   D(21,17,18,20)         -2.899          estimate D2E/DX2                !
 ! D65   D(2,17,21,22)        -179.5546         estimate D2E/DX2                !
 ! D66   D(2,17,21,37)          -0.7315         estimate D2E/DX2                !
 ! D67   D(18,17,21,22)          3.2297         estimate D2E/DX2                !
 ! D68   D(18,17,21,37)       -177.9472         estimate D2E/DX2                !
 ! D69   D(17,18,20,23)          0.5675         estimate D2E/DX2                !
 ! D70   D(17,18,20,36)       -177.7363         estimate D2E/DX2                !
 ! D71   D(19,18,20,23)       -179.6311         estimate D2E/DX2                !
 ! D72   D(19,18,20,36)          2.0651         estimate D2E/DX2                !
 ! D73   D(18,20,23,22)          1.4977         estimate D2E/DX2                !
 ! D74   D(18,20,23,24)       -176.96           estimate D2E/DX2                !
 ! D75   D(36,20,23,22)        179.8458         estimate D2E/DX2                !
 ! D76   D(36,20,23,24)          1.3881         estimate D2E/DX2                !
 ! D77   D(17,21,22,23)         -1.2241         estimate D2E/DX2                !
 ! D78   D(17,21,22,38)        177.8563         estimate D2E/DX2                !
 ! D79   D(37,21,22,23)        179.9781         estimate D2E/DX2                !
 ! D80   D(37,21,22,38)         -0.9415         estimate D2E/DX2                !
 ! D81   D(21,22,23,20)         -1.1747         estimate D2E/DX2                !
 ! D82   D(21,22,23,24)        177.2965         estimate D2E/DX2                !
 ! D83   D(38,22,23,20)        179.7186         estimate D2E/DX2                !
 ! D84   D(38,22,23,24)         -1.8103         estimate D2E/DX2                !
 ! D85   D(20,23,24,25)         24.8319         estimate D2E/DX2                !
 ! D86   D(20,23,24,26)        -92.8153         estimate D2E/DX2                !
 ! D87   D(20,23,24,27)        160.7485         estimate D2E/DX2                !
 ! D88   D(22,23,24,25)       -153.6701         estimate D2E/DX2                !
 ! D89   D(22,23,24,26)         88.6827         estimate D2E/DX2                !
 ! D90   D(22,23,24,27)        -17.7535         estimate D2E/DX2                !
 ! D91   D(23,24,25,39)        167.5412         estimate D2E/DX2                !
 ! D92   D(26,24,25,39)        -87.0377         estimate D2E/DX2                !
 ! D93   D(27,24,25,39)         38.9425         estimate D2E/DX2                !
 ! D94   D(23,24,26,40)        177.7645         estimate D2E/DX2                !
 ! D95   D(23,24,26,41)         57.1876         estimate D2E/DX2                !
 ! D96   D(23,24,26,42)        -63.4834         estimate D2E/DX2                !
 ! D97   D(25,24,26,40)         70.9879         estimate D2E/DX2                !
 ! D98   D(25,24,26,41)        -49.5889         estimate D2E/DX2                !
 ! D99   D(25,24,26,42)       -170.26           estimate D2E/DX2                !
 ! D100  D(27,24,26,40)        -66.457          estimate D2E/DX2                !
 ! D101  D(27,24,26,41)        172.9661         estimate D2E/DX2                !
 ! D102  D(27,24,26,42)         52.2951         estimate D2E/DX2                !
 ! D103  D(23,24,27,43)        -89.1967         estimate D2E/DX2                !
 ! D104  D(25,24,27,43)         34.4009         estimate D2E/DX2                !
 ! D105  D(26,24,27,43)        165.8846         estimate D2E/DX2                !
 --------------------------------------------------------------------------------
 Trust Radius=3.00D-01 FncErr=1.00D-07 GrdErr=1.00D-06 EigMax=2.50D+02 EigMin=1.00D-04
 Number of steps in this run=    232 maximum allowed number of steps=    258.
 GradGradGradGradGradGradGradGradGradGradGradGradGradGradGradGradGradGrad

                          Input orientation:                          
 ---------------------------------------------------------------------
 Center     Atomic      Atomic             Coordinates (Angstroms)
 Number     Number       Type             X           Y           Z
 ---------------------------------------------------------------------
      1          8           0        0.064593   -4.448964   -1.338682
      2          6           0        0.347542   -3.330992   -0.966083
      3          7           0        1.644784   -2.923615   -0.902596
      4          6           0        2.201242   -1.691506   -0.545352
      5          6           0        3.464574   -1.680461    0.044999
      6          6           0        4.048520   -0.489057    0.423321
      7          6           0        3.380537    0.709892    0.221986
      8         17           0        4.110499    2.172284    0.758775
      9          6           0        2.125191    0.723910   -0.385011
     10          6           0        1.369516    1.973397   -0.598031
     11          6           0        0.033713    2.053009   -0.204358
     12          6           0       -0.645398    3.241724   -0.403484
     13          6           0        0.021372    4.303559   -0.994615
     14          6           0        1.349581    4.120912   -1.351598
     15          7           0        2.007291    2.994179   -1.158449
     16          6           0        1.558940   -0.482156   -0.782007
     17          6           0       -0.706155   -2.343469   -0.563054
     18          6           0       -0.773248   -1.811945    0.725081
     19         17           0        0.379192   -2.276933    1.922938
     20          6           0       -1.763282   -0.900798    1.058388
     21          6           0       -1.679896   -1.996645   -1.495100
     22          6           0       -2.666097   -1.082895   -1.170674
     23          6           0       -2.687661   -0.537643    0.099016
     24         16           0       -3.939383    0.713474    0.488890
     25          7           0       -3.238069    1.496604    1.609626
     26          6           0       -5.280576   -0.391569    1.049791
     27          7           0       -4.569375    1.341586   -0.762083
     28          1           0        2.308794   -3.673919   -1.059009
     29          1           0        3.983833   -2.611731    0.215843
     30          1           0        5.021660   -0.482738    0.887723
     31          1           0       -0.452140    1.216010    0.271900
     32          1           0       -1.675120    3.330547   -0.088858
     33          1           0       -0.470360    5.247977   -1.168432
     34          1           0        1.920802    4.915452   -1.814138
     35          1           0        0.613347   -0.457538   -1.298858
     36          1           0       -1.814128   -0.449335    2.035953
     37          1           0       -1.637660   -2.439589   -2.478495
     38          1           0       -3.411842   -0.772002   -1.886338
     39          1           0       -3.678756    2.369861    1.846751
     40          1           0       -6.116273    0.221262    1.365958
     41          1           0       -4.909302   -0.994502    1.869616
     42          1           0       -5.565553   -1.001548    0.202952
     43          1           0       -4.088010    2.153226   -1.112791
 ---------------------------------------------------------------------
                    Distance matrix (angstroms):
                    1          2          3          4          5
     1  O    0.000000
     2  C    1.211921   0.000000
     3  N    2.239166   1.361184   0.000000
     4  C    3.577459   2.510205   1.398342   0.000000
     5  C    4.597722   3.669118   2.398959   1.394505   0.000000
     6  C    5.887036   4.868704   3.669206   2.407623   1.379697
     7  C    6.328109   5.190309   4.180896   2.783210   2.398369
     8  Cl   8.038010   6.886292   5.899838   4.502764   3.971189
     9  C    5.649264   4.465413   3.715256   2.421927   2.785652
    10  C    6.595309   5.414465   4.914189   3.758464   4.260684
    11  C    6.600250   5.446666   5.277297   4.340029   5.076592
    12  C    7.779805   6.671060   6.595866   5.697389   6.428134
    13  C    8.759390   7.641568   7.407832   6.394879   6.981757
    14  C    8.665687   7.528850   7.064992   5.929550   6.330846
    15  N    7.694604   6.542137   5.934404   4.729603   5.042243
    16  C    4.275339   3.101166   2.445942   1.389634   2.398189
    17  C    2.372501   1.499303   2.445152   2.979652   4.266648
    18  C    3.451806   2.534503   3.119618   3.236680   4.294058
    19  Cl   3.931267   3.075465   3.162841   3.123307   3.660876
    20  C    4.655809   3.802618   4.421782   4.349098   5.381943
    21  C    3.013565   2.484119   3.501975   4.007289   5.379354
    22  C    4.337662   3.765344   4.695083   4.944939   6.278540
    23  C    4.994027   4.260245   5.046401   5.064384   6.257711
    24  S    6.783996   6.070616   6.807905   6.675392   7.794007
    25  N    7.412818   6.541908   7.049244   6.662888   7.580714
    26  C    7.123067   6.661806   7.627822   7.759634   8.896544
    27  N    7.438857   6.786064   7.538398   7.422120   8.621397
    28  H    2.390680   1.993174   1.014067   2.050700   2.555100
    29  H    4.599176   3.890617   2.611385   2.145662   1.079852
    30  H    6.727581   5.778973   4.535021   3.386678   2.137579
    31  H    5.912099   4.779887   4.786755   4.020197   4.876646
    32  H    8.069043   7.016893   7.127305   6.360471   7.179455
    33  H    9.713178   8.620245   8.445082   7.462045   8.059738
    34  H    9.558444   8.437901   7.896712   6.733525   7.024649
    35  H    4.029169   2.904846   2.702299   2.147524   3.380974
    36  H    5.560107   4.689241   5.169256   4.932477   5.774450
    37  H    2.869569   2.650098   3.673170   4.362778   5.742568
    38  H    5.089752   4.639856   5.582710   5.843838   7.200032
    39  H    8.405713   7.524814   7.994990   7.535996   8.407055
    40  H    8.205436   7.735491   8.675862   8.746018   9.856678
    41  H    6.853182   6.413640   7.373104   7.541732   8.597765
    42  H    6.779370   6.462015   7.543575   7.833205   9.056989
    43  H    7.802823   7.054948   7.660510   7.393148   8.548635
                    6          7          8          9         10
     6  C    0.000000
     7  C    1.387161   0.000000
     8  Cl   2.683116   1.720342   0.000000
     9  C    2.413273   1.394467   2.710623   0.000000
    10  C    3.779405   2.512584   3.064875   1.475682   0.000000
    11  C    4.793199   3.631386   4.190708   2.484636   1.394879
    12  C    6.052702   4.796826   5.011297   3.743780   2.388804
    13  C    6.418539   5.067402   4.933322   4.196613   2.721108
    14  C    5.629070   4.270365   3.984155   3.616004   2.275980
    15  N    4.336075   3.001562   2.962219   2.401297   1.327713
    16  C    2.766021   2.397331   3.991305   1.390267   2.469710
    17  C    5.197953   5.161429   6.733454   4.178161   4.790090
    18  C    5.009046   4.885356   6.302873   4.007969   4.546524
    19  Cl   4.348485   4.563160   5.922285   4.168957   5.039974
    20  C    5.860878   5.454610   6.635880   4.454582   4.562801
    21  C    6.226389   5.990135   7.482553   4.807537   5.085753
    22  C    6.926727   6.458744   7.761521   5.180565   5.094606
    23  C    6.744159   6.196330   7.348059   4.998935   4.822021
    24  S    8.078180   7.324786   8.185448   6.127224   5.563562
    25  N    7.644904   6.808113   7.428454   5.774096   5.131366
    26  C    9.350616   8.770026   9.739113   7.625506   7.247904
    27  N    8.889576   8.035455   8.851174   6.733567   5.974658
    28  H    3.920114   4.691202   6.381894   4.452964   5.743424
    29  H    2.133770   3.375971   4.816391   3.865498   5.340453
    30  H    1.078291   2.135148   2.809980   3.386058   4.645236
    31  H    4.815198   3.866273   4.687129   2.704871   2.156119
    32  H    6.900128   5.702994   5.960994   4.617860   3.372081
    33  H    7.474458   6.112029   5.844508   5.274260   3.799129
    34  H    6.224317   4.895239   4.351967   4.433193   3.230870
    35  H    3.842826   3.366482   4.835275   2.125231   2.640529
    36  H    6.080527   5.623063   6.603429   4.770305   4.789895
    37  H    6.675160   6.511078   8.049262   5.343169   5.661599
    38  H    7.814832   7.264810   8.500062   5.928784   5.662009
    39  H    8.361242   7.431620   7.867351   6.432395   5.623095
    40  H   10.233091   9.577935  10.428903   8.440395   7.935003
    41  H    9.087894   8.622127   9.623893   7.584219   7.370296
    42  H    9.630245   9.108343  10.198437   7.903825   7.588613
    43  H    8.691630   7.722956   8.409439   6.416890   5.484698
                   11         12         13         14         15
    11  C    0.000000
    12  C    1.383433   0.000000
    13  C    2.385296   1.386186   0.000000
    14  C    2.706269   2.377358   1.387421   0.000000
    15  N    2.385603   2.769117   2.384364   1.318870   0.000000
    16  C    3.014475   4.343924   5.031142   4.642898   3.525285
    17  C    4.472704   5.587802   6.700636   6.829061   6.017289
    18  C    4.056219   5.179728   6.402200   6.634591   5.863268
    19  Cl   4.836646   6.075986   7.207151   7.252356   6.319041
    20  C    3.680855   4.532905   5.872406   6.380872   5.856828
    21  C    4.582813   5.449984   6.545027   6.828091   6.214258
    22  C    4.249309   4.834680   6.022240   6.575561   6.201873
    23  C    3.769535   4.325155   5.654390   6.332910   6.008125
    24  S    4.249758   4.247201   5.547709   6.555240   6.578623
    25  N    3.782153   3.717526   5.028421   6.058248   6.117088
    26  C    5.982518   6.066111   7.371192   8.371866   8.333824
    27  N    4.691013   4.374553   5.468301   6.565533   6.792695
    28  H    6.221264   7.548714   8.299193   7.859077   6.675651
    29  H    6.126974   7.488410   8.061485   7.397611   6.100952
    30  H    5.701076   6.903215   7.173195   6.300185   5.036089
    31  H    1.078629   2.144064   3.370643   3.784231   3.355083
    32  H    2.136716   1.080374   2.155280   3.371647   3.849327
    33  H    3.375108   2.154260   1.078860   2.148490   3.349397
    34  H    3.787622   3.372935   2.157282   1.082372   2.031920
    35  H    2.799420   4.008824   4.807395   4.637567   3.725203
    36  H    3.833436   4.576101   5.928188   6.509356   6.055183
    37  H    5.305528   6.129239   7.101009   7.296141   6.674880
    38  H    4.762520   5.095299   6.192209   6.848190   6.639348
    39  H    4.253218   3.876204   5.050098   6.211263   6.461589
    40  H    6.606324   6.494967   7.740035   8.850500   8.947290
    41  H    6.166205   6.426000   7.783625   8.701569   8.539204
    42  H    6.391243   6.525415   7.796926   8.745015   8.669902
    43  H    4.221836   3.679609   4.639495   5.787591   6.153209
                   16         17         18         19         20
    16  C    0.000000
    17  C    2.939912   0.000000
    18  C    3.078759   1.395103   0.000000
    19  Cl   3.453949   2.713405   1.726034   0.000000
    20  C    3.820927   2.414103   1.386164   2.689125   0.000000
    21  C    3.645853   1.391822   2.405272   4.000174   2.779953
    22  C    4.285194   2.408241   2.776379   4.502216   2.411836
    23  C    4.337385   2.761469   2.383439   3.969561   1.380852
    24  S    5.768559   4.572226   4.056839   5.445101   2.768685
    25  N    5.713729   5.086973   4.219509   5.236633   2.868169
    26  C    7.081149   5.228433   4.736973   6.029093   3.553976
    27  N    6.393957   5.342632   5.154318   6.692633   4.026979
    28  H    3.290343   3.332564   4.018570   3.816667   5.362404
    29  H    3.378002   4.761789   4.850650   4.002462   6.055288
    30  H    3.844272   6.194751   5.947622   5.083632   6.799952
    31  H    2.835302   3.664910   3.078473   3.951923   2.611233
    32  H    5.047407   5.775657   5.284042   6.301695   4.385001
    33  H    6.091126   7.619195   7.315712   8.179400   6.666169
    34  H    5.507305   7.820361   7.678764   8.250618   7.460070
    35  H    1.077909   2.416449   2.802391   3.707425   3.376604
    36  H    4.395404   3.401498   2.158361   2.857191   1.077978
    37  H    4.114349   2.132101   3.376988   4.844251   3.859171
    38  H    5.100219   3.397254   3.855279   5.580981   3.377241
    39  H    6.517502   6.071161   5.214175   6.169720   3.871404
    40  H    8.001091   6.290335   5.752614   6.981566   4.505790
    41  H    7.009405   5.040242   4.368651   5.442025   3.250278
    42  H    7.210986   5.099144   4.888307   6.318619   3.898613
    43  H    6.240409   5.653266   5.485253   6.985546   4.409699
                   21         22         23         24         25
    21  C    0.000000
    22  C    1.383034   0.000000
    23  C    2.384426   1.381983   0.000000
    24  S    4.047993   2.757236   1.812209   0.000000
    25  N    4.926461   3.835497   2.592885   1.536615   0.000000
    26  C    4.692295   3.499128   2.765595   1.826069   2.837332
    27  N    4.475510   3.109264   2.795325   1.535040   2.724227
    28  H    4.348916   5.610295   6.011806   7.790053   8.038881
    29  H    5.948402   6.962854   6.987441   8.597028   8.424780
    30  H    7.271906   7.981152   7.749756   9.049325   8.524204
    31  H    3.866631   3.502512   2.846532   3.529942   3.103166
    32  H    5.509675   4.650896   4.002928   3.508526   2.948051
    33  H    7.352159   6.700836   6.324259   5.944961   5.426842
    34  H    7.800250   7.578512   7.391504   7.569830   7.072809
    35  H    2.768813   3.340996   3.585683   5.029380   5.206856
    36  H    3.857529   3.377826   2.126637   2.874411   2.448681
    37  H    1.079374   2.146788   3.370974   4.903581   5.896411
    38  H    2.156955   1.079336   2.126263   2.850728   4.171156
    39  H    5.850623   4.695940   3.534180   2.157622   1.006484
    40  H    5.725924   4.476499   3.733156   2.397993   3.157520
    41  H    4.770185   3.779305   2.877400   2.400902   3.011018
    42  H    4.355678   3.209410   2.916894   2.380648   3.692787
    43  H    4.813170   3.535204   3.266532   2.158786   2.926621
                   26         27         28         29         30
    26  C    0.000000
    27  N    2.606246   0.000000
    28  H    8.533428   8.517785   0.000000
    29  H    9.563151   9.473248   2.357806   0.000000
    30  H   10.303914   9.901413   4.618771   2.461934   0.000000
    31  H    5.148128   4.246942   5.771090   5.859403   5.764328
    32  H    5.305656   3.575739   8.116361   8.211411   7.767994
    33  H    7.737130   5.676878   9.345368   9.139533   8.199461
    34  H    9.392891   7.483431   8.631225   8.064453   6.786445
    35  H    6.344985   5.512312   3.643786   4.277271   4.920874
    36  H    3.604458   4.315992   6.080726   6.450203   6.931634
    37  H    5.469371   5.083139   4.371843   6.236207   7.714093
    38  H    3.501107   2.659152   6.467710   7.905680   8.882739
    39  H    3.290361   2.942205   8.990076   9.283932   9.206209
    40  H    1.083473   2.859472   9.593469  10.552760  11.170402
    41  H    1.083276   3.535350   8.237537   9.189028   9.992498
    42  H    1.081860   2.722855   8.410675   9.684195  10.622012
    43  H    3.546119   1.006712   8.653185   9.467034   9.692082
                   31         32         33         34         35
    31  H    0.000000
    32  H    2.469230   0.000000
    33  H    4.281547   2.508677   0.000000
    34  H    4.865005   4.291756   2.499033   0.000000
    35  H    2.530475   4.588112   5.808987   5.553735   0.000000
    36  H    2.782134   4.338394   6.673317   7.586425   4.124763
    37  H    4.725837   6.245498   7.885273   8.197600   3.222903
    38  H    4.167736   4.803962   6.738536   7.796758   4.079972
    39  H    3.771283   2.946872   5.260103   7.158015   6.025876
    40  H    5.853963   5.613197   7.972912   9.835802   7.269786
    41  H    5.225452   5.744702   8.240297   9.754379   6.389617
    42  H    5.573985   5.829894   8.179135   9.753207   6.382020
    43  H    4.001911   2.873423   4.761089   6.650383   5.380842
                   36         37         38         39         40
    36  H    0.000000
    37  H    4.936851   0.000000
    38  H    4.247491   2.505836   0.000000
    39  H    3.385336   6.782672   4.886564   0.000000
    40  H    4.405342   6.474405   4.344877   3.284682   0.000000
    41  H    3.147217   5.630096   4.049578   3.582417   1.785646
    42  H    4.211652   4.968548   3.009368   4.198628   1.775144
    43  H    4.675302   5.381757   3.100410   2.995548   3.740392
                   41         42         43
    41  H    0.000000
    42  H    1.791224   0.000000
    43  H    4.413328   3.723830   0.000000
 Stoichiometry    C19H16Cl2N4OS
 Framework group  C1[X(C19H16Cl2N4OS)]
 Deg. of freedom   123
 Full point group                 C1      NOp   1
 Largest Abelian subgroup         C1      NOp   1
 Largest concise Abelian subgroup C1      NOp   1
                         Standard orientation:                         
 ---------------------------------------------------------------------
 Center     Atomic      Atomic             Coordinates (Angstroms)
 Number     Number       Type             X           Y           Z
 ---------------------------------------------------------------------
      1          8           0       -0.400538   -4.408327   -1.451256
      2          6           0        0.009483   -3.346373   -1.035456
      3          7           0        1.344918   -3.113440   -0.912263
      4          6           0        2.041315   -1.973670   -0.498359
      5          6           0        3.270623   -2.142138    0.138088
      6          6           0        3.988136   -1.046819    0.572847
      7          6           0        3.489614    0.233641    0.382814
      8         17           0        4.380482    1.574585    0.989281
      9          6           0        2.272132    0.426320   -0.269222
     10          6           0        1.693740    1.768600   -0.472648
     11          6           0        0.364706    2.012090   -0.126139
     12          6           0       -0.146256    3.283805   -0.314679
     13          6           0        0.675616    4.263824   -0.849096
     14          6           0        1.982312    3.918297   -1.162297
     15          7           0        2.480333    2.710955   -0.978672
     16          6           0        1.571007   -0.685380   -0.722420
     17          6           0       -0.922914   -2.240055   -0.642259
     18          6           0       -0.972506   -1.736279    0.657765
     19         17           0        0.060837   -2.377088    1.882819
     20          6           0       -1.848905   -0.712245    0.981390
     21          6           0       -1.805215   -1.746241   -1.598743
     22          6           0       -2.677120   -0.719908   -1.283771
     23          6           0       -2.679084   -0.208011   -0.000091
     24         16           0       -3.773031    1.185731    0.380522
     25          7           0       -3.021996    1.842753    1.549049
     26          6           0       -5.267475    0.251634    0.858674
     27          7           0       -4.265495    1.921360   -0.873542
     28          1           0        1.911990   -3.939880   -1.066394
     29          1           0        3.657669   -3.137131    0.300152
     30          1           0        4.934395   -1.178997    1.072681
     31          1           0       -0.244189    1.234145    0.306862
     32          1           0       -1.167656    3.498437   -0.035608
     33          1           0        0.317665    5.268330   -1.012727
     34          1           0        2.669738    4.642681   -1.579719
     35          1           0        0.658158   -0.524838   -1.272712
     36          1           0       -1.880245   -0.282275    1.969408
     37          1           0       -1.781068   -2.166500   -2.592648
     38          1           0       -3.346901   -0.296798   -2.016804
     39          1           0       -3.355145    2.759925    1.795661
     40          1           0       -6.028880    0.960277    1.161986
     41          1           0       -5.010705   -0.414640    1.673312
     42          1           0       -5.594642   -0.294856   -0.015815
     43          1           0       -3.669388    2.671658   -1.182051
 ---------------------------------------------------------------------
 Rotational constants (GHZ):           0.1984832           0.1423965           0.0967485
 Standard basis: def2SVP (5D, 7F)
 There are   497 symmetry adapted cartesian basis functions of A   symmetry.
 There are   470 symmetry adapted basis functions of A   symmetry.
   470 basis functions,   823 primitive gaussians,   497 cartesian basis functions
   108 alpha electrons      108 beta electrons
       nuclear repulsion energy      2998.1998803428 Hartrees.
 NAtoms=   43 NActive=   43 NUniq=   43 SFac= 1.00D+00 NAtFMM=   60 NAOKFM=F Big=F
 Integral buffers will be    131072 words long.
 Raffenetti 2 integral format.
 Two-electron integral symmetry is turned on.
 Nuclear repulsion after empirical dispersion term =     2998.1324363605 Hartrees.
 One-electron integrals computed using PRISM.
   1 Symmetry operations used in ECPInt.
 ECPInt:  NShTT=   23436 NPrTT=   89682 LenC2=   20634 LenP2D=   52165.
 LDataN:  DoStor=T MaxTD1= 4 Len=   56
 NBasis=   470 RedAO= T EigKep=  1.80D-04  NBF=   470
 NBsUse=   470 1.00D-06 EigRej= -1.00D+00 NBFU=   470
 ExpMin= 1.22D-01 ExpMax= 1.04D+04 ExpMxC= 1.57D+03 IAcc=3 IRadAn=         5 AccDes= 0.00D+00
 Harris functional with IExCor= 1009 and IRadAn=       5 diagonalized for initial guess.
 HarFok:  IExCor= 1009 AccDes= 0.00D+00 IRadAn=         5 IDoV= 1 UseB2=F ITyADJ=14
 ICtDFT=  3500011 ScaDFX=  1.000000  1.000000  1.000000  1.000000
 FoFCou: FMM=F IPFlag=           0 FMFlag=      100000 FMFlg1=           0
         NFxFlg=           0 DoJE=T BraDBF=F KetDBF=T FulRan=T
         wScrn=  0.000000 ICntrl=       500 IOpCl=  0 I1Cent=   200000004 NGrid=           0
         NMat0=    1 NMatS0=      1 NMatT0=    0 NMatD0=    1 NMtDS0=    0 NMtDT0=    0
 Petite list used in FoFCou.
 Requested convergence on RMS density matrix=1.00D-08 within 128 cycles.
 Requested convergence on MAX density matrix=1.00D-06.
 Requested convergence on             energy=1.00D-06.
 No special actions if energy rises.
 Integral accuracy reduced to 1.0D-05 until final iterations.
 Initial convergence to 1.0D-05 achieved.  Increase integral accuracy.
 SCF Done:  E(RPBE1PBE) =  -2343.64801458     A.U. after   16 cycles
            NFock= 16  Conv=0.24D-08     -V/T= 2.0050

 **********************************************************************

            Population analysis using the SCF Density.

 **********************************************************************

 Orbital symmetries:
       Occupied  (A) (A) (A) (A) (A) (A) (A) (A) (A) (A) (A) (A)
                 (A) (A) (A) (A) (A) (A) (A) (A) (A) (A) (A) (A)
                 (A) (A) (A) (A) (A) (A) (A) (A) (A) (A) (A) (A)
                 (A) (A) (A) (A) (A) (A) (A) (A) (A) (A) (A) (A)
                 (A) (A) (A) (A) (A) (A) (A) (A) (A) (A) (A) (A)
                 (A) (A) (A) (A) (A) (A) (A) (A) (A) (A) (A) (A)
                 (A) (A) (A) (A) (A) (A) (A) (A) (A) (A) (A) (A)
                 (A) (A) (A) (A) (A) (A) (A) (A) (A) (A) (A) (A)
                 (A) (A) (A) (A) (A) (A) (A) (A) (A) (A) (A) (A)
       Virtual   (A) (A) (A) (A) (A) (A) (A) (A) (A) (A) (A) (A)
                 (A) (A) (A) (A) (A) (A) (A) (A) (A) (A) (A) (A)
                 (A) (A) (A) (A) (A) (A) (A) (A) (A) (A) (A) (A)
                 (A) (A) (A) (A) (A) (A) (A) (A) (A) (A) (A) (A)
                 (A) (A) (A) (A) (A) (A) (A) (A) (A) (A) (A) (A)
                 (A) (A) (A) (A) (A) (A) (A) (A) (A) (A) (A) (A)
                 (A) (A) (A) (A) (A) (A) (A) (A) (A) (A) (A) (A)
                 (A) (A) (A) (A) (A) (A) (A) (A) (A) (A) (A) (A)
                 (A) (A) (A) (A) (A) (A) (A) (A) (A) (A) (A) (A)
                 (A) (A) (A) (A) (A) (A) (A) (A) (A) (A) (A) (A)
                 (A) (A) (A) (A) (A) (A) (A) (A) (A) (A) (A) (A)
                 (A) (A) (A) (A) (A) (A) (A) (A) (A) (A) (A) (A)
                 (A) (A) (A) (A) (A) (A) (A) (A) (A) (A) (A) (A)
                 (A) (A) (A) (A) (A) (A) (A) (A) (A) (A) (A) (A)
                 (A) (A) (A) (A) (A) (A) (A) (A) (A) (A) (A) (A)
                 (A) (A) (A) (A) (A) (A) (A) (A) (A) (A) (A) (A)
                 (A) (A) (A) (A) (A) (A) (A) (A) (A) (A) (A) (A)
                 (A) (A) (A) (A) (A) (A) (A) (A) (A) (A) (A) (A)
                 (A) (A) (A) (A) (A) (A) (A) (A) (A) (A) (A) (A)
                 (A) (A) (A) (A) (A) (A) (A) (A) (A) (A) (A) (A)
                 (A) (A) (A) (A) (A) (A) (A) (A) (A) (A) (A) (A)
                 (A) (A) (A) (A) (A) (A) (A) (A) (A) (A) (A) (A)
                 (A) (A) (A) (A) (A) (A) (A) (A) (A) (A) (A) (A)
                 (A) (A) (A) (A) (A) (A) (A) (A) (A) (A) (A) (A)
                 (A) (A) (A) (A) (A) (A) (A) (A) (A) (A) (A) (A)
                 (A) (A) (A) (A) (A) (A) (A) (A) (A) (A) (A) (A)
                 (A) (A) (A) (A) (A) (A) (A) (A) (A) (A) (A) (A)
                 (A) (A) (A) (A) (A) (A) (A) (A) (A) (A) (A) (A)
                 (A) (A) (A) (A) (A) (A) (A) (A) (A) (A) (A) (A)
                 (A) (A) (A) (A) (A) (A) (A) (A) (A) (A) (A) (A)
                 (A) (A)
 The electronic state is 1-A.
 Alpha  occ. eigenvalues -- -101.70033-101.67363 -89.20023 -19.19408 -14.44431
 Alpha  occ. eigenvalues --  -14.38445 -14.36434 -14.36067 -10.35589 -10.32323
 Alpha  occ. eigenvalues --  -10.29666 -10.29455 -10.28589 -10.28249 -10.27948
 Alpha  occ. eigenvalues --  -10.27397 -10.27384 -10.27182 -10.27169 -10.26790
 Alpha  occ. eigenvalues --  -10.25944 -10.25437 -10.25409 -10.25345 -10.25145
 Alpha  occ. eigenvalues --  -10.24592 -10.24410  -9.55205  -9.52588  -8.17432
 Alpha  occ. eigenvalues --   -7.29342  -7.28360  -7.28315  -7.26726  -7.25748
 Alpha  occ. eigenvalues --   -7.25685  -6.11568  -6.11473  -6.11432  -1.08096
 Alpha  occ. eigenvalues --   -1.02333  -0.98108  -0.97579  -0.94342  -0.91730
 Alpha  occ. eigenvalues --   -0.88771  -0.87085  -0.85954  -0.82631  -0.82212
 Alpha  occ. eigenvalues --   -0.81547  -0.78326  -0.77827  -0.76837  -0.75410
 Alpha  occ. eigenvalues --   -0.70826  -0.67625  -0.65922  -0.65725  -0.64927
 Alpha  occ. eigenvalues --   -0.63107  -0.62758  -0.60611  -0.58083  -0.56342
 Alpha  occ. eigenvalues --   -0.55577  -0.53415  -0.52818  -0.51980  -0.51122
 Alpha  occ. eigenvalues --   -0.50854  -0.49254  -0.49033  -0.48689  -0.48289
 Alpha  occ. eigenvalues --   -0.47238  -0.47010  -0.46186  -0.45416  -0.45241
 Alpha  occ. eigenvalues --   -0.45183  -0.44397  -0.43878  -0.42896  -0.42172
 Alpha  occ. eigenvalues --   -0.41984  -0.41278  -0.40376  -0.39916  -0.39386
 Alpha  occ. eigenvalues --   -0.37731  -0.37564  -0.36384  -0.36037  -0.34072
 Alpha  occ. eigenvalues --   -0.32416  -0.31228  -0.31109  -0.30307  -0.29721
 Alpha  occ. eigenvalues --   -0.28958  -0.28511  -0.28046  -0.27485  -0.26654
 Alpha  occ. eigenvalues --   -0.26162  -0.25959  -0.23678
 Alpha virt. eigenvalues --   -0.06209  -0.04632  -0.03845  -0.02122  -0.01849
 Alpha virt. eigenvalues --    0.00712   0.03137   0.03442   0.05031   0.05581
 Alpha virt. eigenvalues --    0.06763   0.07406   0.07829   0.08002   0.08930
 Alpha virt. eigenvalues --    0.09458   0.10097   0.10744   0.11567   0.11883
 Alpha virt. eigenvalues --    0.12431   0.12710   0.13490   0.14095   0.14762
 Alpha virt. eigenvalues --    0.15497   0.15789   0.16515   0.17210   0.17725
 Alpha virt. eigenvalues --    0.18226   0.19895   0.21558   0.22706   0.23955
 Alpha virt. eigenvalues --    0.25439   0.26743   0.26797   0.27355   0.28005
 Alpha virt. eigenvalues --    0.28979   0.29278   0.29988   0.30367   0.30647
 Alpha virt. eigenvalues --    0.31621   0.32281   0.33042   0.33348   0.34809
 Alpha virt. eigenvalues --    0.36100   0.37469   0.38513   0.38946   0.39445
 Alpha virt. eigenvalues --    0.39627   0.40430   0.41072   0.41701   0.42171
 Alpha virt. eigenvalues --    0.42660   0.43921   0.44871   0.44913   0.46181
 Alpha virt. eigenvalues --    0.46525   0.46991   0.47151   0.48021   0.48185
 Alpha virt. eigenvalues --    0.49324   0.49417   0.50438   0.50540   0.50889
 Alpha virt. eigenvalues --    0.51983   0.53068   0.53777   0.54842   0.55788
 Alpha virt. eigenvalues --    0.55976   0.57128   0.57895   0.58253   0.58838
 Alpha virt. eigenvalues --    0.59088   0.59609   0.60069   0.61025   0.62047
 Alpha virt. eigenvalues --    0.62139   0.62918   0.63448   0.63714   0.63933
 Alpha virt. eigenvalues --    0.64144   0.64904   0.65274   0.65679   0.66640
 Alpha virt. eigenvalues --    0.66799   0.67012   0.67223   0.67325   0.68082
 Alpha virt. eigenvalues --    0.68420   0.68746   0.68936   0.69178   0.69733
 Alpha virt. eigenvalues --    0.70233   0.70459   0.70654   0.71162   0.71669
 Alpha virt. eigenvalues --    0.71937   0.73079   0.73278   0.73749   0.74483
 Alpha virt. eigenvalues --    0.74671   0.74804   0.76317   0.77097   0.77398
 Alpha virt. eigenvalues --    0.77670   0.78899   0.79676   0.80145   0.80514
 Alpha virt. eigenvalues --    0.80610   0.81801   0.82131   0.82703   0.83684
 Alpha virt. eigenvalues --    0.83793   0.84890   0.84954   0.86204   0.86842
 Alpha virt. eigenvalues --    0.87731   0.88243   0.88947   0.89089   0.90458
 Alpha virt. eigenvalues --    0.91112   0.91446   0.92758   0.94310   0.94562
 Alpha virt. eigenvalues --    0.95258   0.96038   0.96538   0.98214   0.98757
 Alpha virt. eigenvalues --    1.00222   1.00743   1.01726   1.02341   1.03970
 Alpha virt. eigenvalues --    1.04323   1.04917   1.06704   1.07699   1.09044
 Alpha virt. eigenvalues --    1.09812   1.11651   1.12466   1.13190   1.14362
 Alpha virt. eigenvalues --    1.15123   1.15830   1.16080   1.17870   1.18765
 Alpha virt. eigenvalues --    1.19673   1.20463   1.20834   1.22314   1.22995
 Alpha virt. eigenvalues --    1.23203   1.23730   1.24568   1.25140   1.25944
 Alpha virt. eigenvalues --    1.26256   1.27020   1.27411   1.28486   1.29332
 Alpha virt. eigenvalues --    1.30459   1.31325   1.33307   1.34141   1.34611
 Alpha virt. eigenvalues --    1.36054   1.37867   1.38861   1.41217   1.41640
 Alpha virt. eigenvalues --    1.42506   1.44136   1.44654   1.47156   1.47540
 Alpha virt. eigenvalues --    1.47850   1.49215   1.49891   1.50407   1.50992
 Alpha virt. eigenvalues --    1.51527   1.53600   1.55048   1.56722   1.61913
 Alpha virt. eigenvalues --    1.63613   1.64156   1.64372   1.68433   1.69152
 Alpha virt. eigenvalues --    1.69573   1.69922   1.71893   1.72836   1.73026
 Alpha virt. eigenvalues --    1.73331   1.73849   1.74757   1.75354   1.75571
 Alpha virt. eigenvalues --    1.76001   1.76303   1.76707   1.76992   1.77679
 Alpha virt. eigenvalues --    1.78734   1.79659   1.80572   1.81298   1.82169
 Alpha virt. eigenvalues --    1.82974   1.83300   1.83791   1.85091   1.86672
 Alpha virt. eigenvalues --    1.86958   1.87079   1.88014   1.89728   1.91416
 Alpha virt. eigenvalues --    1.92143   1.93001   1.93680   1.95156   1.95932
 Alpha virt. eigenvalues --    1.96779   1.98212   1.98578   1.99713   1.99851
 Alpha virt. eigenvalues --    2.00218   2.00929   2.01382   2.03619   2.06482
 Alpha virt. eigenvalues --    2.07627   2.09037   2.10175   2.11532   2.12523
 Alpha virt. eigenvalues --    2.13103   2.14067   2.14690   2.15461   2.15910
 Alpha virt. eigenvalues --    2.18033   2.18074   2.18471   2.20175   2.21393
 Alpha virt. eigenvalues --    2.22754   2.24985   2.25344   2.27289   2.28407
 Alpha virt. eigenvalues --    2.29147   2.29894   2.30238   2.31063   2.31774
 Alpha virt. eigenvalues --    2.31987   2.33735   2.34858   2.34964   2.36202
 Alpha virt. eigenvalues --    2.38371   2.39023   2.39621   2.42067   2.42291
 Alpha virt. eigenvalues --    2.43007   2.43994   2.44962   2.47310   2.49264
 Alpha virt. eigenvalues --    2.52050   2.53005   2.54113   2.54515   2.56120
 Alpha virt. eigenvalues --    2.57102   2.57721   2.59448   2.59683   2.61067
 Alpha virt. eigenvalues --    2.62283   2.63138   2.63800   2.66014   2.66940
 Alpha virt. eigenvalues --    2.67759   2.69308   2.70191   2.71464   2.73011
 Alpha virt. eigenvalues --    2.73516   2.77202   2.78359   2.81028   2.83500
 Alpha virt. eigenvalues --    2.83977   2.84675   2.85086   2.85489   2.86712
 Alpha virt. eigenvalues --    2.87216   2.89040   2.90734   2.92208   2.93870
 Alpha virt. eigenvalues --    2.94159   2.94930   2.96419   2.98544   3.03358
 Alpha virt. eigenvalues --    3.07031   3.08558   3.09529   3.13358   3.16277
 Alpha virt. eigenvalues --    3.16785   3.20502   3.22640   3.27442   3.31183
 Alpha virt. eigenvalues --    3.40524   3.42518   3.48588   3.55289   3.61312
 Alpha virt. eigenvalues --    3.68214   3.72258
          Condensed to atoms (all electrons):
               1          2          3          4          5          6
     1  O    7.672509   0.768941  -0.110488   0.002310  -0.000053   0.000000
     2  C    0.768941   4.705484   0.330197  -0.028441   0.006260  -0.000412
     3  N   -0.110488   0.330197   6.593186   0.321506  -0.089527   0.008297
     4  C    0.002310  -0.028441   0.321506   5.259819   0.209683   0.135147
     5  C   -0.000053   0.006260  -0.089527   0.209683   5.217654   0.262502
     6  C    0.000000  -0.000412   0.008297   0.135147   0.262502   4.995134
     7  C    0.000000   0.000087   0.000031  -0.192013   0.112509   0.308099
     8  Cl   0.000000  -0.000000   0.000001   0.001145   0.003330  -0.062628
     9  C   -0.000000   0.000390   0.008332   0.127700  -0.154130   0.084419
    10  C    0.000000  -0.000007  -0.000156   0.016050  -0.001706   0.013839
    11  C   -0.000000  -0.000043   0.000006   0.000063   0.000080  -0.000401
    12  C    0.000000  -0.000000  -0.000000  -0.000014   0.000001  -0.000002
    13  C   -0.000000  -0.000000   0.000000   0.000001   0.000000  -0.000003
    14  C   -0.000000   0.000000  -0.000000   0.000004  -0.000002   0.000026
    15  N    0.000000   0.000000   0.000000  -0.000132  -0.000006  -0.000213
    16  C   -0.000109  -0.023324  -0.074680   0.215088   0.059803  -0.121062
    17  C   -0.103124   0.116615  -0.154533   0.002194   0.000348   0.000098
    18  C   -0.003765  -0.069334  -0.007006  -0.006268  -0.001183   0.000289
    19  Cl  -0.000508   0.015056  -0.007095  -0.008732   0.008910  -0.002019
    20  C    0.000013   0.007030  -0.000030  -0.000845  -0.000078   0.000007
    21  C    0.003144  -0.033719   0.001019   0.002164  -0.000029   0.000006
    22  C    0.000376   0.008895  -0.000166  -0.000166   0.000001  -0.000001
    23  C   -0.000057  -0.000143  -0.000044   0.000145  -0.000006   0.000002
    24  S    0.000000   0.000014  -0.000000  -0.000001   0.000000  -0.000000
    25  N    0.000000   0.000000  -0.000000   0.000000  -0.000000   0.000000
    26  C   -0.000000  -0.000001   0.000000  -0.000000  -0.000000   0.000000
    27  N    0.000000   0.000000  -0.000000   0.000000  -0.000000   0.000000
    28  H    0.008545  -0.009428   0.326539  -0.013708  -0.018079   0.000594
    29  H   -0.000062  -0.000499  -0.009867  -0.085449   0.450695  -0.057281
    30  H   -0.000000   0.000001  -0.000133   0.016085  -0.062694   0.443845
    31  H    0.000000  -0.000032   0.000002   0.000059   0.000002   0.000062
    32  H    0.000000  -0.000000   0.000000  -0.000001  -0.000000   0.000000
    33  H   -0.000000  -0.000000  -0.000000   0.000000  -0.000000   0.000000
    34  H    0.000000  -0.000000   0.000000  -0.000000  -0.000000  -0.000000
    35  H   -0.000111  -0.003298  -0.006655  -0.083014   0.016304  -0.003222
    36  H    0.000003  -0.000075   0.000006   0.000059  -0.000005   0.000002
    37  H    0.004152  -0.010555   0.000651   0.000071   0.000001   0.000000
    38  H   -0.000004  -0.000229   0.000003  -0.000001  -0.000000  -0.000000
    39  H   -0.000000  -0.000000   0.000000  -0.000000   0.000000  -0.000000
    40  H    0.000000   0.000000  -0.000000  -0.000000   0.000000  -0.000000
    41  H    0.000000   0.000000  -0.000000   0.000000   0.000000  -0.000000
    42  H    0.000000  -0.000000   0.000000   0.000000  -0.000000   0.000000
    43  H   -0.000000  -0.000000   0.000000  -0.000000   0.000000  -0.000000
               7          8          9         10         11         12
     1  O    0.000000   0.000000  -0.000000   0.000000  -0.000000   0.000000
     2  C    0.000087  -0.000000   0.000390  -0.000007  -0.000043  -0.000000
     3  N    0.000031   0.000001   0.008332  -0.000156   0.000006  -0.000000
     4  C   -0.192013   0.001145   0.127700   0.016050   0.000063  -0.000014
     5  C    0.112509   0.003330  -0.154130  -0.001706   0.000080   0.000001
     6  C    0.308099  -0.062628   0.084419   0.013839  -0.000401  -0.000002
     7  C    5.248329   0.266551   0.255882  -0.088435   0.007697  -0.000341
     8  Cl   0.266551  16.926157  -0.062490   0.003194  -0.002261   0.000206
     9  C    0.255882  -0.062490   5.324023   0.230290  -0.096637   0.010027
    10  C   -0.088435   0.003194   0.230290   5.228447   0.370589  -0.005599
    11  C    0.007697  -0.002261  -0.096637   0.370589   5.052423   0.421726
    12  C   -0.000341   0.000206   0.010027  -0.005599   0.421726   4.911800
    13  C    0.000125  -0.000403   0.002406  -0.081820   0.023878   0.364975
    14  C    0.000478   0.002309   0.007437  -0.046198  -0.088341   0.001913
    15  N   -0.003619  -0.011149  -0.092031   0.529594  -0.040236  -0.049556
    16  C    0.072998   0.002410   0.369143  -0.080807  -0.019315   0.001385
    17  C    0.000016   0.000000  -0.001718  -0.000172  -0.000278   0.000026
    18  C   -0.000342   0.000001   0.002543   0.000146   0.000103  -0.000012
    19  Cl   0.000864  -0.000001  -0.000962  -0.000258  -0.000041  -0.000001
    20  C   -0.000036  -0.000000   0.000809  -0.000797   0.002240   0.000525
    21  C   -0.000027   0.000000  -0.000135   0.000113   0.000335  -0.000039
    22  C    0.000004   0.000000  -0.000075  -0.000080   0.000508   0.000133
    23  C   -0.000005  -0.000000  -0.000050  -0.000145   0.001115   0.000501
    24  S    0.000000   0.000000  -0.000001   0.000047  -0.000301  -0.000855
    25  N   -0.000000  -0.000000  -0.000016   0.000302  -0.003725  -0.006282
    26  C   -0.000000  -0.000000  -0.000000   0.000001  -0.000036  -0.000029
    27  N   -0.000000  -0.000000   0.000000  -0.000003  -0.000076   0.000026
    28  H   -0.000008  -0.000000  -0.000239   0.000011   0.000000   0.000000
    29  H    0.016421  -0.000165  -0.002279   0.000052  -0.000002   0.000000
    30  H   -0.074487   0.003080   0.018402  -0.000266   0.000014  -0.000000
    31  H    0.000023   0.000000  -0.018995  -0.039301   0.413000  -0.057476
    32  H   -0.000002   0.000000  -0.000565   0.016263  -0.065574   0.417032
    33  H   -0.000002  -0.000001   0.000100   0.000722   0.011796  -0.058731
    34  H   -0.000039   0.000229  -0.000498   0.006922   0.001031   0.006641
    35  H    0.020425  -0.000107  -0.061291  -0.024189   0.006949   0.000001
    36  H   -0.000011  -0.000000  -0.000017   0.000067  -0.000908   0.000006
    37  H   -0.000001  -0.000000  -0.000000   0.000006  -0.000004  -0.000000
    38  H    0.000000   0.000000   0.000003  -0.000002   0.000015   0.000011
    39  H    0.000000   0.000000   0.000001  -0.000016   0.000189   0.000251
    40  H    0.000000   0.000000   0.000000  -0.000000   0.000001   0.000001
    41  H    0.000000   0.000000   0.000000  -0.000000   0.000002   0.000001
    42  H    0.000000   0.000000   0.000000  -0.000000   0.000002   0.000002
    43  H    0.000000  -0.000000  -0.000001   0.000014  -0.000105  -0.000466
              13         14         15         16         17         18
     1  O   -0.000000  -0.000000   0.000000  -0.000109  -0.103124  -0.003765
     2  C   -0.000000   0.000000   0.000000  -0.023324   0.116615  -0.069334
     3  N    0.000000  -0.000000   0.000000  -0.074680  -0.154533  -0.007006
     4  C    0.000001   0.000004  -0.000132   0.215088   0.002194  -0.006268
     5  C    0.000000  -0.000002  -0.000006   0.059803   0.000348  -0.001183
     6  C   -0.000003   0.000026  -0.000213  -0.121062   0.000098   0.000289
     7  C    0.000125   0.000478  -0.003619   0.072998   0.000016  -0.000342
     8  Cl  -0.000403   0.002309  -0.011149   0.002410   0.000000   0.000001
     9  C    0.002406   0.007437  -0.092031   0.369143  -0.001718   0.002543
    10  C   -0.081820  -0.046198   0.529594  -0.080807  -0.000172   0.000146
    11  C    0.023878  -0.088341  -0.040236  -0.019315  -0.000278   0.000103
    12  C    0.364975   0.001913  -0.049556   0.001385   0.000026  -0.000012
    13  C    5.072131   0.403354  -0.033167  -0.000136  -0.000001  -0.000001
    14  C    0.403354   4.741493   0.526129  -0.000139   0.000000  -0.000000
    15  N   -0.033167   0.526129   6.344048  -0.001328  -0.000001  -0.000000
    16  C   -0.000136  -0.000139  -0.001328   5.154930   0.002271  -0.009836
    17  C   -0.000001   0.000000  -0.000001   0.002271   6.024145   0.188706
    18  C   -0.000001  -0.000000  -0.000000  -0.009836   0.188706   5.283035
    19  Cl   0.000000  -0.000000  -0.000000   0.000908  -0.091234   0.296981
    20  C   -0.000027   0.000001  -0.000003  -0.001183   0.092895   0.222974
    21  C    0.000001   0.000000   0.000000  -0.007698   0.207751   0.110548
    22  C    0.000000  -0.000000  -0.000000   0.000001   0.130408  -0.178804
    23  C    0.000016  -0.000002  -0.000001   0.000376  -0.230827   0.160464
    24  S    0.000002  -0.000000  -0.000000  -0.000005   0.000111   0.004418
    25  N    0.000247  -0.000003   0.000000   0.000000  -0.000043   0.003076
    26  C    0.000000  -0.000000   0.000000   0.000000  -0.000169  -0.000292
    27  N   -0.000011   0.000000   0.000000  -0.000000  -0.000037   0.000050
    28  H    0.000000   0.000000  -0.000000   0.008191   0.017499   0.000097
    29  H   -0.000000   0.000000  -0.000000   0.017645  -0.000190  -0.000020
    30  H    0.000000  -0.000001   0.000022  -0.001958   0.000001  -0.000001
    31  H    0.014432  -0.000464   0.006011   0.000838  -0.002200   0.001730
    32  H   -0.065392   0.010187  -0.000175  -0.000037   0.000004  -0.000014
    33  H    0.421077  -0.044925   0.005884   0.000003   0.000000  -0.000000
    34  H   -0.076404   0.426846  -0.042593   0.000031   0.000000  -0.000000
    35  H   -0.000022  -0.000061   0.000015   0.461527   0.010005  -0.007722
    36  H    0.000000   0.000000   0.000000  -0.000002   0.018848  -0.059581
    37  H    0.000000   0.000000   0.000000   0.000005  -0.079652   0.016401
    38  H    0.000000  -0.000000  -0.000000  -0.000013   0.015521  -0.002122
    39  H   -0.000039   0.000001  -0.000000   0.000000   0.000008  -0.000071
    40  H   -0.000000   0.000000  -0.000000  -0.000000   0.000003   0.000002
    41  H   -0.000000  -0.000000   0.000000  -0.000000   0.000037   0.000185
    42  H   -0.000000   0.000000  -0.000000  -0.000000   0.000011  -0.000029
    43  H    0.000089   0.000001  -0.000000   0.000000   0.000000  -0.000033
              19         20         21         22         23         24
     1  O   -0.000508   0.000013   0.003144   0.000376  -0.000057   0.000000
     2  C    0.015056   0.007030  -0.033719   0.008895  -0.000143   0.000014
     3  N   -0.007095  -0.000030   0.001019  -0.000166  -0.000044  -0.000000
     4  C   -0.008732  -0.000845   0.002164  -0.000166   0.000145  -0.000001
     5  C    0.008910  -0.000078  -0.000029   0.000001  -0.000006   0.000000
     6  C   -0.002019   0.000007   0.000006  -0.000001   0.000002  -0.000000
     7  C    0.000864  -0.000036  -0.000027   0.000004  -0.000005   0.000000
     8  Cl  -0.000001  -0.000000   0.000000   0.000000  -0.000000   0.000000
     9  C   -0.000962   0.000809  -0.000135  -0.000075  -0.000050  -0.000001
    10  C   -0.000258  -0.000797   0.000113  -0.000080  -0.000145   0.000047
    11  C   -0.000041   0.002240   0.000335   0.000508   0.001115  -0.000301
    12  C   -0.000001   0.000525  -0.000039   0.000133   0.000501  -0.000855
    13  C    0.000000  -0.000027   0.000001   0.000000   0.000016   0.000002
    14  C   -0.000000   0.000001   0.000000  -0.000000  -0.000002  -0.000000
    15  N   -0.000000  -0.000003   0.000000  -0.000000  -0.000001  -0.000000
    16  C    0.000908  -0.001183  -0.007698   0.000001   0.000376  -0.000005
    17  C   -0.091234   0.092895   0.207751   0.130408  -0.230827   0.000111
    18  C    0.296981   0.222974   0.110548  -0.178804   0.160464   0.004418
    19  Cl  16.898597  -0.071697   0.003545   0.000344   0.005335  -0.000026
    20  C   -0.071697   5.208126  -0.123303   0.078346   0.161135  -0.042150
    21  C    0.003545  -0.123303   5.056324   0.211275   0.135990   0.002748
    22  C    0.000344   0.078346   0.211275   5.203329   0.163972  -0.050901
    23  C    0.005335   0.161135   0.135990   0.163972   6.022572   0.109759
    24  S   -0.000026  -0.042150   0.002748  -0.050901   0.109759  14.624797
    25  N   -0.000005  -0.007512   0.000001   0.006397  -0.103725   0.368885
    26  C    0.000005  -0.010140  -0.000423  -0.001023  -0.112312   0.284535
    27  N    0.000000   0.004637   0.001693   0.008293  -0.072705   0.363498
    28  H    0.000162   0.000029  -0.000360   0.000013   0.000005   0.000000
    29  H    0.000194   0.000003   0.000004   0.000000  -0.000000   0.000000
    30  H   -0.000014   0.000000  -0.000000   0.000000  -0.000000  -0.000000
    31  H    0.001015  -0.018996   0.000532  -0.002016   0.000634  -0.000595
    32  H   -0.000000  -0.000254  -0.000032  -0.000010  -0.001294   0.004232
    33  H   -0.000000   0.000000  -0.000000   0.000000   0.000000  -0.000001
    34  H   -0.000000  -0.000000   0.000000  -0.000000   0.000000  -0.000000
    35  H    0.000566  -0.002897  -0.005315   0.002601  -0.001071   0.000014
    36  H    0.002039   0.436978  -0.002336   0.013161  -0.063919  -0.010349
    37  H   -0.000095  -0.002196   0.472278  -0.074966   0.016722  -0.000159
    38  H    0.000011   0.013694  -0.055358   0.446016  -0.078597  -0.008692
    39  H   -0.000001   0.000104  -0.000011  -0.000302   0.012095  -0.018533
    40  H   -0.000000   0.000084  -0.000002  -0.000026   0.007226  -0.008115
    41  H   -0.000009   0.002978   0.000003  -0.000797   0.004244  -0.014618
    42  H    0.000000   0.000451   0.000164   0.002087   0.001429  -0.005989
    43  H    0.000000  -0.000206  -0.000116  -0.000207  -0.000903  -0.016026
              25         26         27         28         29         30
     1  O    0.000000  -0.000000   0.000000   0.008545  -0.000062  -0.000000
     2  C    0.000000  -0.000001   0.000000  -0.009428  -0.000499   0.000001
     3  N   -0.000000   0.000000  -0.000000   0.326539  -0.009867  -0.000133
     4  C    0.000000  -0.000000   0.000000  -0.013708  -0.085449   0.016085
     5  C   -0.000000  -0.000000  -0.000000  -0.018079   0.450695  -0.062694
     6  C    0.000000   0.000000   0.000000   0.000594  -0.057281   0.443845
     7  C   -0.000000  -0.000000  -0.000000  -0.000008   0.016421  -0.074487
     8  Cl  -0.000000  -0.000000  -0.000000  -0.000000  -0.000165   0.003080
     9  C   -0.000016  -0.000000   0.000000  -0.000239  -0.002279   0.018402
    10  C    0.000302   0.000001  -0.000003   0.000011   0.000052  -0.000266
    11  C   -0.003725  -0.000036  -0.000076   0.000000  -0.000002   0.000014
    12  C   -0.006282  -0.000029   0.000026   0.000000   0.000000  -0.000000
    13  C    0.000247   0.000000  -0.000011   0.000000  -0.000000   0.000000
    14  C   -0.000003  -0.000000   0.000000   0.000000   0.000000  -0.000001
    15  N    0.000000   0.000000   0.000000  -0.000000  -0.000000   0.000022
    16  C    0.000000   0.000000  -0.000000   0.008191   0.017645  -0.001958
    17  C   -0.000043  -0.000169  -0.000037   0.017499  -0.000190   0.000001
    18  C    0.003076  -0.000292   0.000050   0.000097  -0.000020  -0.000001
    19  Cl  -0.000005   0.000005   0.000000   0.000162   0.000194  -0.000014
    20  C   -0.007512  -0.010140   0.004637   0.000029   0.000003   0.000000
    21  C    0.000001  -0.000423   0.001693  -0.000360   0.000004  -0.000000
    22  C    0.006397  -0.001023   0.008293   0.000013   0.000000   0.000000
    23  C   -0.103725  -0.112312  -0.072705   0.000005  -0.000000  -0.000000
    24  S    0.368885   0.284535   0.363498   0.000000   0.000000  -0.000000
    25  N    6.858725  -0.042542  -0.040991   0.000000   0.000000  -0.000000
    26  C   -0.042542   4.927435  -0.095142  -0.000000  -0.000000   0.000000
    27  N   -0.040991  -0.095142   6.876192   0.000000  -0.000000  -0.000000
    28  H    0.000000  -0.000000   0.000000   0.526622   0.005205  -0.000032
    29  H    0.000000  -0.000000  -0.000000   0.005205   0.676547  -0.013537
    30  H   -0.000000   0.000000  -0.000000  -0.000032  -0.013537   0.657650
    31  H    0.013521   0.000248   0.000069  -0.000001  -0.000001  -0.000001
    32  H    0.018347   0.000262  -0.000609  -0.000000   0.000000   0.000000
    33  H   -0.000006  -0.000000  -0.000000   0.000000  -0.000000  -0.000000
    34  H   -0.000000  -0.000000   0.000000  -0.000000   0.000000  -0.000000
    35  H   -0.000017  -0.000000  -0.000003  -0.000558  -0.000237   0.000023
    36  H    0.026637   0.000522   0.000403  -0.000001   0.000000   0.000000
    37  H    0.000002   0.000012  -0.000004  -0.000091   0.000000   0.000000
    38  H    0.000725   0.000059   0.024343  -0.000000  -0.000000   0.000000
    39  H    0.332553  -0.006622   0.000023  -0.000000   0.000000  -0.000000
    40  H    0.000200   0.366299   0.006620   0.000000   0.000000  -0.000000
    41  H    0.002662   0.366473   0.005714  -0.000000   0.000000   0.000000
    42  H    0.003221   0.359925   0.004915  -0.000000  -0.000000   0.000000
    43  H   -0.002532   0.007138   0.340727  -0.000000  -0.000000   0.000000
              31         32         33         34         35         36
     1  O    0.000000   0.000000  -0.000000   0.000000  -0.000111   0.000003
     2  C   -0.000032  -0.000000  -0.000000  -0.000000  -0.003298  -0.000075
     3  N    0.000002   0.000000  -0.000000   0.000000  -0.006655   0.000006
     4  C    0.000059  -0.000001   0.000000  -0.000000  -0.083014   0.000059
     5  C    0.000002  -0.000000  -0.000000  -0.000000   0.016304  -0.000005
     6  C    0.000062   0.000000   0.000000  -0.000000  -0.003222   0.000002
     7  C    0.000023  -0.000002  -0.000002  -0.000039   0.020425  -0.000011
     8  Cl   0.000000   0.000000  -0.000001   0.000229  -0.000107  -0.000000
     9  C   -0.018995  -0.000565   0.000100  -0.000498  -0.061291  -0.000017
    10  C   -0.039301   0.016263   0.000722   0.006922  -0.024189   0.000067
    11  C    0.413000  -0.065574   0.011796   0.001031   0.006949  -0.000908
    12  C   -0.057476   0.417032  -0.058731   0.006641   0.000001   0.000006
    13  C    0.014432  -0.065392   0.421077  -0.076404  -0.000022   0.000000
    14  C   -0.000464   0.010187  -0.044925   0.426846  -0.000061   0.000000
    15  N    0.006011  -0.000175   0.005884  -0.042593   0.000015   0.000000
    16  C    0.000838  -0.000037   0.000003   0.000031   0.461527  -0.000002
    17  C   -0.002200   0.000004   0.000000   0.000000   0.010005   0.018848
    18  C    0.001730  -0.000014  -0.000000  -0.000000  -0.007722  -0.059581
    19  Cl   0.001015  -0.000000  -0.000000  -0.000000   0.000566   0.002039
    20  C   -0.018996  -0.000254   0.000000  -0.000000  -0.002897   0.436978
    21  C    0.000532  -0.000032  -0.000000   0.000000  -0.005315  -0.002336
    22  C   -0.002016  -0.000010   0.000000  -0.000000   0.002601   0.013161
    23  C    0.000634  -0.001294   0.000000   0.000000  -0.001071  -0.063919
    24  S   -0.000595   0.004232  -0.000001  -0.000000   0.000014  -0.010349
    25  N    0.013521   0.018347  -0.000006  -0.000000  -0.000017   0.026637
    26  C    0.000248   0.000262  -0.000000  -0.000000  -0.000000   0.000522
    27  N    0.000069  -0.000609  -0.000000   0.000000  -0.000003   0.000403
    28  H   -0.000001  -0.000000   0.000000  -0.000000  -0.000558  -0.000001
    29  H   -0.000001   0.000000  -0.000000   0.000000  -0.000237   0.000000
    30  H   -0.000001   0.000000  -0.000000  -0.000000   0.000023   0.000000
    31  H    0.679941  -0.010145  -0.000191   0.000097   0.000831   0.001960
    32  H   -0.010145   0.685991  -0.012230  -0.000309   0.000020   0.000050
    33  H   -0.000191  -0.012230   0.660106  -0.005953  -0.000002  -0.000000
    34  H    0.000097  -0.000309  -0.005953   0.655895  -0.000001  -0.000000
    35  H    0.000831   0.000020  -0.000002  -0.000001   0.668240  -0.000072
    36  H    0.001960   0.000050  -0.000000  -0.000000  -0.000072   0.598737
    37  H    0.000008   0.000000  -0.000000   0.000000   0.000006   0.000021
    38  H   -0.000072  -0.000022   0.000000  -0.000000   0.000075  -0.000312
    39  H   -0.000739  -0.000311   0.000001  -0.000000   0.000001  -0.000872
    40  H   -0.000006  -0.000014   0.000000   0.000000   0.000000  -0.000092
    41  H   -0.000009  -0.000010   0.000000  -0.000000   0.000000   0.000615
    42  H   -0.000014  -0.000013   0.000000  -0.000000   0.000000  -0.000019
    43  H    0.000122   0.004639  -0.000012  -0.000000   0.000004  -0.000022
              37         38         39         40         41         42
     1  O    0.004152  -0.000004  -0.000000   0.000000   0.000000   0.000000
     2  C   -0.010555  -0.000229  -0.000000   0.000000   0.000000  -0.000000
     3  N    0.000651   0.000003   0.000000  -0.000000  -0.000000   0.000000
     4  C    0.000071  -0.000001  -0.000000  -0.000000   0.000000   0.000000
     5  C    0.000001  -0.000000   0.000000   0.000000   0.000000  -0.000000
     6  C    0.000000  -0.000000  -0.000000  -0.000000  -0.000000   0.000000
     7  C   -0.000001   0.000000   0.000000   0.000000   0.000000   0.000000
[...]
    21  C    0.000869  -0.000018  -0.000000   0.000000  -0.010241  -0.005615
    22  C   -0.001642   0.000822  -0.000005  -0.000000   0.000892   0.012848
    23  C   -0.001190   0.001850   0.000009   0.000000  -0.002515  -0.049417
    24  S   -0.001772   0.007007  -0.000026  -0.000000   0.000209  -0.002954
    25  N   -0.005792   0.038430  -0.000102   0.000000   0.000022   0.021062
    26  C   -0.000326   0.000676  -0.000001  -0.000000   0.000013   0.000984
    27  N    0.001378  -0.002688   0.000016   0.000000   0.000003   0.000878
    28  H    0.000001  -0.000000   0.000000  -0.000000  -0.000546  -0.000002
    29  H    0.000003   0.000000   0.000000   0.000000  -0.000202  -0.000001
    30  H   -0.000010   0.000000  -0.000000  -0.000000   0.000039  -0.000000
    31  H    0.547830  -0.017761   0.000351   0.000243  -0.001687   0.003216
    32  H   -0.017761   0.553691  -0.008781  -0.000287   0.000105  -0.000107
    33  H    0.000351  -0.008781   0.550141  -0.001947  -0.000003   0.000000
    34  H    0.000243  -0.000287  -0.001947   0.560332   0.000005   0.000000
    35  H   -0.001687   0.000105  -0.000003   0.000005   0.523307   0.000049
    36  H    0.003216  -0.000107   0.000000   0.000000   0.000049   0.466772
    37  H    0.000032  -0.000002   0.000000  -0.000000  -0.000253   0.000042
    38  H   -0.000089   0.000055  -0.000001   0.000000  -0.000110  -0.000192
    39  H   -0.000177   0.001032   0.000000  -0.000000  -0.000001  -0.001271
    40  H    0.000003   0.000005   0.000000   0.000000  -0.000000  -0.000135
    41  H    0.000027  -0.000001  -0.000000  -0.000000  -0.000001   0.000217
    42  H    0.000015  -0.000061   0.000000  -0.000000  -0.000001  -0.000070
    43  H   -0.000493   0.002753  -0.000012  -0.000000   0.000030  -0.000025
              37         38         39         40         41         42
     1  O    0.004404  -0.000033  -0.000000   0.000000  -0.000000   0.000000
     2  C   -0.005032   0.000015  -0.000000   0.000000   0.000002   0.000003
     3  N   -0.000853   0.000011   0.000000   0.000000   0.000000   0.000000
     4  C    0.001233  -0.000031  -0.000000  -0.000000   0.000000  -0.000000
     5  C    0.000050  -0.000002  -0.000000   0.000000  -0.000000  -0.000000
     6  C    0.000005   0.000000   0.000000   0.000000   0.000000   0.000000
     7  C   -0.000008  -0.000000   0.000000  -0.000000  -0.000000  -0.000000
     8  Cl  -0.000000  -0.000000   0.000000  -0.000000  -0.000000   0.000000
     9  C   -0.000003   0.000036  -0.000001  -0.000000  -0.000000   0.000001
    10  C    0.000002   0.000014   0.000008   0.000000   0.000001   0.000000
    11  C    0.000002   0.000004   0.000297   0.000008   0.000004  -0.000002
    12  C   -0.000001  -0.000137  -0.001249  -0.000020  -0.000022   0.000023
    13  C    0.000000  -0.000027  -0.000131  -0.000000  -0.000000   0.000000
    14  C   -0.000000   0.000006   0.000003  -0.000000   0.000000  -0.000000
    15  N    0.000000  -0.000000   0.000000   0.000000   0.000000   0.000000
    16  C   -0.001066   0.000050   0.000001  -0.000000   0.000001   0.000000
    17  C   -0.056824   0.012424  -0.000036  -0.000006  -0.000229  -0.000035
    18  C    0.013283  -0.002196  -0.000150   0.000075   0.000370  -0.000243
    19  Cl  -0.000186   0.000025  -0.000004  -0.000000  -0.000016   0.000001
    20  C   -0.003375   0.006012  -0.001807  -0.000864  -0.009231   0.003886
    21  C    0.451840  -0.056673   0.000080   0.000041   0.000261   0.000345
    22  C   -0.072115   0.447387  -0.001373  -0.000350   0.003426  -0.010047
    23  C    0.014094  -0.069160   0.016593   0.007786   0.009560   0.009002
    24  S   -0.000274  -0.003530  -0.012432  -0.014963  -0.023943  -0.017407
    25  N   -0.000002   0.002177   0.305757   0.000504   0.002274   0.003809
    26  C    0.000018  -0.001769  -0.008951   0.375841   0.381025   0.369663
    27  N    0.000025   0.019591  -0.000391   0.004674   0.005493   0.004715
    28  H   -0.000085  -0.000001   0.000000   0.000000  -0.000000  -0.000000
    29  H    0.000000  -0.000000   0.000000   0.000000  -0.000000  -0.000000
    30  H   -0.000000   0.000000  -0.000000   0.000000   0.000000   0.000000
    31  H    0.000032  -0.000089  -0.000177   0.000003   0.000027   0.000015
    32  H   -0.000002   0.000055   0.001032   0.000005  -0.000001  -0.000061
    33  H    0.000000  -0.000001   0.000000   0.000000  -0.000000   0.000000
    34  H   -0.000000   0.000000  -0.000000   0.000000  -0.000000  -0.000000
    35  H   -0.000253  -0.000110  -0.000001  -0.000000  -0.000001  -0.000001
    36  H    0.000042  -0.000192  -0.001271  -0.000135   0.000217  -0.000070
    37  H    0.514273  -0.006793  -0.000000  -0.000001   0.000001   0.000005
    38  H   -0.006793   0.487961  -0.000069  -0.000100   0.000220  -0.000301
    39  H   -0.000000  -0.000069   0.481565   0.001956   0.000003   0.000257
    40  H   -0.000001  -0.000100   0.001956   0.494864  -0.014671  -0.010564
    41  H    0.000001   0.000220   0.000003  -0.014671   0.504032  -0.016572
    42  H    0.000005  -0.000301   0.000257  -0.010564  -0.016572   0.503766
    43  H    0.000007  -0.002664   0.000042  -0.000429  -0.000462  -0.000420
              43
     1  O   -0.000000
     2  C   -0.000000
     3  N   -0.000000
     4  C    0.000002
     5  C    0.000000
     6  C   -0.000000
     7  C    0.000001
     8  Cl  -0.000000
     9  C   -0.000013
    10  C   -0.000216
    11  C   -0.000884
    12  C    0.004035
    13  C    0.000551
    14  C    0.000010
    15  N   -0.000009
    16  C   -0.000004
    17  C    0.000014
    18  C   -0.000063
    19  Cl   0.000000
    20  C    0.001861
    21  C   -0.000437
    22  C   -0.002883
    23  C    0.001600
    24  S   -0.023976
    25  N   -0.003845
    26  C    0.009720
    27  N    0.326905
    28  H   -0.000000
    29  H   -0.000000
    30  H   -0.000000
    31  H   -0.000493
    32  H    0.002753
    33  H   -0.000012
    34  H   -0.000000
    35  H    0.000030
    36  H   -0.000025
    37  H    0.000007
    38  H   -0.002664
    39  H    0.000042
    40  H   -0.000429
    41  H   -0.000462
    42  H   -0.000420
    43  H    0.466918
 Mulliken charges:
               1
     1  O   -0.318850
     2  C    0.193504
     3  N   -0.222505
     4  C    0.254411
     5  C   -0.223727
     6  C   -0.210982
     7  C    0.082340
     8  Cl  -0.083939
     9  C    0.160307
    10  C    0.233245
    11  C   -0.272002
    12  C   -0.131188
    13  C   -0.087875
    14  C   -0.079968
    15  N   -0.217091
    16  C   -0.330032
    17  C   -0.010863
    18  C    0.287107
    19  Cl  -0.067979
    20  C   -0.357475
    21  C   -0.133550
    22  C   -0.214648
    23  C    0.123070
    24  S    0.457865
    25  N   -0.563151
    26  C   -0.332720
    27  N   -0.549219
    28  H    0.237823
    29  H    0.120007
    30  H    0.127658
    31  H    0.183827
    32  H    0.121844
    33  H    0.127534
    34  H    0.119835
    35  H    0.172643
    36  H    0.171643
    37  H    0.147559
    38  H    0.167894
    39  H    0.220449
    40  H    0.156344
    41  H    0.158234
    42  H    0.160232
    43  H    0.222389
 Sum of Mulliken charges =  -0.00000
 Mulliken charges with hydrogens summed into heavy atoms:
               1
     1  O   -0.318850
     2  C    0.193504
     3  N    0.015318
     4  C    0.254411
     5  C   -0.103720
     6  C   -0.083324
     7  C    0.082340
     8  Cl  -0.083939
     9  C    0.160307
    10  C    0.233245
    11  C   -0.088174
    12  C   -0.009344
    13  C    0.039659
    14  C    0.039867
    15  N   -0.217091
    16  C   -0.157390
    17  C   -0.010863
    18  C    0.287107
    19  Cl  -0.067979
    20  C   -0.185831
    21  C    0.014009
    22  C   -0.046754
    23  C    0.123070
    24  S    0.457865
    25  N   -0.342701
    26  C    0.142090
    27  N   -0.326830
 Electronic spatial extent (au):  <R**2>=          10947.5467
 Charge=              0.0000 electrons
 Dipole moment (field-independent basis, Debye):
    X=             -2.4250    Y=              0.4062    Z=              0.8128  Tot=              2.5896
 Quadrupole moment (field-independent basis, Debye-Ang):
   XX=           -164.9938   YY=           -181.5063   ZZ=           -178.9757
   XY=            -13.2279   XZ=             -5.3313   YZ=             -4.0258
 Traceless Quadrupole moment (field-independent basis, Debye-Ang):
   XX=             10.1648   YY=             -6.3477   ZZ=             -3.8171
   XY=            -13.2279   XZ=             -5.3313   YZ=             -4.0258
 Octapole moment (field-independent basis, Debye-Ang**2):
  XXX=            -66.1703  YYY=            132.0136  ZZZ=              6.8292  XYY=             42.2362
  XXY=            -75.8259  XXZ=             60.8791  XZZ=             -9.6918  YZZ=             -1.3219
  YYZ=             22.5309  XYZ=            -12.8073
 Hexadecapole moment (field-independent basis, Debye-Ang**3):
 XXXX=          -7327.2539 YYYY=          -5640.5078 ZZZZ=          -1330.5171 XXXY=            -94.3589
 XXXZ=           -181.8740 YYYX=           -206.3406 YYYZ=           -233.0118 ZZZX=             28.4733
 ZZZY=              7.4424 XXYY=          -2153.4873 XXZZ=          -1515.6602 YYZZ=          -1183.2614
 XXYZ=            102.5689 YYXZ=            -84.3157 ZZXY=             -0.6208
 N-N= 2.991329532414D+03 E-N=-1.150645568727D+04  KE= 2.338138281772D+03
 Breneman (CHELPG) radii used.
 Read replacement radii for each type of atom:
 Atom Element Radius
    1     8    1.70
    2     6    1.50
    3     7    1.70
    4     6    1.50
    5     6    1.50
    6     6    1.50
    7     6    1.50
    8    17    2.00
    9     6    1.50
   10     6    1.50
   11     6    1.50
   12     6    1.50
   13     6    1.50
   14     6    1.50
   15     7    1.70
   16     6    1.50
   17     6    1.50
   18     6    1.50
   19    17    2.00
   20     6    1.50
   21     6    1.50
   22     6    1.50
   23     6    1.50
   24    16    2.00
   25     7    1.70
   26     6    1.50
   27     7    1.70
   28     1    1.45
   29     1    1.45
   30     1    1.45
   31     1    1.45
   32     1    1.45
   33     1    1.45
   34     1    1.45
   35     1    1.45
   36     1    1.45
   37     1    1.45
   38     1    1.45
   39     1    1.45
   40     1    1.45
   41     1    1.45
   42     1    1.45
   43     1    1.45
 Generate Potential Derived Charges using the Breneman model, NDens= 1.
 Grid spacing= 0.300 Box extension= 2.800
 NStep X,Y,Z=   57     52     36   Total possible points=      106704
 Number of Points to Fit=   23172

 **********************************************************************

            Electrostatic Properties Using The SCF Density.

 **********************************************************************

       Atomic Center    1 is at  -0.209423 -4.422496 -1.557857
       Atomic Center    2 is at   0.158395 -3.369442 -1.083337
       Atomic Center    3 is at   1.487127 -3.056049 -0.977964
       Atomic Center    4 is at   2.125413 -1.886257 -0.536734
       Atomic Center    5 is at   3.355493 -2.000301  0.119765
       Atomic Center    6 is at   4.019971 -0.867081  0.568092
       Atomic Center    7 is at   3.457952  0.396920  0.391899
       Atomic Center    8 is at   4.285874  1.765908  1.045486
       Atomic Center    9 is at   2.229637  0.538450 -0.269056
       Atomic Center   10 is at   1.563217  1.854409 -0.461247
       Atomic Center   11 is at   0.268582  2.050400  0.035864
       Atomic Center   12 is at  -0.345020  3.283214 -0.161869
       Atomic Center   13 is at   0.349321  4.270321 -0.855003
       Atomic Center   14 is at   1.635709  3.974126 -1.309648
       Atomic Center   15 is at   2.232558  2.803120 -1.118575
       Atomic Center   16 is at   1.593429 -0.610729 -0.745911
       Atomic Center   17 is at  -0.835049 -2.335619 -0.631356
       Atomic Center   18 is at  -0.930360 -1.882572  0.691222
       Atomic Center   19 is at   0.082905 -2.549361  1.922248
       Atomic Center   20 is at  -1.821435 -0.869805  1.036266
       Atomic Center   21 is at  -1.706404 -1.815607 -1.591523
       Atomic Center   22 is at  -2.591207 -0.791908 -1.270447
       Atomic Center   23 is at  -2.621198 -0.322762  0.038449
       Atomic Center   24 is at  -3.691696  1.088623  0.370868
       Atomic Center   25 is at  -2.972471  1.701499  1.603771
       Atomic Center   26 is at  -5.241303  0.280965  0.777544
       Atomic Center   27 is at  -4.094440  1.854251 -0.913838
       Atomic Center   28 is at   2.084621 -3.844904 -1.205465
       Atomic Center   29 is at   3.788141 -2.988325  0.294257
       Atomic Center   30 is at   4.974666 -0.955347  1.088706
       Atomic Center   31 is at  -0.246979  1.265029  0.589766
       Atomic Center   32 is at  -1.346505  3.448572  0.243061
       Atomic Center   33 is at  -0.087162  5.254912 -1.036090
       Atomic Center   34 is at   2.213166  4.728449 -1.856940
       Atomic Center   35 is at   0.667626 -0.485073 -1.305330
       Atomic Center   36 is at  -1.866118 -0.475736  2.052209
       Atomic Center   37 is at  -1.649790 -2.200828 -2.611880
       Atomic Center   38 is at  -3.235805 -0.327053 -2.020832
       Atomic Center   39 is at  -3.492854  2.534197  1.892195
       Atomic Center   40 is at  -5.953015  1.088063  0.996900
       Atomic Center   41 is at  -5.069030 -0.349170  1.658396
       Atomic Center   42 is at  -5.586636 -0.304100 -0.083176
       Atomic Center   43 is at  -3.281345  2.391947 -1.229851
   23172 points will be used for fitting atomic charges
 Fitting point charges to electrostatic potential
 Charges from ESP fit, RMS=   0.00395 RRMS=   0.24696:
 ESP charges:
               1
     1  O   -0.572202
     2  C    0.676168
     3  N   -0.559813
     4  C    0.258032
     5  C   -0.213767
     6  C   -0.068727
     7  C    0.037088
     8  Cl  -0.098349
     9  C   -0.057924
    10  C    0.575619
    11  C   -0.427056
    12  C    0.216943
    13  C   -0.391437
    14  C    0.382492
    15  N   -0.620272
    16  C   -0.114886
    17  C   -0.022031
    18  C    0.049265
    19  Cl  -0.097755
    20  C   -0.077787
    21  C   -0.077825
    22  C   -0.165178
    23  C    0.096718
    24  S    0.701974
    25  N   -0.734273
    26  C   -0.381158
    27  N   -0.724159
    28  H    0.333236
    29  H    0.145056
    30  H    0.104590
    31  H    0.140990
    32  H    0.049241
    33  H    0.140895
    34  H    0.028050
    35  H    0.046957
    36  H    0.109882
    37  H    0.123464
    38  H    0.132258
    39  H    0.326566
    40  H    0.175974
    41  H    0.117744
    42  H    0.144626
    43  H    0.290772
 Sum of ESP charges =  -0.00000
 ESP charges with hydrogens summed into heavy atoms:
               1
     1  O   -0.572202
     2  C    0.676168
     3  N   -0.226577
     4  C    0.258032
     5  C   -0.068711
     6  C    0.035863
     7  C    0.037088
     8  Cl  -0.098349
     9  C   -0.057924
    10  C    0.575619
    11  C   -0.286066
    12  C    0.266184
    13  C   -0.250541
    14  C    0.410541
    15  N   -0.620272
    16  C   -0.067929
    17  C   -0.022031
    18  C    0.049265
    19  Cl  -0.097755
    20  C    0.032096
    21  C    0.045638
    22  C   -0.032920
    23  C    0.096718
    24  S    0.701974
    25  N   -0.407707
    26  C    0.057186
    27  N   -0.433387
 Charge=  -0.00000 Dipole=    -2.4681     0.4076     0.6639 Tot=     2.5881
 -----------------------------------------------------------------

              Electrostatic Properties (Atomic Units)

 -----------------------------------------------------------------
    Center     Electric         -------- Electric Field --------
               Potential          X             Y             Z
 -----------------------------------------------------------------
    1 Atom    -22.365909
    2 Atom    -14.639642
    3 Atom    -18.319185
    4 Atom    -14.696316
    5 Atom    -14.742091
    6 Atom    -14.742995
    7 Atom    -14.694715
    8 Atom    -64.424944
    9 Atom    -14.732717
   10 Atom    -14.715238
   11 Atom    -14.754962
   12 Atom    -14.745987
   13 Atom    -14.752528
   14 Atom    -14.729423
   15 Atom    -18.387173
   16 Atom    -14.744293
   17 Atom    -14.712217
   18 Atom    -14.668390
   19 Atom    -64.402086
   20 Atom    -14.722448
   21 Atom    -14.724046
   22 Atom    -14.725811
   23 Atom    -14.707254
   24 Atom    -59.056840
   25 Atom    -18.407747
   26 Atom    -14.720849
   27 Atom    -18.409389
   28 Atom     -0.994098
   29 Atom     -1.076843
   30 Atom     -1.083432
   31 Atom     -1.093429
   32 Atom     -1.089981
   33 Atom     -1.088697
   34 Atom     -1.101848
   35 Atom     -1.082276
   36 Atom     -1.066385
   37 Atom     -1.070687
   38 Atom     -1.068490
   39 Atom     -1.032407
   40 Atom     -1.060076
   41 Atom     -1.063237
   42 Atom     -1.062686
   43 Atom     -1.035219
 -----------------------------------------------------------------
 Unable to Open any file for archive entry.
 1\1\GINC-NOTCH129\SP\RPBE1PBE\def2TZVP\C19H16Cl2N4O1S1\U1414944\14-Oct
 -2025\0\\#N Guess=Read Geom=Check Integral(Ultrafine) Density Pop=(Che
 lpG,ReadRadii) NMR pbe1pbe EmpiricalDispersion=GD3BJ def2TZVP\\SDI-dru
 g_5\\0,1\O,0,0.1098299048,-4.4472142833,-1.5097840421\C,0,0.3862889472
 ,-3.3593692648,-1.0520250051\N,0,1.682197144,-2.9251790223,-0.96867086
 93\C,0,2.2169127206,-1.696897545,-0.5492555617\C,0,3.4606439672,-1.690
 5951733,0.0912027454\C,0,4.024863563,-0.4962626594,0.5177490441\C,0,3.
 3478083779,0.7091496046,0.3355782597\Cl,0,4.0559527915,2.1556210009,0.
 9624830119\C,0,2.1032730076,0.7303230599,-0.3096609572\C,0,1.317319989
 8,1.9777837617,-0.5069393632\C,0,0.0167428872,2.0612752137,0.006033689
 6\C,0,-0.7091142291,3.2306785538,-0.1966115907\C,0,-0.1165918142,4.268
 3141207,-0.9101611441\C,0,1.1854499599,4.0848096356,-1.3794609473\N,0,
 1.8889082522,2.97534947,-1.1839178493\C,0,1.5682883683,-0.4776780328,-
 0.7649516095\C,0,-0.6912795069,-2.4147398241,-0.5975690254\C,0,-0.8103
 732235,-1.9561478089,0.7211650212\Cl,0,0.2752356989,-2.5129714419,1.94
 51493767\C,0,-1.7854702989,-1.0244805954,1.0675008093\C,0,-1.618711735
 2,-1.9878669665,-1.5511109374\C,0,-2.5888681042,-1.045034689,-1.228946
 4848\C,0,-2.6445624775,-0.5646387538,0.0750174788\S,0,-3.8347964979,0.
 7474953191,0.4068665338\N,0,-3.1585276189,1.4382216958,1.6228059764\C,
 0,-5.2990035783,-0.1927187358,0.8439869914\N,0,-4.322171598,1.45760648
 57,-0.8804033201\H,0,2.3460791565,-3.6591447238,-1.1958354175\H,0,3.98
 37146323,-2.6329792987,0.2704553742\H,0,4.9902743416,-0.4909904962,1.0
 259095903\H,0,-0.4179326116,1.2390852937,0.5756640719\H,0,-1.716183770
 7,3.309200979,0.2204357741\H,0,-0.6432536226,5.2068508538,-1.095915841
 \H,0,1.6846723848,4.8817921702,-1.9430065617\H,0,0.62774015,-0.4435636
 344,-1.3127235606\H,0,-1.8527386236,-0.6237513811,2.0795862859\H,0,-1.
 5404256645,-2.3787538099,-2.5678744373\H,0,-3.2827712198,-0.6499075521
 ,-1.9753035005\H,0,-3.7488326722,2.2236000698,1.9093257462\H,0,-6.0783
 862505,0.5489268711,1.0644029491\H,0,-5.0586817717,-0.7937909058,1.729
 2016618\H,0,-5.6006938808,-0.8172122566,-0.0053575685\H,0,-3.565588800
 9,2.0631240774,-1.2136240147\\Version=ES64L-G16RevC.01\State=1-A\HF=-2
 345.2461369\RMSD=7.751e-09\Dipole=-0.9604431,0.0762929,0.3312996\Quadr
 upole=9.1429415,-6.4801732,-2.6627683,-8.6460713,-3.7241828,-3.1853488
 \PG=C01 [X(C19H16Cl2N4O1S1)]\\@
 The archive entry for this job was punched.


 YE HAVE SOWN MUCH, AND BRING IN LITTLE.
 YE EAT, BUT YE HAVE NOT ENOUGH.
 YE DRINK, BUT YE ARE NOT FILLED WITH DRINK.
 YE CLOTHE YOU, BUT THERE IS NONE WARM.
 AND HE THAT EARNETH WAGES EARNETH WAGES TO PUT
 IT INTO A BAG WITH HOLES.
                                     HAGGAI I,6
 Job cpu time:       0 days  4 hours 40 minutes 38.3 seconds.
 Elapsed time:       0 days  0 hours 18 minutes 58.3 seconds.
 File lengths (MBytes):  RWF=    525 Int=      0 D2E=      0 Chk=     83 Scr=      2
 Normal termination of Gaussian 16 at Tue Oct 14 00:31:57 2025.
