 Entering Gaussian System, Link 0=g16
 Input=SDI-drug_7.com
 Output=SDI-drug_7.log
 Initial command:
 /uufs/chpc.utah.edu/sys/installdir/gaussian16/C01/AVX/g16/l1.exe "/scratch/general/vast/u1414944/6939700-notchpeak.peaks/Gau-1604902.inp" -scrdir="/scratch/general/vast/u1414944/6939700-notchpeak.peaks/"
 Entering Link 1 = /uufs/chpc.utah.edu/sys/installdir/gaussian16/C01/AVX/g16/l1.exe PID=   1604903.
  
 Copyright (c) 1988-2019, Gaussian, Inc.  All Rights Reserved.
  
 This is part of the Gaussian(R) 16 program.  It is based on
 the Gaussian(R) 09 system (copyright 2009, Gaussian, Inc.),
 the Gaussian(R) 03 system (copyright 2003, Gaussian, Inc.),
 the Gaussian(R) 98 system (copyright 1998, Gaussian, Inc.),
 the Gaussian(R) 94 system (copyright 1995, Gaussian, Inc.),
 the Gaussian 92(TM) system (copyright 1992, Gaussian, Inc.),
 the Gaussian 90(TM) system (copyright 1990, Gaussian, Inc.),
 the Gaussian 88(TM) system (copyright 1988, Gaussian, Inc.),
 the Gaussian 86(TM) system (copyright 1986, Carnegie Mellon
 University), and the Gaussian 82(TM) system (copyright 1983,
 Carnegie Mellon University). Gaussian is a federally registered
 trademark of Gaussian, Inc.
  
 This software contains proprietary and confidential information,
 including trade secrets, belonging to Gaussian, Inc.
  
 This software is provided under written license and may be
 used, copied, transmitted, or stored only in accord with that
 written license.
  
 The following legend is applicable only to US Government
 contracts under FAR:
  
                    RESTRICTED RIGHTS LEGEND
  
 Use, reproduction and disclosure by the US Government is
 subject to restrictions as set forth in subparagraphs (a)
 and (c) of the Commercial Computer Software - Restricted
 Rights clause in FAR 52.227-19.
  
 Gaussian, Inc.
 340 Quinnipiac St., Bldg. 40, Wallingford CT 06492
  
  
 ---------------------------------------------------------------
 Warning -- This program may not be used in any manner that
 competes with the business of Gaussian, Inc. or will provide
 assistance to any competitor of Gaussian, Inc.  The licensee
 of this program is prohibited from giving any competitor of
 Gaussian, Inc. access to this program.  By using this program,
 the user acknowledges that Gaussian, Inc. is engaged in the
 business of creating and licensing software in the field of
 computational chemistry and represents and warrants to the
 licensee that it is not a competitor of Gaussian, Inc. and that
 it will not use this program in any manner prohibited above.
 ---------------------------------------------------------------
  

 Cite this work as:
 Gaussian 16, Revision C.01,
 M. J. Frisch, G. W. Trucks, H. B. Schlegel, G. E. Scuseria, 
 M. A. Robb, J. R. Cheeseman, G. Scalmani, V. Barone, 
 G. A. Petersson, H. Nakatsuji, X. Li, M. Caricato, A. V. Marenich, 
 J. Bloino, B. G. Janesko, R. Gomperts, B. Mennucci, H. P. Hratchian, 
 J. V. Ortiz, A. F. Izmaylov, J. L. Sonnenberg, D. Williams-Young, 
 F. Ding, F. Lipparini, F. Egidi, J. Goings, B. Peng, A. Petrone, 
 T. Henderson, D. Ranasinghe, V. G. Zakrzewski, J. Gao, N. Rega, 
 G. Zheng, W. Liang, M. Hada, M. Ehara, K. Toyota, R. Fukuda, 
 J. Hasegawa, M. Ishida, T. Nakajima, Y. Honda, O. Kitao, H. Nakai, 
 T. Vreven, K. Throssell, J. A. Montgomery, Jr., J. E. Peralta, 
 F. Ogliaro, M. J. Bearpark, J. J. Heyd, E. N. Brothers, K. N. Kudin, 
 V. N. Staroverov, T. A. Keith, R. Kobayashi, J. Normand, 
 K. Raghavachari, A. P. Rendell, J. C. Burant, S. S. Iyengar, 
 J. Tomasi, M. Cossi, J. M. Millam, M. Klene, C. Adamo, R. Cammi, 
 J. W. Ochterski, R. L. Martin, K. Morokuma, O. Farkas, 
 J. B. Foresman, and D. J. Fox, Gaussian, Inc., Wallingford CT, 2019.
 
 ******************************************
 Gaussian 16:  ES64L-G16RevC.01  3-Jul-2019
                13-Oct-2025 
 ******************************************
 %NProcShared=16
 Will use up to   16 processors via shared memory.
 %Mem=40GB
 %chk=SDI-drug_7.chk
 ----------------------------------------------------------------------
 #N OPT FREQ=NORAMAN Integral(Ultrafine) pbe1pbe EmpiricalDispersion=GD
 3BJ def2SVP
 ----------------------------------------------------------------------
 1/18=20,19=15,26=4,38=1/1,3;
 2/9=110,12=2,17=6,18=5,40=1/2;
 3/5=43,7=101,11=2,25=1,30=1,71=1,74=-13,75=-5,124=41/1,2,3;
 4//1;
 5/5=2,38=5/2;
 6/7=2,8=2,9=2,10=2,28=1/1;
 7//1,2,3,16;
 1/18=20,19=15,26=4/3(2);
 2/9=110/2;
 99//99;
 2/9=110/2;
 3/5=43,7=101,11=2,25=1,30=1,71=1,74=-13,75=-5,124=41/1,2,3;
 4/5=5,16=3,69=1/1;
 5/5=2,38=5/2;
 7//1,2,3,16;
 1/18=20,19=15,26=4/3(-5);
 2/9=110/2;
 6/7=2,8=2,9=2,10=2,19=2,28=1/1;
 99/9=1/99;
 ----------
 SDI-drug_7
 ----------
 Symbolic Z-matrix:
 Charge =  0 Multiplicity = 1
 O                     0.19691  -4.52501  -1.56574 
 C                     0.45232  -3.41687  -1.15456 
 N                     1.73883  -2.9658   -1.07482 
 C                     2.19748  -1.72898  -0.60117 
 C                     3.34452  -1.67143   0.18757 
 C                     3.75735  -0.46646   0.72055 
 C                     3.01459   0.68735   0.51116 
 Cl                    3.54895   2.15614   1.22659 
 C                     1.87961   0.65735  -0.30036 
 C                     0.99985   1.8226   -0.50568 
 C                     0.41587   2.08418  -1.74549 
 C                    -0.45755   3.15056  -1.85802 
 C                    -0.71558   3.92666  -0.73917 
 C                    -0.0785    3.59115   0.44578 
 N                     0.74834   2.57032   0.56315 
 C                     1.52028  -0.55053  -0.88761 
 C                    -0.59146  -2.42554  -0.72746 
 C                    -0.63953  -1.93815   0.5782 
 Cl                    0.39325  -2.59947   1.78988 
 C                    -1.49444  -0.89934   0.9064 
 C                    -1.47993  -1.92584  -1.67519 
 C                    -2.3315   -0.88309  -1.35558 
 C                    -2.30561  -0.36543  -0.07493 
 S                    -3.28146   1.10261   0.34063 
 N                    -2.84406   1.77949   1.64374 
 C                    -4.83016   0.29115   0.87103 
 N                    -3.37265   1.79371  -1.03088 
 H                     2.43981  -3.68217  -1.2241 
 H                     3.90057  -2.57297   0.3964 
 H                     4.64626  -0.41818   1.32913 
 H                     0.65622   1.4751   -2.60289 
 H                    -0.92972   3.37298  -2.80305 
 H                    -1.38885   4.76823  -0.78437 
 H                    -0.23284   4.16596   1.35087 
 H                     0.66984  -0.56405  -1.54752 
 H                    -1.51342  -0.4747    1.89855 
 H                    -1.45944  -2.33665  -2.67351 
 H                    -2.98311  -0.43302  -2.08605 
 H                    -2.0712    2.41787   1.54941 
 H                    -5.53873   1.06212   1.14882 
 H                    -4.59054  -0.3211    1.73019 
 H                    -5.20642  -0.30459   0.04829 
 H                    -3.65372   2.75897  -0.9824 
 

 GradGradGradGradGradGradGradGradGradGradGradGradGradGradGradGradGradGrad
 Berny optimization.
 Initialization pass.
                           ----------------------------
                           !    Initial Parameters    !
                           ! (Angstroms and Degrees)  !
 --------------------------                            --------------------------
 ! Name  Definition              Value          Derivative Info.                !
 --------------------------------------------------------------------------------
 ! R1    R(1,2)                  1.2093         estimate D2E/DX2                !
 ! R2    R(2,3)                  1.3656         estimate D2E/DX2                !
 ! R3    R(2,17)                 1.5015         estimate D2E/DX2                !
 ! R4    R(3,4)                  1.4016         estimate D2E/DX2                !
 ! R5    R(3,28)                 1.0133         estimate D2E/DX2                !
 ! R6    R(4,5)                  1.3932         estimate D2E/DX2                !
 ! R7    R(4,16)                 1.389          estimate D2E/DX2                !
 ! R8    R(5,6)                  1.3807         estimate D2E/DX2                !
 ! R9    R(5,29)                 1.0796         estimate D2E/DX2                !
 ! R10   R(6,7)                  1.3881         estimate D2E/DX2                !
 ! R11   R(6,30)                 1.0784         estimate D2E/DX2                !
 ! R12   R(7,8)                  1.7189         estimate D2E/DX2                !
 ! R13   R(7,9)                  1.3956         estimate D2E/DX2                !
 ! R14   R(9,10)                 1.4744         estimate D2E/DX2                !
 ! R15   R(9,16)                 1.3903         estimate D2E/DX2                !
 ! R16   R(10,11)                1.3952         estimate D2E/DX2                !
 ! R17   R(10,15)                1.3284         estimate D2E/DX2                !
 ! R18   R(11,12)                1.383          estimate D2E/DX2                !
 ! R19   R(11,31)                1.0788         estimate D2E/DX2                !
 ! R20   R(12,13)                1.3859         estimate D2E/DX2                !
 ! R21   R(12,32)                1.0796         estimate D2E/DX2                !
 ! R22   R(13,14)                1.3866         estimate D2E/DX2                !
 ! R23   R(13,33)                1.0787         estimate D2E/DX2                !
 ! R24   R(14,15)                1.3189         estimate D2E/DX2                !
 ! R25   R(14,34)                1.0832         estimate D2E/DX2                !
 ! R26   R(16,35)                1.0765         estimate D2E/DX2                !
 ! R27   R(17,18)                1.3945         estimate D2E/DX2                !
 ! R28   R(17,21)                1.3919         estimate D2E/DX2                !
 ! R29   R(18,19)                1.724          estimate D2E/DX2                !
 ! R30   R(18,20)                1.3848         estimate D2E/DX2                !
 ! R31   R(20,23)                1.3806         estimate D2E/DX2                !
 ! R32   R(20,36)                1.0794         estimate D2E/DX2                !
 ! R33   R(21,22)                1.3837         estimate D2E/DX2                !
 ! R34   R(21,37)                1.0797         estimate D2E/DX2                !
 ! R35   R(22,23)                1.3816         estimate D2E/DX2                !
 ! R36   R(22,38)                1.0774         estimate D2E/DX2                !
 ! R37   R(23,24)                1.8111         estimate D2E/DX2                !
 ! R38   R(24,25)                1.5322         estimate D2E/DX2                !
 ! R39   R(24,26)                1.8271         estimate D2E/DX2                !
 ! R40   R(24,27)                1.5385         estimate D2E/DX2                !
 ! R41   R(25,39)                1.0068         estimate D2E/DX2                !
 ! R42   R(26,40)                1.0833         estimate D2E/DX2                !
 ! R43   R(26,41)                1.0819         estimate D2E/DX2                !
 ! R44   R(26,42)                1.0832         estimate D2E/DX2                !
 ! R45   R(27,43)                1.0065         estimate D2E/DX2                !
 ! A1    A(1,2,3)              121.4339         estimate D2E/DX2                !
 ! A2    A(1,2,17)             123.704          estimate D2E/DX2                !
 ! A3    A(3,2,17)             114.8469         estimate D2E/DX2                !
 ! A4    A(2,3,4)              128.2788         estimate D2E/DX2                !
 ! A5    A(2,3,28)             114.178          estimate D2E/DX2                !
 ! A6    A(4,3,28)             116.5677         estimate D2E/DX2                !
 ! A7    A(3,4,5)              119.8137         estimate D2E/DX2                !
 ! A8    A(3,4,16)             121.2947         estimate D2E/DX2                !
 ! A9    A(5,4,16)             118.8864         estimate D2E/DX2                !
 ! A10   A(4,5,6)              120.049          estimate D2E/DX2                !
 ! A11   A(4,5,29)             119.9363         estimate D2E/DX2                !
 ! A12   A(6,5,29)             120.0056         estimate D2E/DX2                !
 ! A13   A(5,6,7)              120.4763         estimate D2E/DX2                !
 ! A14   A(5,6,30)             120.2246         estimate D2E/DX2                !
 ! A15   A(7,6,30)             119.2746         estimate D2E/DX2                !
 ! A16   A(6,7,8)              118.7597         estimate D2E/DX2                !
 ! A17   A(6,7,9)              120.3326         estimate D2E/DX2                !
 ! A18   A(8,7,9)              120.8775         estimate D2E/DX2                !
 ! A19   A(7,9,10)             123.3153         estimate D2E/DX2                !
 ! A20   A(7,9,16)             118.3258         estimate D2E/DX2                !
 ! A21   A(10,9,16)            118.2665         estimate D2E/DX2                !
 ! A22   A(9,10,11)            121.4439         estimate D2E/DX2                !
 ! A23   A(9,10,15)            116.4718         estimate D2E/DX2                !
 ! A24   A(11,10,15)           122.0186         estimate D2E/DX2                !
 ! A25   A(10,11,12)           118.7645         estimate D2E/DX2                !
 ! A26   A(10,11,31)           120.4727         estimate D2E/DX2                !
 ! A27   A(12,11,31)           120.7541         estimate D2E/DX2                !
 ! A28   A(11,12,13)           118.9263         estimate D2E/DX2                !
 ! A29   A(11,12,32)           120.418          estimate D2E/DX2                !
 ! A30   A(13,12,32)           120.6557         estimate D2E/DX2                !
 ! A31   A(12,13,14)           117.9611         estimate D2E/DX2                !
 ! A32   A(12,13,33)           121.2839         estimate D2E/DX2                !
 ! A33   A(14,13,33)           120.7548         estimate D2E/DX2                !
 ! A34   A(13,14,15)           123.4616         estimate D2E/DX2                !
 ! A35   A(13,14,34)           121.3445         estimate D2E/DX2                !
 ! A36   A(15,14,34)           115.1938         estimate D2E/DX2                !
 ! A37   A(10,15,14)           118.8646         estimate D2E/DX2                !
 ! A38   A(4,16,9)             121.5991         estimate D2E/DX2                !
 ! A39   A(4,16,35)            120.0592         estimate D2E/DX2                !
 ! A40   A(9,16,35)            118.2951         estimate D2E/DX2                !
 ! A41   A(2,17,18)            121.4019         estimate D2E/DX2                !
 ! A42   A(2,17,21)            119.1486         estimate D2E/DX2                !
 ! A43   A(18,17,21)           119.3436         estimate D2E/DX2                !
 ! A44   A(17,18,19)           120.2209         estimate D2E/DX2                !
 ! A45   A(17,18,20)           120.3557         estimate D2E/DX2                !
 ! A46   A(19,18,20)           119.4073         estimate D2E/DX2                !
 ! A47   A(18,20,23)           118.9706         estimate D2E/DX2                !
 ! A48   A(18,20,36)           121.5891         estimate D2E/DX2                !
 ! A49   A(23,20,36)           119.3986         estimate D2E/DX2                !
 ! A50   A(17,21,22)           120.4059         estimate D2E/DX2                !
 ! A51   A(17,21,37)           118.7411         estimate D2E/DX2                !
 ! A52   A(22,21,37)           120.7949         estimate D2E/DX2                !
 ! A53   A(21,22,23)           119.0084         estimate D2E/DX2                !
 ! A54   A(21,22,38)           122.0337         estimate D2E/DX2                !
 ! A55   A(23,22,38)           118.901          estimate D2E/DX2                !
 ! A56   A(20,23,22)           121.6678         estimate D2E/DX2                !
 ! A57   A(20,23,24)           117.8366         estimate D2E/DX2                !
 ! A58   A(22,23,24)           120.4183         estimate D2E/DX2                !
 ! A59   A(23,24,25)           113.5419         estimate D2E/DX2                !
 ! A60   A(23,24,26)            99.4004         estimate D2E/DX2                !
 ! A61   A(23,24,27)           101.0404         estimate D2E/DX2                !
 ! A62   A(25,24,26)           101.0283         estimate D2E/DX2                !
 ! A63   A(25,24,27)           125.215          estimate D2E/DX2                !
 ! A64   A(26,24,27)           114.0826         estimate D2E/DX2                !
 ! A65   A(24,25,39)           114.8068         estimate D2E/DX2                !
 ! A66   A(24,26,40)           108.2266         estimate D2E/DX2                !
 ! A67   A(24,26,41)           107.1057         estimate D2E/DX2                !
 ! A68   A(24,26,42)           108.554          estimate D2E/DX2                !
 ! A69   A(40,26,41)           110.1194         estimate D2E/DX2                !
 ! A70   A(40,26,42)           111.0364         estimate D2E/DX2                !
 ! A71   A(41,26,42)           111.6455         estimate D2E/DX2                !
 ! A72   A(24,27,43)           113.8545         estimate D2E/DX2                !
 ! D1    D(1,2,3,4)           -178.6637         estimate D2E/DX2                !
 ! D2    D(1,2,3,28)           -10.4747         estimate D2E/DX2                !
 ! D3    D(17,2,3,4)             2.7054         estimate D2E/DX2                !
 ! D4    D(17,2,3,28)          170.8944         estimate D2E/DX2                !
 ! D5    D(1,2,17,18)          118.8158         estimate D2E/DX2                !
 ! D6    D(1,2,17,21)          -64.9502         estimate D2E/DX2                !
 ! D7    D(3,2,17,18)          -62.5884         estimate D2E/DX2                !
 ! D8    D(3,2,17,21)          113.6456         estimate D2E/DX2                !
 ! D9    D(2,3,4,5)            139.0328         estimate D2E/DX2                !
 ! D10   D(2,3,4,16)           -40.128          estimate D2E/DX2                !
 ! D11   D(28,3,4,5)           -28.9167         estimate D2E/DX2                !
 ! D12   D(28,3,4,16)          151.9225         estimate D2E/DX2                !
 ! D13   D(3,4,5,6)           -176.2669         estimate D2E/DX2                !
 ! D14   D(3,4,5,29)             2.6353         estimate D2E/DX2                !
 ! D15   D(16,4,5,6)             2.9141         estimate D2E/DX2                !
 ! D16   D(16,4,5,29)         -178.1837         estimate D2E/DX2                !
 ! D17   D(3,4,16,9)           172.6314         estimate D2E/DX2                !
 ! D18   D(3,4,16,35)           -4.8437         estimate D2E/DX2                !
 ! D19   D(5,4,16,9)            -6.537          estimate D2E/DX2                !
 ! D20   D(5,4,16,35)          175.9879         estimate D2E/DX2                !
 ! D21   D(4,5,6,7)              1.9856         estimate D2E/DX2                !
 ! D22   D(4,5,6,30)          -179.8273         estimate D2E/DX2                !
 ! D23   D(29,5,6,7)          -176.9158         estimate D2E/DX2                !
 ! D24   D(29,5,6,30)            1.2713         estimate D2E/DX2                !
 ! D25   D(5,6,7,8)            178.5459         estimate D2E/DX2                !
 ! D26   D(5,6,7,9)             -3.4355         estimate D2E/DX2                !
 ! D27   D(30,6,7,8)             0.3417         estimate D2E/DX2                !
 ! D28   D(30,6,7,9)           178.3603         estimate D2E/DX2                !
 ! D29   D(6,7,9,10)           176.371          estimate D2E/DX2                !
 ! D30   D(6,7,9,16)            -0.0674         estimate D2E/DX2                !
 ! D31   D(8,7,9,10)            -5.6529         estimate D2E/DX2                !
 ! D32   D(8,7,9,16)           177.9088         estimate D2E/DX2                !
 ! D33   D(7,9,10,11)          142.6272         estimate D2E/DX2                !
 ! D34   D(7,9,10,15)          -40.2642         estimate D2E/DX2                !
 ! D35   D(16,9,10,11)         -40.9325         estimate D2E/DX2                !
 ! D36   D(16,9,10,15)         136.1761         estimate D2E/DX2                !
 ! D37   D(7,9,16,4)             5.0972         estimate D2E/DX2                !
 ! D38   D(7,9,16,35)         -177.3846         estimate D2E/DX2                !
 ! D39   D(10,9,16,4)         -171.5237         estimate D2E/DX2                !
 ! D40   D(10,9,16,35)           5.9945         estimate D2E/DX2                !
 ! D41   D(9,10,11,12)         176.5255         estimate D2E/DX2                !
 ! D42   D(9,10,11,31)          -4.5389         estimate D2E/DX2                !
 ! D43   D(15,10,11,12)         -0.4218         estimate D2E/DX2                !
 ! D44   D(15,10,11,31)        178.5138         estimate D2E/DX2                !
 ! D45   D(9,10,15,14)        -177.1328         estimate D2E/DX2                !
 ! D46   D(11,10,15,14)         -0.0421         estimate D2E/DX2                !
 ! D47   D(10,11,12,13)          0.4114         estimate D2E/DX2                !
 ! D48   D(10,11,12,32)       -179.5807         estimate D2E/DX2                !
 ! D49   D(31,11,12,13)       -178.5211         estimate D2E/DX2                !
 ! D50   D(31,11,12,32)          1.4869         estimate D2E/DX2                !
 ! D51   D(11,12,13,14)          0.0268         estimate D2E/DX2                !
 ! D52   D(11,12,13,33)        179.8905         estimate D2E/DX2                !
 ! D53   D(32,12,13,14)       -179.9811         estimate D2E/DX2                !
 ! D54   D(32,12,13,33)         -0.1175         estimate D2E/DX2                !
 ! D55   D(12,13,14,15)         -0.5171         estimate D2E/DX2                !
 ! D56   D(12,13,14,34)        179.3998         estimate D2E/DX2                !
 ! D57   D(33,13,14,15)        179.6184         estimate D2E/DX2                !
 ! D58   D(33,13,14,34)         -0.4647         estimate D2E/DX2                !
 ! D59   D(13,14,15,10)          0.5245         estimate D2E/DX2                !
 ! D60   D(34,14,15,10)       -179.3971         estimate D2E/DX2                !
 ! D61   D(2,17,18,19)          -7.0024         estimate D2E/DX2                !
 ! D62   D(2,17,18,20)         171.5318         estimate D2E/DX2                !
 ! D63   D(21,17,18,19)        176.7708         estimate D2E/DX2                !
 ! D64   D(21,17,18,20)         -4.695          estimate D2E/DX2                !
 ! D65   D(2,17,21,22)        -171.2702         estimate D2E/DX2                !
 ! D66   D(2,17,21,37)           5.9813         estimate D2E/DX2                !
 ! D67   D(18,17,21,22)          5.0424         estimate D2E/DX2                !
 ! D68   D(18,17,21,37)       -177.7061         estimate D2E/DX2                !
 ! D69   D(17,18,20,23)          0.6559         estimate D2E/DX2                !
 ! D70   D(17,18,20,36)       -176.9796         estimate D2E/DX2                !
 ! D71   D(19,18,20,23)        179.202          estimate D2E/DX2                !
 ! D72   D(19,18,20,36)          1.5666         estimate D2E/DX2                !
 ! D73   D(18,20,23,22)          3.1604         estimate D2E/DX2                !
 ! D74   D(18,20,23,24)       -173.6532         estimate D2E/DX2                !
 ! D75   D(36,20,23,22)       -179.1515         estimate D2E/DX2                !
 ! D76   D(36,20,23,24)          4.035          estimate D2E/DX2                !
 ! D77   D(17,21,22,23)         -1.3421         estimate D2E/DX2                !
 ! D78   D(17,21,22,38)        175.8826         estimate D2E/DX2                !
 ! D79   D(37,21,22,23)       -178.5366         estimate D2E/DX2                !
 ! D80   D(37,21,22,38)         -1.312          estimate D2E/DX2                !
 ! D81   D(21,22,23,20)         -2.8225         estimate D2E/DX2                !
 ! D82   D(21,22,23,24)        173.9099         estimate D2E/DX2                !
 ! D83   D(38,22,23,20)        179.8648         estimate D2E/DX2                !
 ! D84   D(38,22,23,24)         -3.4028         estimate D2E/DX2                !
 ! D85   D(20,23,24,25)         13.6082         estimate D2E/DX2                !
 ! D86   D(20,23,24,26)        -92.8689         estimate D2E/DX2                !
 ! D87   D(20,23,24,27)        150.1492         estimate D2E/DX2                !
 ! D88   D(22,23,24,25)       -163.2469         estimate D2E/DX2                !
 ! D89   D(22,23,24,26)         90.276          estimate D2E/DX2                !
 ! D90   D(22,23,24,27)        -26.7059         estimate D2E/DX2                !
 ! D91   D(23,24,25,39)         83.8789         estimate D2E/DX2                !
 ! D92   D(26,24,25,39)       -170.6694         estimate D2E/DX2                !
 ! D93   D(27,24,25,39)        -40.3977         estimate D2E/DX2                !
 ! D94   D(23,24,26,40)       -179.3816         estimate D2E/DX2                !
 ! D95   D(23,24,26,41)         61.9166         estimate D2E/DX2                !
 ! D96   D(23,24,26,42)        -58.7731         estimate D2E/DX2                !
 ! D97   D(25,24,26,40)         64.2118         estimate D2E/DX2                !
 ! D98   D(25,24,26,41)        -54.49           estimate D2E/DX2                !
 ! D99   D(25,24,26,42)       -175.1797         estimate D2E/DX2                !
 ! D100  D(27,24,26,40)        -72.7264         estimate D2E/DX2                !
 ! D101  D(27,24,26,41)        168.5718         estimate D2E/DX2                !
 ! D102  D(27,24,26,42)         47.8822         estimate D2E/DX2                !
 ! D103  D(23,24,27,43)       -163.6658         estimate D2E/DX2                !
 ! D104  D(25,24,27,43)        -34.1849         estimate D2E/DX2                !
 ! D105  D(26,24,27,43)         90.7005         estimate D2E/DX2                !
 --------------------------------------------------------------------------------
 Trust Radius=3.00D-01 FncErr=1.00D-07 GrdErr=1.00D-06 EigMax=2.50D+02 EigMin=1.00D-04
 Number of steps in this run=    232 maximum allowed number of steps=    258.
 GradGradGradGradGradGradGradGradGradGradGradGradGradGradGradGradGradGrad

                          Input orientation:                          
 ---------------------------------------------------------------------
 Center     Atomic      Atomic             Coordinates (Angstroms)
 Number     Number       Type             X           Y           Z
 ---------------------------------------------------------------------
      1          8           0        0.196912   -4.525012   -1.565740
      2          6           0        0.452320   -3.416867   -1.154562
      3          7           0        1.738830   -2.965800   -1.074822
      4          6           0        2.197483   -1.728984   -0.601175
      5          6           0        3.344516   -1.671427    0.187567
      6          6           0        3.757350   -0.466464    0.720551
      7          6           0        3.014594    0.687353    0.511157
      8         17           0        3.548947    2.156143    1.226585
      9          6           0        1.879608    0.657353   -0.300362
     10          6           0        0.999847    1.822601   -0.505681
     11          6           0        0.415867    2.084184   -1.745491
     12          6           0       -0.457546    3.150557   -1.858024
     13          6           0       -0.715580    3.926659   -0.739174
     14          6           0       -0.078498    3.591148    0.445785
     15          7           0        0.748339    2.570324    0.563150
     16          6           0        1.520277   -0.550525   -0.887608
     17          6           0       -0.591459   -2.425544   -0.727458
     18          6           0       -0.639532   -1.938152    0.578203
     19         17           0        0.393253   -2.599468    1.789876
     20          6           0       -1.494437   -0.899342    0.906398
     21          6           0       -1.479931   -1.925840   -1.675190
     22          6           0       -2.331502   -0.883087   -1.355581
     23          6           0       -2.305608   -0.365432   -0.074932
     24         16           0       -3.281464    1.102606    0.340635
     25          7           0       -2.844057    1.779486    1.643736
     26          6           0       -4.830164    0.291155    0.871027
     27          7           0       -3.372645    1.793715   -1.030875
     28          1           0        2.439810   -3.682174   -1.224103
     29          1           0        3.900572   -2.572972    0.396399
     30          1           0        4.646256   -0.418180    1.329127
     31          1           0        0.656221    1.475105   -2.602887
     32          1           0       -0.929722    3.372985   -2.803054
     33          1           0       -1.388846    4.768232   -0.784369
     34          1           0       -0.232836    4.165957    1.350868
     35          1           0        0.669836   -0.564050   -1.547525
     36          1           0       -1.513419   -0.474697    1.898547
     37          1           0       -1.459435   -2.336649   -2.673506
     38          1           0       -2.983109   -0.433018   -2.086051
     39          1           0       -2.071201    2.417870    1.549406
     40          1           0       -5.538729    1.062119    1.148817
     41          1           0       -4.590541   -0.321104    1.730189
     42          1           0       -5.206423   -0.304589    0.048295
     43          1           0       -3.653720    2.758968   -0.982404
 ---------------------------------------------------------------------
                    Distance matrix (angstroms):
                    1          2          3          4          5
     1  O    0.000000
     2  C    1.209251   0.000000
     3  N    2.247144   1.365623   0.000000
     4  C    3.570777   2.490136   1.401577   0.000000
     5  C    4.596134   3.634923   2.418110   1.393238   0.000000
     6  C    5.863076   4.810836   3.680281   2.402936   1.380739
     7  C    6.278661   5.117078   4.181917   2.782739   2.403623
     8  Cl   7.979414   6.805688   5.899771   4.501263   3.971352
     9  C    5.593707   4.400690   3.707673   2.426135   2.794144
    10  C    6.485417   5.307811   4.878402   3.749294   4.264540
    11  C    6.615265   5.532819   5.263304   4.361635   5.139875
    12  C    7.708963   6.667366   6.545784   5.695504   6.472376
    13  C    8.540878   7.447409   7.324123   6.363275   6.977234
    14  C    8.366250   7.207991   6.971979   5.880477   6.283183
    15  N    7.428327   6.235753   5.857704   4.683985   4.987348
    16  C    4.243549   3.070457   2.432358   1.389034   2.395886
    17  C    2.394162   1.501537   2.417185   2.877384   4.110701
    18  C    3.462366   2.526106   3.073298   3.079503   4.012029
    19  Cl   3.873814   3.056361   3.186106   3.119313   3.484050
    20  C    4.702937   3.791484   4.318507   4.073248   4.952605
    21  C    3.095073   2.495558   3.435459   3.836096   5.177825
    22  C    4.438543   3.769631   4.580843   4.668659   5.934641
    23  C    5.078113   4.252414   4.911128   4.734346   5.805035
    24  S    6.885017   6.049991   6.615043   6.238891   7.184866
    25  N    7.700320   6.760078   7.135205   6.539580   7.233786
    26  C    7.375960   6.764398   7.585892   7.458965   8.434704
    27  N    7.276959   6.464969   6.984418   6.604572   7.655852
    28  H    2.420266   2.006325   1.013336   2.064392   2.618093
    29  H    4.623586   3.874026   2.644227   2.146621   1.079627
    30  H    6.711407   5.722755   4.552193   3.382419   2.137361
    31  H    6.106394   5.105938   4.819612   4.080260   4.991415
    32  H    8.073327   7.122475   7.091414   6.376344   7.256653
    33  H    9.459892   8.397784   8.347573   7.423552   8.050999
    34  H    9.177377   8.015350   7.786745   6.668377   6.944478
    35  H    3.989137   2.887957   2.671067   2.141577   3.375017
    36  H    5.597462   4.673539   5.061980   4.646788   5.287641
    37  H    2.959657   2.669995   3.630499   4.246983   5.630827
    38  H    5.208424   4.644696   5.452915   5.542826   6.836800
    39  H    7.940534   6.908238   7.098367   6.327958   6.921484
    40  H    8.454728   7.826847   8.609969   8.408430   9.343892
    41  H    7.173263   6.583008   7.411036   7.314004   8.195620
    42  H    7.043657   6.569209   7.521966   7.567597   8.660611
    43  H    8.259784   7.418231   7.865184   7.384011   8.364959
                    6          7          8          9         10
     6  C    0.000000
     7  C    1.388102   0.000000
     8  Cl   2.679098   1.718928   0.000000
     9  C    2.414775   1.395584   2.713785   0.000000
    10  C    3.787781   2.526253   3.099985   1.474429   0.000000
    11  C    4.873671   3.714428   4.319098   2.503355   1.395202
    12  C    6.123498   4.871976   5.153219   3.755618   2.390877
    13  C    6.437191   5.096138   5.018479   4.197133   2.724751
    14  C    5.590477   4.243054   3.978347   3.605283   2.279445
    15  N    4.277967   2.946895   2.907765   2.384299   1.328437
    16  C    2.756399   2.392043   3.988906   1.390304   2.459359
    17  C    4.984663   4.922186   6.477121   3.974020   4.541825
    18  C    4.638825   4.500046   5.892963   3.722176   4.243304
    19  Cl   4.124355   4.394285   5.735114   4.145507   5.019186
    20  C    5.272873   4.796371   5.905441   3.906885   3.952770
    21  C    5.941251   5.640004   7.097358   4.455282   4.644121
    22  C    6.446550   5.876371   7.105222   4.606506   4.375039
    23  C    6.115755   5.454943   6.506005   4.314272   3.987363
    24  S    7.221580   6.312040   6.967737   5.219750   4.423151
    25  N    7.033856   6.066240   6.417662   5.229887   4.404253
    26  C    8.622181   7.862995   8.591513   6.821092   6.183015
    27  N    7.681974   6.663237   7.289439   5.423204   4.404015
    28  H    3.982258   4.736483   6.428219   4.471981   5.735170
    29  H    2.136110   3.380510   4.814289   3.873599   5.343129
    30  H    1.078355   2.133916   2.800310   3.386199   4.656599
    31  H    4.942866   3.984940   4.847322   2.732584   2.153394
    32  H    7.008980   5.809840   6.146314   4.640093   3.377107
    33  H    7.493341   6.141843   5.937066   5.274124   3.802665
    34  H    6.146398   4.832349   4.284470   4.415800   3.233821
    35  H    3.832288   3.361855   4.835744   2.123862   2.624967
    36  H    5.400810   4.876280   5.744598   4.198735   4.168261
    37  H    6.498620   6.269259   7.776875   5.073960   5.295932
    38  H    7.301501   6.631226   7.768209   5.293733   4.842450
    39  H    6.555790   5.471558   5.635492   4.704249   3.742867
    40  H    9.430644   8.585242   9.153622   7.569391   6.787390
    41  H    8.409981   7.767954   8.523006   6.851522   6.391168
    42  H    8.990403   8.293570   9.170609   7.159520   6.584042
    43  H    8.259989   7.140639   7.557873   5.958162   4.770716
                   11         12         13         14         15
    11  C    0.000000
    12  C    1.382991   0.000000
    13  C    2.384861   1.385909   0.000000
    14  C    2.705000   2.375991   1.386567   0.000000
    15  N    2.382582   2.766390   2.383013   1.318907   0.000000
    16  C    2.982847   4.307145   5.006622   4.635458   3.527079
    17  C    4.731675   5.691134   6.353426   6.151439   5.330987
    18  C    4.763676   5.644756   6.011428   5.559267   4.717284
    19  Cl   5.868213   6.862493   7.086320   6.352389   5.325194
    20  C    4.425292   5.011871   5.157985   4.730914   4.145654
    21  C    4.436134   5.181554   5.975960   6.074513   5.494620
    22  C    4.062606   4.475985   5.111244   5.323507   5.009291
    23  C    4.024651   4.353955   4.625089   4.570086   4.283971
    24  S    4.357255   4.123435   3.965478   4.057448   4.294534
    25  N    4.712410   4.453941   3.849548   3.516464   3.833849
    26  C    6.130413   5.894377   5.721838   5.800785   6.033995
    27  N    3.866248   3.320090   3.419727   4.032704   4.486263
    28  H    6.133439   7.448673   8.251423   7.876015   6.719306
    29  H    6.198384   7.538859   8.052552   7.337016   6.034722
    30  H    5.797524   6.995899   7.204497   6.259257   4.971079
    31  H    1.078831   2.145329   3.371259   3.783101   3.351385
    32  H    2.142442   1.079586   2.147560   3.365581   3.845971
    33  H    3.374145   2.153353   1.078691   2.148446   3.348756
    34  H    3.787088   3.373207   2.158374   1.083237   2.032056
    35  H    2.667740   3.894317   4.768571   4.668935   3.779605
    36  H    4.852735   5.326271   5.192885   4.549792   4.021317
    37  H    4.890985   5.637217   6.597271   6.839279   6.279219
    38  H    4.243268   4.390042   5.095345   5.571433   5.473759
    39  H    4.141642   3.840741   3.058062   2.562308   2.990944
    40  H    6.699168   6.262674   5.918856   6.058413   6.491911
    41  H    6.552091   6.481462   6.257520   6.108514   6.182716
    42  H    6.366636   6.174456   6.220227   6.452160   6.632450
    43  H    4.195137   3.337002   3.171014   3.938840   4.669310
                   16         17         18         19         20
    16  C    0.000000
    17  C    2.828563   0.000000
    18  C    2.956160   1.394494   0.000000
    19  Cl   3.554894   2.708668   1.723989   0.000000
    20  C    3.525426   2.411255   1.384811   2.689672   0.000000
    21  C    3.393084   1.391862   2.405036   3.996157   2.778220
    22  C    3.894329   2.408622   2.777668   4.501572   2.411948
    23  C    3.915622   2.758289   2.382403   3.968914   1.380604
    24  S    5.224762   4.563419   4.035152   5.413797   2.742508
    25  N    5.557343   5.327198   4.451530   5.447638   3.088893
    26  C    6.642990   5.282256   4.755728   6.040204   3.541978
    27  N    5.427400   5.062530   4.897537   6.437288   3.812250
    28  H    3.281157   3.318790   3.971432   3.800621   5.268918
    29  H    3.377095   4.632832   4.587875   3.774091   5.671619
    30  H    3.834472   5.974338   5.551014   4.801910   6.174004
    31  H    2.791406   4.504331   4.842378   5.997304   4.751675
    32  H    5.006532   6.168100   6.302800   7.649540   5.686099
    33  H    6.063236   7.238057   6.884305   8.005349   5.915339
    34  H    5.507212   6.920689   6.166244   6.808501   5.238936
    35  H    1.076533   2.393436   2.849793   3.918886   3.289109
    36  H    4.119675   3.398782   2.156082   2.856897   1.079372
    37  H    3.906194   2.132695   3.377077   4.839763   3.857822
    38  H    4.661604   3.396458   3.854352   5.578184   3.374664
    39  H    5.258243   5.552693   4.686986   5.595090   3.427829
    40  H    7.521782   6.337167   5.773158   7.000470   4.501377
    41  H    6.651886   5.144061   4.421808   5.480211   3.255588
    42  H    6.795946   5.137911   4.879121   6.297296   3.856023
    43  H    6.142636   6.026741   5.795150   7.264734   4.649012
                   21         22         23         24         25
    21  C    0.000000
    22  C    1.383712   0.000000
    23  C    2.382739   1.381557   0.000000
    24  S    4.059626   2.778948   1.811112   0.000000
    25  N    5.158057   4.043255   2.800789   1.532176   0.000000
    26  C    4.756296   3.546821   2.774766   1.827085   2.599390
    27  N    4.222867   2.890447   2.591199   1.538501   2.726381
    28  H    4.318860   5.533317   5.902573   7.620729   8.122406
    29  H    5.801730   6.690582   6.603943   8.068124   8.123408
    30  H    6.987784   7.490854   7.092431   8.132567   7.812394
    31  H    4.121916   4.005413   4.307037   4.930359   5.511661
    32  H    5.445398   4.708961   4.828196   4.535205   5.096848
    33  H    6.753700   5.757802   5.262913   4.276032   4.116544
    34  H    6.915365   6.100993   5.182931   4.438336   3.549576
    35  H    2.547993   3.024344   3.325845   4.685687   5.293746
    36  H    3.857271   3.380147   2.129348   2.835658   2.629993
    37  H    1.079731   2.147154   3.369613   4.922734   6.123587
    38  H    2.157979   1.077377   2.123247   2.887206   4.338873
    39  H    5.442007   4.404886   3.231128   2.157726   1.006846
    40  H    5.777262   4.510226   3.740125   2.397925   2.832105
    41  H    4.883409   3.865367   2.912275   2.381490   2.733159
    42  H    4.414249   3.251261   2.904068   2.402317   3.531228
    43  H    5.210830   3.892569   3.521759   2.152334   2.917456
                   26         27         28         29         30
    26  C    0.000000
    27  N    2.828300   0.000000
    28  H    8.545726   7.987949   0.000000
    29  H    9.200774   8.602602   2.447484   0.000000
    30  H    9.513965   8.646668   4.694789   2.463566   0.000000
    31  H    6.600775   4.336416   5.628477   5.992366   5.913175
    32  H    6.181423   3.406257   7.976346   8.301967   7.908185
    33  H    5.884490   3.583849   9.287698   9.124990   8.233358
    34  H    6.031564   4.599852   8.681399   7.962992   6.694798
    35  H    6.068835   4.708252   3.600015   4.272267   4.910022
    36  H    3.555717   4.145351   5.972175   5.997542   6.186197
    37  H    5.552556   4.839268   4.372107   6.181411   7.548580
    38  H    3.560948   2.494689   6.380284   7.624108   8.358880
    39  H    3.548942   2.956548   8.077877   7.867655   7.294924
    40  H    1.083336   3.158830   9.581031  10.142999  10.293576
    41  H    1.081868   3.684997   8.333695   8.885320   9.246010
    42  H    1.083222   2.988348   8.455292   9.391703   9.936232
    43  H    3.302927   1.006512   8.870053   9.348691   9.182976
                   31         32         33         34         35
    31  H    0.000000
    32  H    2.481377   0.000000
    33  H    4.281821   2.496517   0.000000
    34  H    4.864493   4.285969   2.501666   0.000000
    35  H    2.296111   4.431160   5.766611   5.620362   0.000000
    36  H    5.363952   6.103312   5.890829   4.845154   4.080441
    37  H    4.360098   5.735616   7.352085   7.744935   2.990608
    38  H    4.141591   4.383622   5.593661   6.366081   3.694751
    39  H    5.056597   4.599905   3.381762   2.544565   5.098638
    40  H    7.254188   6.496178   5.890162   6.150377   6.961391
    41  H    7.037786   6.899144   6.517299   6.266354   6.202741
    42  H    6.675827   6.320198   6.403181   6.813152   6.094618
    43  H    4.780153   3.333459   3.034141   4.373354   5.482239
                   36         37         38         39         40
    36  H    0.000000
    37  H    4.936948   0.000000
    38  H    4.247205   2.508086   0.000000
    39  H    2.966473   6.388481   4.709106   0.000000
    40  H    4.373445   6.542355   4.385316   3.744634   0.000000
    41  H    3.085550   5.767042   4.142469   3.725820   1.774925
    42  H    4.134083   5.057409   3.084647   4.415284   1.785908
    43  H    4.830876   5.800002   3.443331   3.005125   3.312802
                   41         42         43
    41  H    0.000000
    42  H    1.791187   0.000000
    43  H    4.209826   3.585890   0.000000
 Stoichiometry    C19H16Cl2N4OS
 Framework group  C1[X(C19H16Cl2N4OS)]
 Deg. of freedom   123
 Full point group                 C1      NOp   1
 Largest Abelian subgroup         C1      NOp   1
 Largest concise Abelian subgroup C1      NOp   1
                         Standard orientation:                         
 ---------------------------------------------------------------------
 Center     Atomic      Atomic             Coordinates (Angstroms)
 Number     Number       Type             X           Y           Z
 ---------------------------------------------------------------------
      1          8           0       -2.539934   -3.901860    1.201003
      2          6           0       -2.191966   -2.784964    0.894817
      3          7           0       -3.060287   -1.731795    0.936992
      4          6           0       -2.820657   -0.394566    0.592296
      5          6           0       -3.785947    0.323255   -0.110598
      6          6           0       -3.524667    1.615800   -0.519864
      7          6           0       -2.288278    2.196273   -0.272439
      8         17           0       -1.997580    3.794447   -0.834619
      9          6           0       -1.318623    1.505820    0.456053
     10          6           0        0.040803    2.026074    0.691081
     11          6           0        0.697682    1.823837    1.905247
     12          6           0        1.998846    2.272472    2.040766
     13          6           0        2.601568    2.914178    0.970400
     14          6           0        1.861962    3.075162   -0.191338
     15          7           0        0.624134    2.641902   -0.331281
     16          6           0       -1.626216    0.232793    0.922674
     17          6           0       -0.793480   -2.433299    0.476270
     18          6           0       -0.523128   -1.910887   -0.788091
     19         17           0       -1.770353   -1.821565   -1.974930
     20          6           0        0.740136   -1.431734   -1.091863
     21          6           0        0.241965   -2.559551    1.397788
     22          6           0        1.504571   -2.076193    1.103087
     23          6           0        1.727764   -1.492529   -0.129074
     24         16           0        3.315160   -0.700954   -0.494735
     25          7           0        3.268396    0.232009   -1.709214
     26          6           0        4.210376   -2.134259   -1.189332
     27          7           0        3.775222   -0.297394    0.916812
     28          1           0       -4.028122   -1.997212    1.077339
     29          1           0       -4.732023   -0.138220   -0.350545
     30          1           0       -4.270777    2.174949   -1.061641
     31          1           0        0.191928    1.341759    2.727249
     32          1           0        2.534606    2.124060    2.966207
     33          1           0        3.613957    3.280872    1.035045
     34          1           0        2.275555    3.577035   -1.057633
     35          1           0       -0.894104   -0.282166    1.520797
     36          1           0        0.958666   -0.979496   -2.047252
     37          1           0        0.029413   -2.999845    2.360483
     38          1           0        2.307869   -2.101142    1.820604
     39          1           0        2.939495    1.163382   -1.514004
     40          1           0        5.210688   -1.813250   -1.453805
     41          1           0        3.673230   -2.446118   -2.075141
     42          1           0        4.238343   -2.918185   -0.442306
     43          1           0        4.514519    0.385579    0.924253
 ---------------------------------------------------------------------
 Rotational constants (GHZ):           0.1981731           0.1712038           0.1135579
 Standard basis: def2SVP (5D, 7F)
 There are   497 symmetry adapted cartesian basis functions of A   symmetry.
 There are   470 symmetry adapted basis functions of A   symmetry.
   470 basis functions,   823 primitive gaussians,   497 cartesian basis functions
   108 alpha electrons      108 beta electrons
       nuclear repulsion energy      3092.0581533035 Hartrees.
 NAtoms=   43 NActive=   43 NUniq=   43 SFac= 1.00D+00 NAtFMM=   60 NAOKFM=F Big=F
 Integral buffers will be    131072 words long.
 Raffenetti 2 integral format.
 Two-electron integral symmetry is turned on.
 Nuclear repulsion after empirical dispersion term =     3091.9869060348 Hartrees.
 One-electron integrals computed using PRISM.
   1 Symmetry operations used in ECPInt.
 ECPInt:  NShTT=   23436 NPrTT=   89682 LenC2=   21175 LenP2D=   54046.
 LDataN:  DoStor=T MaxTD1= 4 Len=   56
 NBasis=   470 RedAO= T EigKep=  1.79D-04  NBF=   470
 NBsUse=   470 1.00D-06 EigRej= -1.00D+00 NBFU=   470
 ExpMin= 1.22D-01 ExpMax= 1.04D+04 ExpMxC= 1.57D+03 IAcc=3 IRadAn=         5 AccDes= 0.00D+00
 Harris functional with IExCor= 1009 and IRadAn=       5 diagonalized for initial guess.
 HarFok:  IExCor= 1009 AccDes= 0.00D+00 IRadAn=         5 IDoV= 1 UseB2=F ITyADJ=14
 ICtDFT=  3500011 ScaDFX=  1.000000  1.000000  1.000000  1.000000
 FoFCou: FMM=F IPFlag=           0 FMFlag=      100000 FMFlg1=           0
         NFxFlg=           0 DoJE=T BraDBF=F KetDBF=T FulRan=T
         wScrn=  0.000000 ICntrl=       500 IOpCl=  0 I1Cent=   200000004 NGrid=           0
         NMat0=    1 NMatS0=      1 NMatT0=    0 NMatD0=    1 NMtDS0=    0 NMtDT0=    0
 Petite list used in FoFCou.
 Requested convergence on RMS density matrix=1.00D-08 within 128 cycles.
 Requested convergence on MAX density matrix=1.00D-06.
 Requested convergence on             energy=1.00D-06.
 No special actions if energy rises.
 Integral accuracy reduced to 1.0D-05 until final iterations.
 Initial convergence to 1.0D-05 achieved.  Increase integral accuracy.
 SCF Done:  E(RPBE1PBE) =  -2343.64490647     A.U. after   16 cycles
            NFock= 16  Conv=0.25D-08     -V/T= 2.0050

 **********************************************************************

            Population analysis using the SCF Density.

 **********************************************************************

 Orbital symmetries:
       Occupied  (A) (A) (A) (A) (A) (A) (A) (A) (A) (A) (A) (A)
                 (A) (A) (A) (A) (A) (A) (A) (A) (A) (A) (A) (A)
                 (A) (A) (A) (A) (A) (A) (A) (A) (A) (A) (A) (A)
                 (A) (A) (A) (A) (A) (A) (A) (A) (A) (A) (A) (A)
                 (A) (A) (A) (A) (A) (A) (A) (A) (A) (A) (A) (A)
                 (A) (A) (A) (A) (A) (A) (A) (A) (A) (A) (A) (A)
                 (A) (A) (A) (A) (A) (A) (A) (A) (A) (A) (A) (A)
                 (A) (A) (A) (A) (A) (A) (A) (A) (A) (A) (A) (A)
                 (A) (A) (A) (A) (A) (A) (A) (A) (A) (A) (A) (A)
       Virtual   (A) (A) (A) (A) (A) (A) (A) (A) (A) (A) (A) (A)
                 (A) (A) (A) (A) (A) (A) (A) (A) (A) (A) (A) (A)
                 (A) (A) (A) (A) (A) (A) (A) (A) (A) (A) (A) (A)
                 (A) (A) (A) (A) (A) (A) (A) (A) (A) (A) (A) (A)
                 (A) (A) (A) (A) (A) (A) (A) (A) (A) (A) (A) (A)
                 (A) (A) (A) (A) (A) (A) (A) (A) (A) (A) (A) (A)
                 (A) (A) (A) (A) (A) (A) (A) (A) (A) (A) (A) (A)
                 (A) (A) (A) (A) (A) (A) (A) (A) (A) (A) (A) (A)
                 (A) (A) (A) (A) (A) (A) (A) (A) (A) (A) (A) (A)
                 (A) (A) (A) (A) (A) (A) (A) (A) (A) (A) (A) (A)
                 (A) (A) (A) (A) (A) (A) (A) (A) (A) (A) (A) (A)
                 (A) (A) (A) (A) (A) (A) (A) (A) (A) (A) (A) (A)
                 (A) (A) (A) (A) (A) (A) (A) (A) (A) (A) (A) (A)
                 (A) (A) (A) (A) (A) (A) (A) (A) (A) (A) (A) (A)
                 (A) (A) (A) (A) (A) (A) (A) (A) (A) (A) (A) (A)
                 (A) (A) (A) (A) (A) (A) (A) (A) (A) (A) (A) (A)
                 (A) (A) (A) (A) (A) (A) (A) (A) (A) (A) (A) (A)
                 (A) (A) (A) (A) (A) (A) (A) (A) (A) (A) (A) (A)
                 (A) (A) (A) (A) (A) (A) (A) (A) (A) (A) (A) (A)
                 (A) (A) (A) (A) (A) (A) (A) (A) (A) (A) (A) (A)
                 (A) (A) (A) (A) (A) (A) (A) (A) (A) (A) (A) (A)
                 (A) (A) (A) (A) (A) (A) (A) (A) (A) (A) (A) (A)
                 (A) (A) (A) (A) (A) (A) (A) (A) (A) (A) (A) (A)
                 (A) (A) (A) (A) (A) (A) (A) (A) (A) (A) (A) (A)
                 (A) (A) (A) (A) (A) (A) (A) (A) (A) (A) (A) (A)
                 (A) (A) (A) (A) (A) (A) (A) (A) (A) (A) (A) (A)
                 (A) (A) (A) (A) (A) (A) (A) (A) (A) (A) (A) (A)
                 (A) (A) (A) (A) (A) (A) (A) (A) (A) (A) (A) (A)
                 (A) (A) (A) (A) (A) (A) (A) (A) (A) (A) (A) (A)
                 (A) (A) (A) (A) (A) (A) (A) (A) (A) (A) (A) (A)
                 (A) (A)
 The electronic state is 1-A.
 Alpha  occ. eigenvalues -- -101.69726-101.67429 -89.19118 -19.19228 -14.44184
 Alpha  occ. eigenvalues --  -14.38926 -14.35300 -14.35170 -10.35372 -10.31835
 Alpha  occ. eigenvalues --  -10.29682 -10.29561 -10.28524 -10.27917 -10.27722
 Alpha  occ. eigenvalues --  -10.27347 -10.27000 -10.26851 -10.26441 -10.26379
 Alpha  occ. eigenvalues --  -10.26123 -10.25959 -10.25537 -10.25380 -10.25268
 Alpha  occ. eigenvalues --  -10.25107 -10.25001  -9.54902  -9.52657  -8.16517
 Alpha  occ. eigenvalues --   -7.29035  -7.28060  -7.28013  -7.26795  -7.25818
 Alpha  occ. eigenvalues --   -7.25749  -6.10655  -6.10555  -6.10520  -1.07872
 Alpha  occ. eigenvalues --   -1.01404  -0.98295  -0.97847  -0.93903  -0.91847
 Alpha  occ. eigenvalues --   -0.88336  -0.86114  -0.86052  -0.83102  -0.82184
 Alpha  occ. eigenvalues --   -0.81436  -0.77793  -0.77053  -0.76992  -0.75432
 Alpha  occ. eigenvalues --   -0.70362  -0.67684  -0.66218  -0.65292  -0.64932
 Alpha  occ. eigenvalues --   -0.62991  -0.62704  -0.60322  -0.58112  -0.56113
 Alpha  occ. eigenvalues --   -0.54621  -0.53650  -0.52971  -0.51913  -0.51014
 Alpha  occ. eigenvalues --   -0.50630  -0.49387  -0.48695  -0.48311  -0.47952
 Alpha  occ. eigenvalues --   -0.46852  -0.46738  -0.45944  -0.45571  -0.44800
 Alpha  occ. eigenvalues --   -0.44615  -0.44205  -0.43688  -0.43289  -0.42529
 Alpha  occ. eigenvalues --   -0.41930  -0.41076  -0.40935  -0.39511  -0.39045
 Alpha  occ. eigenvalues --   -0.38261  -0.37212  -0.35706  -0.35307  -0.33902
 Alpha  occ. eigenvalues --   -0.32763  -0.31553  -0.30771  -0.30673  -0.30138
 Alpha  occ. eigenvalues --   -0.28513  -0.28024  -0.27725  -0.26654  -0.26394
 Alpha  occ. eigenvalues --   -0.25752  -0.24945  -0.23927
 Alpha virt. eigenvalues --   -0.05675  -0.04985  -0.03403  -0.02567  -0.02037
 Alpha virt. eigenvalues --    0.00761   0.03023   0.03881   0.05638   0.06106
 Alpha virt. eigenvalues --    0.07304   0.07606   0.08114   0.08412   0.09056
 Alpha virt. eigenvalues --    0.09587   0.10338   0.11181   0.11568   0.12297
 Alpha virt. eigenvalues --    0.12759   0.13128   0.13499   0.14094   0.14798
 Alpha virt. eigenvalues --    0.15326   0.15945   0.16034   0.16598   0.17895
 Alpha virt. eigenvalues --    0.18393   0.19952   0.21789   0.23205   0.24157
 Alpha virt. eigenvalues --    0.24939   0.25699   0.27043   0.27638   0.28499
 Alpha virt. eigenvalues --    0.28782   0.29261   0.29678   0.29833   0.30421
 Alpha virt. eigenvalues --    0.31357   0.32241   0.32855   0.33712   0.34405
 Alpha virt. eigenvalues --    0.36145   0.37206   0.37595   0.38529   0.39827
 Alpha virt. eigenvalues --    0.39950   0.40868   0.41540   0.42093   0.42425
 Alpha virt. eigenvalues --    0.43194   0.43234   0.44924   0.45353   0.45531
 Alpha virt. eigenvalues --    0.46245   0.46709   0.46961   0.48197   0.48556
 Alpha virt. eigenvalues --    0.49199   0.50200   0.50479   0.51595   0.51676
 Alpha virt. eigenvalues --    0.52649   0.52733   0.53654   0.55165   0.56425
 Alpha virt. eigenvalues --    0.57105   0.57633   0.58458   0.58717   0.59255
 Alpha virt. eigenvalues --    0.59328   0.60316   0.60619   0.61158   0.61721
 Alpha virt. eigenvalues --    0.62570   0.63134   0.63528   0.64134   0.64433
 Alpha virt. eigenvalues --    0.64762   0.65533   0.65810   0.66270   0.66365
 Alpha virt. eigenvalues --    0.66865   0.67159   0.67706   0.68156   0.68221
 Alpha virt. eigenvalues --    0.68547   0.68804   0.69359   0.69848   0.70346
 Alpha virt. eigenvalues --    0.70583   0.70642   0.71033   0.71611   0.72436
 Alpha virt. eigenvalues --    0.72516   0.72824   0.73270   0.74093   0.75252
 Alpha virt. eigenvalues --    0.75275   0.75972   0.76656   0.76878   0.77755
 Alpha virt. eigenvalues --    0.78435   0.78571   0.79129   0.79957   0.80640
 Alpha virt. eigenvalues --    0.80995   0.81540   0.82597   0.83155   0.83538
 Alpha virt. eigenvalues --    0.83898   0.84640   0.86155   0.86640   0.87318
 Alpha virt. eigenvalues --    0.87398   0.88235   0.89304   0.90224   0.91257
 Alpha virt. eigenvalues --    0.91721   0.92353   0.92963   0.93894   0.94526
 Alpha virt. eigenvalues --    0.94917   0.96961   0.97065   0.98005   0.99254
 Alpha virt. eigenvalues --    0.99519   1.00313   1.02627   1.03285   1.03966
 Alpha virt. eigenvalues --    1.04783   1.05611   1.07010   1.07601   1.08669
 Alpha virt. eigenvalues --    1.09595   1.11218   1.12848   1.13796   1.14078
 Alpha virt. eigenvalues --    1.15754   1.16387   1.17618   1.18912   1.19624
 Alpha virt. eigenvalues --    1.20309   1.20659   1.21694   1.22649   1.23239
 Alpha virt. eigenvalues --    1.23548   1.24521   1.25031   1.25352   1.26425
 Alpha virt. eigenvalues --    1.27272   1.28397   1.28968   1.29316   1.29798
 Alpha virt. eigenvalues --    1.31418   1.32241   1.32772   1.34144   1.36078
 Alpha virt. eigenvalues --    1.36694   1.37644   1.38056   1.40125   1.41227
 Alpha virt. eigenvalues --    1.42378   1.43846   1.46436   1.46918   1.47260
 Alpha virt. eigenvalues --    1.49038   1.49581   1.50509   1.51059   1.52111
 Alpha virt. eigenvalues --    1.52493   1.54045   1.55343   1.57426   1.59556
 Alpha virt. eigenvalues --    1.63773   1.65613   1.66317   1.68448   1.70023
 Alpha virt. eigenvalues --    1.70790   1.71223   1.72009   1.72850   1.73651
 Alpha virt. eigenvalues --    1.73758   1.74107   1.74642   1.75565   1.75680
 Alpha virt. eigenvalues --    1.76688   1.77108   1.77747   1.78204   1.78496
 Alpha virt. eigenvalues --    1.79117   1.80116   1.81019   1.81448   1.82093
 Alpha virt. eigenvalues --    1.82411   1.83515   1.84559   1.84843   1.86137
 Alpha virt. eigenvalues --    1.87075   1.87807   1.88032   1.90111   1.91174
 Alpha virt. eigenvalues --    1.92580   1.93379   1.94259   1.95212   1.96038
 Alpha virt. eigenvalues --    1.96716   1.97242   1.98446   1.99464   1.99966
 Alpha virt. eigenvalues --    2.00663   2.01870   2.02255   2.03283   2.05795
 Alpha virt. eigenvalues --    2.07518   2.09028   2.10186   2.12475   2.12526
 Alpha virt. eigenvalues --    2.14079   2.14810   2.16243   2.16572   2.17158
 Alpha virt. eigenvalues --    2.18642   2.19631   2.19708   2.21108   2.22778
 Alpha virt. eigenvalues --    2.24177   2.25110   2.26138   2.27234   2.29281
 Alpha virt. eigenvalues --    2.29737   2.30712   2.30984   2.31511   2.32227
 Alpha virt. eigenvalues --    2.32784   2.33696   2.34731   2.35577   2.36695
 Alpha virt. eigenvalues --    2.38384   2.39353   2.40290   2.42388   2.42770
 Alpha virt. eigenvalues --    2.43184   2.44569   2.46364   2.46438   2.48970
 Alpha virt. eigenvalues --    2.51986   2.54182   2.54298   2.55519   2.56480
 Alpha virt. eigenvalues --    2.57815   2.58945   2.60308   2.60558   2.61680
 Alpha virt. eigenvalues --    2.63098   2.63733   2.64580   2.66373   2.66657
 Alpha virt. eigenvalues --    2.68358   2.69674   2.70941   2.71721   2.73523
 Alpha virt. eigenvalues --    2.73773   2.75731   2.77092   2.80824   2.83240
 Alpha virt. eigenvalues --    2.84176   2.84567   2.84878   2.86081   2.86877
 Alpha virt. eigenvalues --    2.88457   2.89236   2.91116   2.92227   2.93755
 Alpha virt. eigenvalues --    2.95016   2.95413   2.96986   2.98497   3.03940
 Alpha virt. eigenvalues --    3.06666   3.08192   3.09865   3.12939   3.15651
 Alpha virt. eigenvalues --    3.16571   3.21420   3.22340   3.30361   3.35021
 Alpha virt. eigenvalues --    3.40492   3.43331   3.47743   3.55263   3.61021
 Alpha virt. eigenvalues --    3.67890   3.71956
          Condensed to atoms (all electrons):
               1          2          3          4          5          6
     1  O    7.660050   0.768334  -0.108758   0.002126  -0.000043   0.000000
     2  C    0.768334   4.694066   0.333882  -0.032574   0.005713  -0.000222
     3  N   -0.108758   0.333882   6.606630   0.321743  -0.089146   0.008660
     4  C    0.002126  -0.032574   0.321743   5.315311   0.205329   0.143257
     5  C   -0.000043   0.005713  -0.089146   0.205329   5.198116   0.252532
     6  C    0.000000  -0.000222   0.008660   0.143257   0.252532   5.013214
     7  C    0.000000   0.000047   0.000036  -0.203049   0.114428   0.299550
     8  Cl   0.000000  -0.000000   0.000001   0.001148   0.003303  -0.063669
     9  C    0.000000   0.000996   0.008595   0.141176  -0.155414   0.091488
    10  C   -0.000000  -0.000043  -0.000088   0.023354  -0.002708   0.014655
    11  C    0.000000  -0.000017  -0.000006   0.000242   0.000058  -0.000492
    12  C    0.000000   0.000000  -0.000000  -0.000060   0.000003  -0.000004
    13  C    0.000000  -0.000000   0.000000   0.000002   0.000000  -0.000003
    14  C   -0.000000   0.000000  -0.000000   0.000000  -0.000002   0.000033
    15  N    0.000000   0.000000   0.000000   0.000015   0.000008  -0.000159
    16  C   -0.000105  -0.028009  -0.076131   0.182984   0.068437  -0.128770
    17  C   -0.092961   0.121586  -0.160545  -0.000117   0.000367  -0.000030
    18  C   -0.003222  -0.063762  -0.008932  -0.006163  -0.003299   0.000957
    19  Cl  -0.000651   0.018539  -0.005801  -0.006746   0.009881  -0.001266
    20  C    0.000030   0.008213   0.000100  -0.002689   0.000097  -0.000065
    21  C    0.000195  -0.037342  -0.002245   0.002304  -0.000175   0.000025
    22  C    0.000419   0.009889   0.000052  -0.000131   0.000012  -0.000004
    23  C   -0.000058  -0.000696  -0.000076   0.000286  -0.000050   0.000019
    24  S   -0.000000   0.000017  -0.000000  -0.000002   0.000000   0.000000
    25  N   -0.000000   0.000000  -0.000000   0.000000  -0.000000   0.000000
    26  C   -0.000000  -0.000001   0.000000  -0.000000  -0.000000   0.000000
    27  N    0.000000   0.000000  -0.000000  -0.000000  -0.000000   0.000000
    28  H    0.007910  -0.009875   0.327979  -0.016447  -0.015230   0.000454
    29  H   -0.000055  -0.000482  -0.009230  -0.084877   0.453392  -0.061313
    30  H   -0.000000  -0.000001  -0.000149   0.015916  -0.060692   0.441347
    31  H    0.000000   0.000012  -0.000016   0.001219  -0.000088   0.000080
    32  H   -0.000000  -0.000000   0.000000  -0.000001  -0.000000   0.000000
    33  H    0.000000  -0.000000  -0.000000   0.000000  -0.000000   0.000000
    34  H   -0.000000  -0.000000   0.000000  -0.000000  -0.000000   0.000000
    35  H   -0.000236  -0.004050  -0.004135  -0.088149   0.018061  -0.003646
    36  H    0.000003  -0.000087   0.000006   0.000074  -0.000006   0.000005
    37  H    0.003636  -0.009931   0.000486   0.000148   0.000004   0.000000
    38  H   -0.000001  -0.000201   0.000004  -0.000003  -0.000000   0.000000
    39  H   -0.000000  -0.000000   0.000000  -0.000001  -0.000000  -0.000000
    40  H    0.000000   0.000000  -0.000000  -0.000000   0.000000  -0.000000
    41  H   -0.000000   0.000000  -0.000000   0.000000   0.000000  -0.000000
    42  H    0.000000  -0.000000   0.000000   0.000000  -0.000000  -0.000000
    43  H   -0.000000  -0.000000   0.000000  -0.000000   0.000000  -0.000000
               7          8          9         10         11         12
     1  O    0.000000   0.000000   0.000000  -0.000000   0.000000   0.000000
     2  C    0.000047  -0.000000   0.000996  -0.000043  -0.000017   0.000000
     3  N    0.000036   0.000001   0.008595  -0.000088  -0.000006  -0.000000
     4  C   -0.203049   0.001148   0.141176   0.023354   0.000242  -0.000060
     5  C    0.114428   0.003303  -0.155414  -0.002708   0.000058   0.000003
     6  C    0.299550  -0.063669   0.091488   0.014655  -0.000492  -0.000004
     7  C    5.286896   0.265390   0.236055  -0.093723   0.012112  -0.000270
     8  Cl   0.265390  16.925550  -0.059985   0.004165  -0.002082   0.000152
     9  C    0.236055  -0.059985   5.351514   0.230822  -0.107930   0.009791
    10  C   -0.093723   0.004165   0.230822   5.226412   0.374150   0.007657
    11  C    0.012112  -0.002082  -0.107930   0.374150   5.080309   0.385132
    12  C   -0.000270   0.000152   0.009791   0.007657   0.385132   4.857228
    13  C    0.000204  -0.000289   0.002190  -0.093961   0.053992   0.351616
    14  C    0.000245   0.001682   0.007144  -0.031480  -0.109865   0.021743
    15  N   -0.001733  -0.014707  -0.099532   0.533663  -0.044415  -0.051026
    16  C    0.078443   0.002260   0.346307  -0.096935  -0.022363   0.001443
    17  C    0.000281   0.000000  -0.004491  -0.000288  -0.000057  -0.000026
    18  C   -0.001263   0.000002   0.004208   0.001026  -0.000235   0.000014
    19  Cl   0.000339  -0.000002   0.000517  -0.000242  -0.000002   0.000000
    20  C    0.000393  -0.000002  -0.001557   0.000971   0.000300  -0.000045
    21  C   -0.000088   0.000000   0.000541   0.000175  -0.000331   0.000008
    22  C    0.000020   0.000000  -0.000486   0.000460   0.000802   0.000424
    23  C   -0.000095  -0.000000   0.001393  -0.001086   0.000356  -0.001466
    24  S   -0.000002  -0.000000  -0.000174   0.000577   0.000042  -0.000587
    25  N   -0.000002  -0.000000  -0.000031   0.000495  -0.000277   0.000513
    26  C    0.000000  -0.000000  -0.000001   0.000004   0.000008   0.000012
    27  N    0.000000  -0.000000  -0.000021  -0.000962   0.000716   0.000623
    28  H   -0.000019  -0.000000  -0.000249   0.000013  -0.000000  -0.000000
    29  H    0.016772  -0.000162  -0.002625   0.000036  -0.000001   0.000000
    30  H   -0.073836   0.003352   0.018112  -0.000313   0.000012  -0.000000
    31  H   -0.000806  -0.000007  -0.014339  -0.039962   0.424430  -0.053799
    32  H    0.000003   0.000000  -0.000511   0.013325  -0.057503   0.442688
    33  H   -0.000002   0.000000   0.000106   0.000689   0.012129  -0.060824
    34  H   -0.000084   0.000379  -0.000295   0.007192   0.000646   0.006859
    35  H    0.021885  -0.000113  -0.062180  -0.032870   0.008270   0.000199
    36  H   -0.000011  -0.000000  -0.000090   0.000140  -0.000006   0.000011
    37  H   -0.000000  -0.000000  -0.000011  -0.000004   0.000008   0.000000
    38  H   -0.000000  -0.000000  -0.000006   0.000020  -0.000079   0.000205
    39  H    0.000010  -0.000003  -0.000156  -0.000299   0.000332  -0.001126
    40  H    0.000000   0.000000   0.000000  -0.000000   0.000000  -0.000002
    41  H   -0.000000   0.000000   0.000000  -0.000000  -0.000001   0.000001
    42  H   -0.000000   0.000000   0.000000  -0.000000  -0.000000  -0.000000
    43  H    0.000000   0.000000   0.000005  -0.000035   0.000181  -0.001767
              13         14         15         16         17         18
     1  O    0.000000  -0.000000   0.000000  -0.000105  -0.092961  -0.003222
     2  C   -0.000000   0.000000   0.000000  -0.028009   0.121586  -0.063762
     3  N    0.000000  -0.000000   0.000000  -0.076131  -0.160545  -0.008932
     4  C    0.000002   0.000000   0.000015   0.182984  -0.000117  -0.006163
     5  C    0.000000  -0.000002   0.000008   0.068437   0.000367  -0.003299
     6  C   -0.000003   0.000033  -0.000159  -0.128770  -0.000030   0.000957
     7  C    0.000204   0.000245  -0.001733   0.078443   0.000281  -0.001263
     8  Cl  -0.000289   0.001682  -0.014707   0.002260   0.000000   0.000002
     9  C    0.002190   0.007144  -0.099532   0.346307  -0.004491   0.004208
    10  C   -0.093961  -0.031480   0.533663  -0.096935  -0.000288   0.001026
    11  C    0.053992  -0.109865  -0.044415  -0.022363  -0.000057  -0.000235
    12  C    0.351616   0.021743  -0.051026   0.001443  -0.000026   0.000014
    13  C    5.126332   0.348970  -0.028996  -0.000188   0.000008  -0.000017
    14  C    0.348970   4.839100   0.501242   0.000030  -0.000007  -0.000022
    15  N   -0.028996   0.501242   6.381839  -0.002414   0.000011  -0.000078
    16  C   -0.000188   0.000030  -0.002414   5.219789   0.013348  -0.027931
    17  C    0.000008  -0.000007   0.000011   0.013348   6.031119   0.176410
    18  C   -0.000017  -0.000022  -0.000078  -0.027931   0.176410   5.250577
    19  Cl  -0.000000   0.000000  -0.000003  -0.004636  -0.093083   0.294260
    20  C   -0.000006   0.000145   0.000604   0.001262   0.090653   0.266835
    21  C   -0.000023   0.000010   0.000003  -0.016613   0.214948   0.118368
    22  C   -0.000214   0.000111  -0.000050   0.000601   0.125359  -0.170755
    23  C    0.000776  -0.001054  -0.000016  -0.000147  -0.230988   0.143488
    24  S    0.001085   0.001676  -0.000324  -0.000021   0.000325   0.003229
    25  N   -0.002561   0.001810  -0.001201   0.000002  -0.000015   0.002072
    26  C    0.000027  -0.000007  -0.000003  -0.000000  -0.000165  -0.000797
    27  N    0.007451  -0.003714   0.000038  -0.000021  -0.000043  -0.000056
    28  H    0.000000   0.000000  -0.000000   0.008517   0.017604   0.000147
    29  H   -0.000000   0.000000  -0.000000   0.018561  -0.000203  -0.000010
    30  H    0.000000  -0.000001   0.000032  -0.001767   0.000002  -0.000005
    31  H    0.011753  -0.000001   0.005615  -0.000763  -0.000107   0.000080
    32  H   -0.065897   0.011147  -0.000150  -0.000010  -0.000000  -0.000000
    33  H    0.424911  -0.048574   0.006149   0.000002  -0.000000   0.000000
    34  H   -0.078924   0.425649  -0.042475   0.000029  -0.000000   0.000003
    35  H    0.000015  -0.000092   0.000049   0.467479   0.022414  -0.016614
    36  H    0.000012   0.000013   0.000294  -0.000035   0.018985  -0.050713
    37  H    0.000000   0.000000  -0.000000  -0.000160  -0.080595   0.016620
    38  H   -0.000055   0.000017  -0.000003  -0.000037   0.015748  -0.001784
    39  H    0.003860   0.006024   0.000823  -0.000012   0.000002  -0.000178
    40  H   -0.000000  -0.000003   0.000000  -0.000000   0.000004   0.000005
    41  H   -0.000003   0.000004  -0.000000   0.000000   0.000030   0.000223
    42  H    0.000000  -0.000001   0.000000   0.000000   0.000016   0.000052
    43  H    0.003624  -0.000469   0.000038   0.000002   0.000006  -0.000011
              19         20         21         22         23         24
     1  O   -0.000651   0.000030   0.000195   0.000419  -0.000058  -0.000000
     2  C    0.018539   0.008213  -0.037342   0.009889  -0.000696   0.000017
     3  N   -0.005801   0.000100  -0.002245   0.000052  -0.000076  -0.000000
     4  C   -0.006746  -0.002689   0.002304  -0.000131   0.000286  -0.000002
     5  C    0.009881   0.000097  -0.000175   0.000012  -0.000050   0.000000
     6  C   -0.001266  -0.000065   0.000025  -0.000004   0.000019   0.000000
     7  C    0.000339   0.000393  -0.000088   0.000020  -0.000095  -0.000002
     8  Cl  -0.000002  -0.000002   0.000000   0.000000  -0.000000  -0.000000
     9  C    0.000517  -0.001557   0.000541  -0.000486   0.001393  -0.000174
    10  C   -0.000242   0.000971   0.000175   0.000460  -0.001086   0.000577
    11  C   -0.000002   0.000300  -0.000331   0.000802   0.000356   0.000042
    12  C    0.000000  -0.000045   0.000008   0.000424  -0.001466  -0.000587
    13  C   -0.000000  -0.000006  -0.000023  -0.000214   0.000776   0.001085
    14  C    0.000000   0.000145   0.000010   0.000111  -0.001054   0.001676
    15  N   -0.000003   0.000604   0.000003  -0.000050  -0.000016  -0.000324
    16  C   -0.004636   0.001262  -0.016613   0.000601  -0.000147  -0.000021
    17  C   -0.093083   0.090653   0.214948   0.125359  -0.230988   0.000325
    18  C    0.294260   0.266835   0.118368  -0.170755   0.143488   0.003229
    19  Cl  16.897183  -0.066217   0.003232   0.000419   0.004625  -0.000037
    20  C   -0.066217   5.096522  -0.124571   0.075511   0.206942  -0.050677
    21  C    0.003232  -0.124571   5.088337   0.220563   0.129724   0.001519
    22  C    0.000419   0.075511   0.220563   5.155327   0.174272  -0.032797
    23  C    0.004625   0.206942   0.129724   0.174272   5.967850   0.114212
    24  S   -0.000037  -0.050677   0.001519  -0.032797   0.114212  14.606362
    25  N   -0.000002   0.012205   0.000039   0.004122  -0.074964   0.372565
    26  C    0.000004  -0.004116  -0.000448  -0.006174  -0.108464   0.279101
    27  N    0.000000   0.005739   0.001397   0.001146  -0.105626   0.373019
    28  H    0.000031   0.000016  -0.000269   0.000007   0.000008   0.000000
    29  H    0.000245   0.000002   0.000005   0.000000  -0.000000   0.000000
    30  H   -0.000017   0.000000  -0.000000   0.000000  -0.000000  -0.000000
    31  H    0.000000  -0.000069   0.000237   0.000054   0.000089  -0.000000
    32  H   -0.000000  -0.000001   0.000004   0.000025  -0.000036  -0.000046
    33  H    0.000000  -0.000004   0.000000  -0.000005   0.000036   0.000074
    34  H   -0.000000  -0.000015   0.000000  -0.000001   0.000026  -0.000116
    35  H    0.000611   0.000766  -0.013636   0.005309  -0.004163   0.000012
    36  H    0.001911   0.428428  -0.002645   0.013202  -0.073413  -0.008034
    37  H   -0.000102  -0.002310   0.467893  -0.072969   0.016818  -0.000129
    38  H    0.000009   0.013221  -0.064505   0.453067  -0.069062  -0.010012
    39  H   -0.000001   0.000148  -0.000041  -0.000407  -0.000732  -0.021748
    40  H   -0.000000   0.000004   0.000004   0.000001   0.007234  -0.007700
    41  H   -0.000007   0.002550   0.000012  -0.000019   0.001270  -0.004997
    42  H    0.000000  -0.000509   0.000184   0.002734   0.003661  -0.014488
    43  H   -0.000000  -0.000325  -0.000018  -0.000237   0.012069  -0.017783
              25         26         27         28         29         30
     1  O   -0.000000  -0.000000   0.000000   0.007910  -0.000055  -0.000000
     2  C    0.000000  -0.000001   0.000000  -0.009875  -0.000482  -0.000001
     3  N   -0.000000   0.000000  -0.000000   0.327979  -0.009230  -0.000149
     4  C    0.000000  -0.000000  -0.000000  -0.016447  -0.084877   0.015916
     5  C   -0.000000  -0.000000  -0.000000  -0.015230   0.453392  -0.060692
     6  C    0.000000   0.000000   0.000000   0.000454  -0.061313   0.441347
     7  C   -0.000002   0.000000   0.000000  -0.000019   0.016772  -0.073836
     8  Cl  -0.000000  -0.000000  -0.000000  -0.000000  -0.000162   0.003352
     9  C   -0.000031  -0.000001  -0.000021  -0.000249  -0.002625   0.018112
    10  C    0.000495   0.000004  -0.000962   0.000013   0.000036  -0.000313
    11  C   -0.000277   0.000008   0.000716  -0.000000  -0.000001   0.000012
    12  C    0.000513   0.000012   0.000623  -0.000000   0.000000  -0.000000
    13  C   -0.002561   0.000027   0.007451   0.000000  -0.000000   0.000000
    14  C    0.001810  -0.000007  -0.003714   0.000000   0.000000  -0.000001
    15  N   -0.001201  -0.000003   0.000038  -0.000000  -0.000000   0.000032
    16  C    0.000002  -0.000000  -0.000021   0.008517   0.018561  -0.001767
    17  C   -0.000015  -0.000165  -0.000043   0.017604  -0.000203   0.000002
    18  C    0.002072  -0.000797  -0.000056   0.000147  -0.000010  -0.000005
    19  Cl  -0.000002   0.000004   0.000000   0.000031   0.000245  -0.000017
    20  C    0.012205  -0.004116   0.005739   0.000016   0.000002   0.000000
    21  C    0.000039  -0.000448   0.001397  -0.000269   0.000005  -0.000000
    22  C    0.004122  -0.006174   0.001146   0.000007   0.000000   0.000000
    23  C   -0.074964  -0.108464  -0.105626   0.000008  -0.000000  -0.000000
    24  S    0.372565   0.279101   0.373019   0.000000   0.000000  -0.000000
    25  N    6.848364  -0.095551  -0.041093   0.000000  -0.000000   0.000000
    26  C   -0.095551   4.941262  -0.047644  -0.000000  -0.000000   0.000000
    27  N   -0.041093  -0.047644   6.876260   0.000000   0.000000  -0.000000
    28  H    0.000000  -0.000000   0.000000   0.526992   0.004717  -0.000022
    29  H   -0.000000  -0.000000   0.000000   0.004717   0.676572  -0.013511
    30  H    0.000000   0.000000  -0.000000  -0.000022  -0.013511   0.657510
    31  H   -0.000002  -0.000000  -0.000029  -0.000000  -0.000000  -0.000000
    32  H    0.000008   0.000001   0.000686  -0.000000  -0.000000   0.000000
    33  H    0.000026  -0.000003  -0.000036   0.000000  -0.000000  -0.000000
    34  H   -0.000214  -0.000003  -0.000022  -0.000000   0.000000  -0.000000
    35  H   -0.000003   0.000001   0.000002  -0.000520  -0.000269   0.000026
    36  H    0.026225   0.000015   0.000868  -0.000002   0.000000   0.000000
    37  H    0.000001   0.000014  -0.000015  -0.000099   0.000000  -0.000000
    38  H    0.000360   0.000524   0.024879  -0.000000  -0.000000   0.000000
    39  H    0.353359   0.007598   0.000672  -0.000000  -0.000000   0.000000
    40  H    0.007160   0.364799   0.000512   0.000000   0.000000  -0.000000
    41  H    0.005191   0.355588   0.003507  -0.000000   0.000000   0.000000
    42  H    0.005835   0.365512   0.003053  -0.000000  -0.000000  -0.000000
    43  H    0.000065  -0.006309   0.330266  -0.000000   0.000000  -0.000000
              31         32         33         34         35         36
     1  O    0.000000  -0.000000   0.000000  -0.000000  -0.000236   0.000003
     2  C    0.000012  -0.000000  -0.000000  -0.000000  -0.004050  -0.000087
     3  N   -0.000016   0.000000  -0.000000   0.000000  -0.004135   0.000006
     4  C    0.001219  -0.000001   0.000000  -0.000000  -0.088149   0.000074
     5  C   -0.000088  -0.000000  -0.000000  -0.000000   0.018061  -0.000006
     6  C    0.000080   0.000000   0.000000   0.000000  -0.003646   0.000005
     7  C   -0.000806   0.000003  -0.000002  -0.000084   0.021885  -0.000011
     8  Cl  -0.000007   0.000000   0.000000   0.000379  -0.000113  -0.000000
     9  C   -0.014339  -0.000511   0.000106  -0.000295  -0.062180  -0.000090
    10  C   -0.039962   0.013325   0.000689   0.007192  -0.032870   0.000140
    11  C    0.424430  -0.057503   0.012129   0.000646   0.008270  -0.000006
    12  C   -0.053799   0.442688  -0.060824   0.006859   0.000199   0.000011
    13  C    0.011753  -0.065897   0.424911  -0.078924   0.000015   0.000012
    14  C   -0.000001   0.011147  -0.048574   0.425649  -0.000092   0.000013
    15  N    0.005615  -0.000150   0.006149  -0.042475   0.000049   0.000294
    16  C   -0.000763  -0.000010   0.000002   0.000029   0.467479  -0.000035
    17  C   -0.000107  -0.000000  -0.000000  -0.000000   0.022414   0.018985
    18  C    0.000080  -0.000000   0.000000   0.000003  -0.016614  -0.050713
    19  Cl   0.000000  -0.000000   0.000000  -0.000000   0.000611   0.001911
    20  C   -0.000069  -0.000001  -0.000004  -0.000015   0.000766   0.428428
    21  C    0.000237   0.000004   0.000000   0.000000  -0.013636  -0.002645
    22  C    0.000054   0.000025  -0.000005  -0.000001   0.005309   0.013202
    23  C    0.000089  -0.000036   0.000036   0.000026  -0.004163  -0.073413
    24  S   -0.000000  -0.000046   0.000074  -0.000116   0.000012  -0.008034
    25  N   -0.000002   0.000008   0.000026  -0.000214  -0.000003   0.026225
    26  C   -0.000000   0.000001  -0.000003  -0.000003   0.000001   0.000015
    27  N   -0.000029   0.000686  -0.000036  -0.000022   0.000002   0.000868
    28  H   -0.000000  -0.000000   0.000000  -0.000000  -0.000520  -0.000002
    29  H   -0.000000  -0.000000  -0.000000   0.000000  -0.000269   0.000000
    30  H   -0.000000   0.000000  -0.000000  -0.000000   0.000026   0.000000
    31  H    0.659894  -0.011221  -0.000154   0.000089   0.000136  -0.000003
    32  H   -0.011221   0.654381  -0.011664  -0.000297   0.000022  -0.000000
    33  H   -0.000154  -0.011664   0.660041  -0.005522  -0.000001  -0.000001
    34  H    0.000089  -0.000297  -0.005522   0.648409   0.000000  -0.000017
    35  H    0.000136   0.000022  -0.000001   0.000000   0.688600  -0.000030
    36  H   -0.000003  -0.000000  -0.000001  -0.000017  -0.000030   0.616342
    37  H    0.000022  -0.000000  -0.000000  -0.000000   0.000082   0.000032
    38  H   -0.000015   0.000036  -0.000002  -0.000000   0.000198  -0.000316
    39  H   -0.000006  -0.000021  -0.000018   0.001107   0.000002  -0.000170
    40  H    0.000000  -0.000000   0.000001   0.000000   0.000000  -0.000106
    41  H    0.000000  -0.000000  -0.000000   0.000000   0.000000   0.001013
    42  H    0.000000   0.000000   0.000000   0.000000  -0.000000  -0.000002
    43  H   -0.000002  -0.000083   0.000980  -0.000004   0.000003  -0.000069
              37         38         39         40         41         42
     1  O    0.003636  -0.000001  -0.000000   0.000000  -0.000000   0.000000
     2  C   -0.009931  -0.000201  -0.000000   0.000000   0.000000  -0.000000
     3  N    0.000486   0.000004   0.000000  -0.000000  -0.000000   0.000000
     4  C    0.000148  -0.000003  -0.000001  -0.000000   0.000000   0.000000
     5  C    0.000004  -0.000000  -0.000000   0.000000   0.000000  -0.000000
     6  C    0.000000   0.000000  -0.000000  -0.000000  -0.000000  -0.000000
     7  C   -0.000000  -0.000000   0.000010   0.000000  -0.000000  -0.000000
[...]
    18  C    0.000359  -0.000054   0.000009   0.000006  -0.017529  -0.064584
    19  Cl   0.000011  -0.000000  -0.000000   0.000000   0.002984   0.004369
    20  C   -0.000758   0.000260  -0.000011  -0.000014   0.001984   0.441791
    21  C    0.001268  -0.000023   0.000001   0.000001  -0.022267  -0.004261
    22  C    0.001161   0.000200  -0.000053   0.000000   0.009071   0.007596
    23  C    0.000670  -0.001395   0.000277   0.000006  -0.006653  -0.067854
    24  S   -0.000283   0.000542   0.000075  -0.000010   0.000014  -0.003460
    25  N   -0.000110   0.000130   0.000249  -0.000061   0.000017   0.020018
    26  C   -0.000006   0.000171  -0.000048   0.000001  -0.000032  -0.001569
    27  N    0.000181   0.013473   0.000079  -0.000003  -0.000281   0.002068
    28  H   -0.000004  -0.000000   0.000000  -0.000000  -0.000788  -0.000003
    29  H   -0.000000  -0.000000   0.000000   0.000000  -0.000221  -0.000001
    30  H   -0.000002   0.000000  -0.000000  -0.000000   0.000065   0.000000
    31  H    0.536389  -0.008420   0.000105   0.000151   0.004956  -0.000021
    32  H   -0.008420   0.535285  -0.008764  -0.000292  -0.000149   0.000006
    33  H    0.000105  -0.008764   0.545681  -0.002038  -0.000001  -0.000008
    34  H    0.000151  -0.000292  -0.002038   0.548054   0.000009  -0.000004
    35  H    0.004956  -0.000149  -0.000001   0.000009   0.552389   0.000000
    36  H   -0.000021   0.000006  -0.000008  -0.000004   0.000000   0.480104
    37  H    0.000052  -0.000001  -0.000000   0.000000  -0.001372   0.000067
    38  H    0.000030   0.000204  -0.000003  -0.000000   0.000049  -0.000184
    39  H    0.000107  -0.000075   0.001256   0.000444  -0.000040  -0.001933
    40  H    0.000000  -0.000006   0.000006  -0.000000   0.000000  -0.000139
    41  H   -0.000000  -0.000006   0.000000   0.000000   0.000004  -0.000756
    42  H    0.000001  -0.000003   0.000001  -0.000000   0.000002   0.000270
    43  H    0.000015  -0.001206   0.000406  -0.000004   0.000006  -0.000082
              37         38         39         40         41         42
     1  O    0.003237  -0.000013  -0.000000   0.000000  -0.000000   0.000000
     2  C   -0.006276   0.000049  -0.000001   0.000000   0.000003  -0.000001
     3  N   -0.001177   0.000012  -0.000000   0.000000   0.000000   0.000000
     4  C    0.001283  -0.000004   0.000004  -0.000000   0.000001   0.000000
     5  C    0.000022  -0.000001   0.000000   0.000000   0.000000  -0.000000
     6  C    0.000011   0.000000  -0.000001  -0.000000   0.000000   0.000000
     7  C   -0.000022   0.000000   0.000037   0.000000  -0.000000   0.000000
     8  Cl   0.000000  -0.000000   0.000001  -0.000000   0.000000  -0.000000
     9  C   -0.000024   0.000009  -0.000048   0.000001  -0.000001   0.000002
    10  C    0.000043   0.000118  -0.001702  -0.000003   0.000007  -0.000006
    11  C   -0.000084  -0.000062   0.002908   0.000012  -0.000016   0.000018
    12  C    0.000021   0.000165  -0.005760  -0.000032   0.000019  -0.000022
    13  C   -0.000005   0.000025   0.011849   0.000032  -0.000000   0.000011
    14  C    0.000003  -0.000013  -0.004529  -0.000017   0.000007  -0.000003
    15  N   -0.000001   0.000002   0.001500   0.000001  -0.000002   0.000000
    16  C   -0.000377  -0.000015  -0.000063  -0.000001  -0.000000  -0.000002
    17  C   -0.059556   0.014663  -0.000037   0.000010  -0.000222   0.000209
    18  C    0.014289  -0.004674  -0.000057   0.000046   0.001137  -0.000140
    19  Cl  -0.000201   0.000028  -0.000010  -0.000001  -0.000012   0.000001
    20  C   -0.003294   0.013140  -0.001500  -0.000272  -0.013616   0.004583
    21  C    0.455805  -0.067316   0.000069   0.000010   0.000123  -0.000562
    22  C   -0.075399   0.440360  -0.000474  -0.000658   0.002365  -0.005862
    23  C    0.014304  -0.053965   0.006543   0.008100   0.014426   0.006297
    24  S   -0.000288  -0.002675  -0.034436  -0.015944  -0.019089  -0.024753
    25  N    0.000004   0.000825   0.361425   0.005829   0.003473   0.005708
    26  C    0.000025   0.001103   0.006446   0.374252   0.369731   0.381316
    27  N   -0.000106   0.022756   0.000430   0.000002   0.004037   0.001599
    28  H   -0.000074  -0.000001   0.000000   0.000000  -0.000000  -0.000000
    29  H   -0.000001  -0.000000   0.000000   0.000000  -0.000000  -0.000000
    30  H   -0.000000  -0.000000  -0.000000  -0.000000   0.000000   0.000000
    31  H    0.000052   0.000030   0.000107   0.000000  -0.000000   0.000001
    32  H   -0.000001   0.000204  -0.000075  -0.000006  -0.000006  -0.000003
    33  H   -0.000000  -0.000003   0.001256   0.000006   0.000000   0.000001
    34  H    0.000000  -0.000000   0.000444  -0.000000   0.000000  -0.000000
    35  H   -0.001372   0.000049  -0.000040   0.000000   0.000004   0.000002
    36  H    0.000067  -0.000184  -0.001933  -0.000139  -0.000756   0.000270
    37  H    0.520748  -0.007388  -0.000001  -0.000001   0.000002  -0.000016
    38  H   -0.007388   0.481853  -0.000044  -0.000103  -0.000159   0.000482
    39  H   -0.000001  -0.000044   0.438205  -0.000099  -0.000544  -0.000234
    40  H   -0.000001  -0.000103  -0.000099   0.498644  -0.010868  -0.014416
    41  H    0.000002  -0.000159  -0.000544  -0.010868   0.507118  -0.016909
    42  H   -0.000016   0.000482  -0.000234  -0.014416  -0.016909   0.506687
    43  H   -0.000003  -0.001380   0.000840   0.001964   0.000216  -0.000005
              43
     1  O   -0.000000
     2  C   -0.000000
     3  N    0.000000
     4  C    0.000000
     5  C   -0.000000
     6  C    0.000000
     7  C    0.000000
     8  Cl  -0.000000
     9  C    0.000015
    10  C   -0.000126
    11  C    0.000824
    12  C   -0.001528
    13  C    0.001470
    14  C   -0.000390
    15  N    0.000014
    16  C   -0.000004
    17  C   -0.000011
    18  C    0.000065
    19  Cl  -0.000000
    20  C   -0.001190
    21  C   -0.000064
    22  C   -0.002691
    23  C    0.017586
    24  S   -0.013310
    25  N   -0.001412
    26  C   -0.008437
    27  N    0.304407
    28  H    0.000000
    29  H   -0.000000
    30  H    0.000000
    31  H    0.000015
    32  H   -0.001206
    33  H    0.000406
    34  H   -0.000004
    35  H    0.000006
    36  H   -0.000082
    37  H   -0.000003
    38  H   -0.001380
    39  H    0.000840
    40  H    0.001964
    41  H    0.000216
    42  H   -0.000005
    43  H    0.488237
 Mulliken charges:
               1
     1  O   -0.317259
     2  C    0.186417
     3  N   -0.218086
     4  C    0.217064
     5  C   -0.215666
     6  C   -0.193900
     7  C    0.066785
     8  Cl  -0.078646
     9  C    0.144774
    10  C    0.174771
    11  C   -0.197063
    12  C   -0.053304
    13  C   -0.167652
    14  C   -0.075299
    15  N   -0.221732
    16  C   -0.271577
    17  C   -0.030940
    18  C    0.312913
    19  Cl  -0.069411
    20  C   -0.361579
    21  C   -0.115676
    22  C   -0.241931
    23  C    0.168642
    24  S    0.476511
    25  N   -0.546025
    26  C   -0.336579
    27  N   -0.577474
    28  H    0.235076
    29  H    0.118707
    30  H    0.127935
    31  H    0.137233
    32  H    0.124329
    33  H    0.127252
    34  H    0.126925
    35  H    0.161107
    36  H    0.171246
    37  H    0.145751
    38  H    0.162126
    39  H    0.219524
    40  H    0.153651
    41  H    0.159533
    42  H    0.155747
    43  H    0.215778
 Sum of Mulliken charges =  -0.00000
 Mulliken charges with hydrogens summed into heavy atoms:
               1
     1  O   -0.317259
     2  C    0.186417
     3  N    0.016991
     4  C    0.217064
     5  C   -0.096959
     6  C   -0.065965
     7  C    0.066785
     8  Cl  -0.078646
     9  C    0.144774
    10  C    0.174771
    11  C   -0.059830
    12  C    0.071025
    13  C   -0.040400
    14  C    0.051627
    15  N   -0.221732
    16  C   -0.110470
    17  C   -0.030940
    18  C    0.312913
    19  Cl  -0.069411
    20  C   -0.190333
    21  C    0.030075
    22  C   -0.079805
    23  C    0.168642
    24  S    0.476511
    25  N   -0.326500
    26  C    0.132352
    27  N   -0.361696
 Electronic spatial extent (au):  <R**2>=          10263.5915
 Charge=             -0.0000 electrons
 Dipole moment (field-independent basis, Debye):
    X=              1.9270    Y=              0.2253    Z=              1.3049  Tot=              2.3382
 Quadrupole moment (field-independent basis, Debye-Ang):
   XX=           -154.2023   YY=           -191.7436   ZZ=           -178.0196
   XY=              7.4866   XZ=              0.6792   YZ=              4.9923
 Traceless Quadrupole moment (field-independent basis, Debye-Ang):
   XX=             20.4529   YY=            -17.0884   ZZ=             -3.3644
   XY=              7.4866   XZ=              0.6792   YZ=              4.9923
 Octapole moment (field-independent basis, Debye-Ang**2):
  XXX=             20.4842  YYY=            128.1428  ZZZ=              1.2621  XYY=             38.3426
  XXY=            -57.3277  XXZ=            -18.4294  XZZ=             -2.4532  YZZ=            -11.8969
  YYZ=            -16.6560  XYZ=             12.6159
 Hexadecapole moment (field-independent basis, Debye-Ang**3):
 XXXX=          -6279.3483 YYYY=          -5820.7594 ZZZZ=          -1306.7927 XXXY=            157.5973
 XXXZ=             -3.7747 YYYX=             77.5242 YYYZ=             57.8338 ZZZX=             43.7891
 ZZZY=             -0.6519 XXYY=          -1957.6389 XXZZ=          -1458.2379 YYZZ=          -1115.6683
 XXYZ=             57.4129 YYXZ=             53.9156 ZZXY=            -24.5913
 N-N= 3.043173259179D+03 E-N=-1.161036452881D+04  KE= 2.338142677419D+03
 Breneman (CHELPG) radii used.
 Read replacement radii for each type of atom:
 Atom Element Radius
    1     8    1.70
    2     6    1.50
    3     7    1.70
    4     6    1.50
    5     6    1.50
    6     6    1.50
    7     6    1.50
    8    17    2.00
    9     6    1.50
   10     6    1.50
   11     6    1.50
   12     6    1.50
   13     6    1.50
   14     6    1.50
   15     7    1.70
   16     6    1.50
   17     6    1.50
   18     6    1.50
   19    17    2.00
   20     6    1.50
   21     6    1.50
   22     6    1.50
   23     6    1.50
   24    16    2.00
   25     7    1.70
   26     6    1.50
   27     7    1.70
   28     1    1.45
   29     1    1.45
   30     1    1.45
   31     1    1.45
   32     1    1.45
   33     1    1.45
   34     1    1.45
   35     1    1.45
   36     1    1.45
   37     1    1.45
   38     1    1.45
   39     1    1.45
   40     1    1.45
   41     1    1.45
   42     1    1.45
   43     1    1.45
 Generate Potential Derived Charges using the Breneman model, NDens= 1.
 Grid spacing= 0.300 Box extension= 2.800
 NStep X,Y,Z=   56     50     35   Total possible points=       98000
 Number of Points to Fit=   22776

 **********************************************************************

            Electrostatic Properties Using The SCF Density.

 **********************************************************************

       Atomic Center    1 is at  -1.064595 -4.539733  0.999301
       Atomic Center    2 is at  -1.112611 -3.360606  0.726301
       Atomic Center    3 is at  -2.295876 -2.664152  0.774032
       Atomic Center    4 is at  -2.581631 -1.312988  0.526689
       Atomic Center    5 is at  -3.830136 -0.967494 -0.002451
       Atomic Center    6 is at  -4.127833  0.359532 -0.280341
       Atomic Center    7 is at  -3.173809  1.361576 -0.096554
       Atomic Center    8 is at  -3.635855  2.986563 -0.456569
       Atomic Center    9 is at  -1.906771  1.038142  0.416126
       Atomic Center   10 is at  -0.776345  1.996054  0.533051
       Atomic Center   11 is at   0.125301  1.917158  1.605824
       Atomic Center   12 is at   1.243652  2.741640  1.608379
       Atomic Center   13 is at   1.412386  3.642862  0.559292
       Atomic Center   14 is at   0.451195  3.659798 -0.451660
       Atomic Center   15 is at  -0.605225  2.855879 -0.472508
       Atomic Center   16 is at  -1.664578 -0.290979  0.776677
       Atomic Center   17 is at   0.123083 -2.574773  0.388203
       Atomic Center   18 is at   0.315463 -1.942465 -0.845316
       Atomic Center   19 is at  -0.825076 -2.159431 -2.124879
       Atomic Center   20 is at   1.393478 -1.082825 -1.039852
       Atomic Center   21 is at   1.083695 -2.415752  1.392151
       Atomic Center   22 is at   2.167352 -1.561828  1.217275
       Atomic Center   23 is at   2.289582 -0.888810  0.004519
       Atomic Center   24 is at   3.591474  0.328369 -0.277760
       Atomic Center   25 is at   3.251132  1.329591 -1.407316
       Atomic Center   26 is at   4.836448 -0.680461 -1.088644
       Atomic Center   27 is at   3.958495  0.696342  1.184971
       Atomic Center   28 is at  -3.091023 -3.278966  0.918266
       Atomic Center   29 is at  -4.570768 -1.744348 -0.207274
       Atomic Center   30 is at  -5.108919  0.633867 -0.670865
       Atomic Center   31 is at  -0.043585  1.213218  2.422211
       Atomic Center   32 is at   1.979191  2.669377  2.411089
       Atomic Center   33 is at   2.274168  4.312056  0.517159
       Atomic Center   34 is at   0.549310  4.352551 -1.295746
       Atomic Center   35 is at  -0.699578 -0.525023  1.217147
       Atomic Center   36 is at   1.514444 -0.528312 -1.973854
       Atomic Center   37 is at   0.938424 -2.938010  2.340598
       Atomic Center   38 is at   2.892733 -1.370854  2.009033
       Atomic Center   39 is at   2.569369  2.000178 -1.037364
       Atomic Center   40 is at   5.680506 -0.007714 -1.291282
       Atomic Center   41 is at   4.436018 -1.077104 -2.029360
       Atomic Center   42 is at   5.122645 -1.480705 -0.395540
       Atomic Center   43 is at   4.678852  1.422199  1.147875
   22776 points will be used for fitting atomic charges
 Fitting point charges to electrostatic potential
 Charges from ESP fit, RMS=   0.00389 RRMS=   0.24859:
 ESP charges:
               1
     1  O   -0.565130
     2  C    0.685548
     3  N   -0.603607
     4  C    0.304557
     5  C   -0.238216
     6  C   -0.047865
     7  C    0.025970
     8  Cl  -0.109319
     9  C    0.004529
    10  C    0.461042
    11  C   -0.339254
    12  C    0.172762
    13  C   -0.366660
    14  C    0.358834
    15  N   -0.543393
    16  C   -0.229492
    17  C   -0.026568
    18  C    0.061119
    19  Cl  -0.084234
    20  C   -0.111185
    21  C   -0.161256
    22  C   -0.048751
    23  C    0.049112
    24  S    0.712852
    25  N   -0.761589
    26  C   -0.328580
    27  N   -0.761928
    28  H    0.344767
    29  H    0.148424
    30  H    0.100679
    31  H    0.086704
    32  H    0.080552
    33  H    0.130117
    34  H    0.032772
    35  H    0.146784
    36  H    0.123433
    37  H    0.135886
    38  H    0.116097
    39  H    0.321351
    40  H    0.159111
    41  H    0.135985
    42  H    0.096354
    43  H    0.331686
 Sum of ESP charges =  -0.00000
 ESP charges with hydrogens summed into heavy atoms:
               1
     1  O   -0.565130
     2  C    0.685548
     3  N   -0.258840
     4  C    0.304557
     5  C   -0.089792
     6  C    0.052815
     7  C    0.025970
     8  Cl  -0.109319
     9  C    0.004529
    10  C    0.461042
    11  C   -0.252550
    12  C    0.253313
    13  C   -0.236543
    14  C    0.391606
    15  N   -0.543393
    16  C   -0.082708
    17  C   -0.026568
    18  C    0.061119
    19  Cl  -0.084234
    20  C    0.012249
    21  C   -0.025370
    22  C    0.067345
    23  C    0.049112
    24  S    0.712852
    25  N   -0.440238
    26  C    0.062870
    27  N   -0.430242
 Charge=  -0.00000 Dipole=     1.9338     0.2069     1.5324 Tot=     2.4760
 -----------------------------------------------------------------

              Electrostatic Properties (Atomic Units)

 -----------------------------------------------------------------
    Center     Electric         -------- Electric Field --------
               Potential          X             Y             Z
 -----------------------------------------------------------------
    1 Atom    -22.366109
    2 Atom    -14.639862
    3 Atom    -18.318981
    4 Atom    -14.695431
    5 Atom    -14.740952
    6 Atom    -14.742769
    7 Atom    -14.693263
    8 Atom    -64.425993
    9 Atom    -14.729638
   10 Atom    -14.708618
   11 Atom    -14.747256
   12 Atom    -14.740295
   13 Atom    -14.748863
   14 Atom    -14.724811
   15 Atom    -18.384229
   16 Atom    -14.744841
   17 Atom    -14.715373
   18 Atom    -14.671700
   19 Atom    -64.404782
   20 Atom    -14.725430
   21 Atom    -14.726907
   22 Atom    -14.730139
   23 Atom    -14.711538
   24 Atom    -59.063173
   25 Atom    -18.417077
   26 Atom    -14.726752
   27 Atom    -18.413981
   28 Atom     -0.994398
   29 Atom     -1.075751
   30 Atom     -1.083735
   31 Atom     -1.084209
   32 Atom     -1.087234
   33 Atom     -1.084672
   34 Atom     -1.097699
   35 Atom     -1.081426
   36 Atom     -1.066993
   37 Atom     -1.072831
   38 Atom     -1.076459
   39 Atom     -1.043918
   40 Atom     -1.065728
   41 Atom     -1.068187
   42 Atom     -1.068895
   43 Atom     -1.037904
 -----------------------------------------------------------------
 Unable to Open any file for archive entry.
 1\1\GINC-NOTCH145\SP\RPBE1PBE\def2TZVP\C19H16Cl2N4O1S1\U1414944\14-Oct
 -2025\0\\#N Guess=Read Geom=Check Integral(Ultrafine) Density Pop=(Che
 lpG,ReadRadii) NMR pbe1pbe EmpiricalDispersion=GD3BJ def2TZVP\\SDI-dru
 g_7\\0,1\O,0,0.158754753,-4.5496165709,-1.3055266294\C,0,0.4290215737,
 -3.4223682893,-0.9541809114\N,0,1.7287166234,-2.9788659712,-0.91492923
 46\C,0,2.2673060874,-1.7302046467,-0.5696119709\C,0,3.5332646338,-1.67
 60652303,0.0241371603\C,0,4.0772610678,-0.4551724287,0.3987474992\C,0,
 3.3530699418,0.7284194771,0.2481192381\Cl,0,4.1136977872,2.202532777,0
 .7299042825\C,0,2.0726158136,0.698661405,-0.3284103696\C,0,1.163798072
 ,1.8710675462,-0.4213888317\C,0,0.3163822044,2.0383230819,-1.527709318
 8\C,0,-0.6127554925,3.0712935752,-1.5149763199\C,0,-0.6469650543,3.926
 3800589,-0.4154705906\C,0,0.2492332848,3.6900196567,0.6271997068\N,0,1
 .1210189538,2.6886650367,0.6319075751\C,0,1.5864242139,-0.5308023771,-
 0.7836615191\C,0,-0.6387967683,-2.4228947054,-0.6083520675\C,0,-0.7587
 341433,-1.8364516511,0.6565950526\Cl,0,0.2534170175,-2.3532328563,1.95
 80060728\C,0,-1.6506769927,-0.7885886367,0.8695845391\C,0,-1.499514440
 2,-2.0150491131,-1.6324632649\C,0,-2.3971936009,-0.9705031728,-1.43965
 02418\C,0,-2.4393454938,-0.3573054451,-0.1902979049\S,0,-3.4829039742,
 1.0804491899,0.1258922475\N,0,-3.0027111305,1.9254060356,1.3299005122\
 C,0,-4.9416465232,0.3003785091,0.8250258798\N,0,-3.6991883898,1.598425
 0658,-1.3213855197\H,0,2.390508497,-3.7329036644,-1.0715075059\H,0,4.0
 927449034,-2.597444739,0.2031158819\H,0,5.0738267012,-0.4084025226,0.8
 402985605\H,0,0.3792535533,1.3627210193,-2.3821976822\H,0,-1.309062572
 3,3.1958629352,-2.3457725251\H,0,-1.3582445493,4.7529439078,-0.3594548
 226\H,0,0.2520663406,4.3387416601,1.5110354415\H,0,0.6160327787,-0.538
 5878759,-1.2718161477\H,0,-1.7021477782,-0.2755169776,1.8332163392\H,0
 ,-1.4171152008,-2.5006943591,-2.6075365937\H,0,-3.0313500345,-0.591301
 4208,-2.241885407\H,0,-2.1837254972,2.4638217111,1.028697687\H,0,-5.64
 24607539,1.1176225449,1.0419522587\H,0,-4.6737257788,-0.222488125,1.75
 10099313\H,0,-5.3492357939,-0.3841099938,0.0713426084\H,0,-4.260481937
 9,2.4519770617,-1.2617576678\\Version=ES64L-G16RevC.01\State=1-A\HF=-2
 345.2442719\RMSD=8.055e-09\Dipole=-0.6998929,0.2698715,-0.5325105\Quad
 rupole=11.8881875,-8.8876512,-3.0005363,-10.4208233,-0.1664519,-4.6021
 576\PG=C01 [X(C19H16Cl2N4O1S1)]\\@
 The archive entry for this job was punched.


 A SLIP OF THE FOOT YOU MAY SOON RECOVER, BUT A SLIP OF THE TONGUE
 YOU MAY NEVER GET OVER. -- BEN FRANKLIN
 Job cpu time:       0 days  4 hours 59 minutes 23.5 seconds.
 Elapsed time:       0 days  0 hours 20 minutes 10.2 seconds.
 File lengths (MBytes):  RWF=    525 Int=      0 D2E=      0 Chk=     83 Scr=      2
 Normal termination of Gaussian 16 at Tue Oct 14 00:36:06 2025.
