 Entering Gaussian System, Link 0=g16
 Input=SDI-drug_8.com
 Output=SDI-drug_8.log
 Initial command:
 /uufs/chpc.utah.edu/sys/installdir/gaussian16/C01/AVX/g16/l1.exe "/scratch/general/vast/u1414944/6939701-notchpeak.peaks/Gau-1824372.inp" -scrdir="/scratch/general/vast/u1414944/6939701-notchpeak.peaks/"
 Entering Link 1 = /uufs/chpc.utah.edu/sys/installdir/gaussian16/C01/AVX/g16/l1.exe PID=   1824375.
  
 Copyright (c) 1988-2019, Gaussian, Inc.  All Rights Reserved.
  
 This is part of the Gaussian(R) 16 program.  It is based on
 the Gaussian(R) 09 system (copyright 2009, Gaussian, Inc.),
 the Gaussian(R) 03 system (copyright 2003, Gaussian, Inc.),
 the Gaussian(R) 98 system (copyright 1998, Gaussian, Inc.),
 the Gaussian(R) 94 system (copyright 1995, Gaussian, Inc.),
 the Gaussian 92(TM) system (copyright 1992, Gaussian, Inc.),
 the Gaussian 90(TM) system (copyright 1990, Gaussian, Inc.),
 the Gaussian 88(TM) system (copyright 1988, Gaussian, Inc.),
 the Gaussian 86(TM) system (copyright 1986, Carnegie Mellon
 University), and the Gaussian 82(TM) system (copyright 1983,
 Carnegie Mellon University). Gaussian is a federally registered
 trademark of Gaussian, Inc.
  
 This software contains proprietary and confidential information,
 including trade secrets, belonging to Gaussian, Inc.
  
 This software is provided under written license and may be
 used, copied, transmitted, or stored only in accord with that
 written license.
  
 The following legend is applicable only to US Government
 contracts under FAR:
  
                    RESTRICTED RIGHTS LEGEND
  
 Use, reproduction and disclosure by the US Government is
 subject to restrictions as set forth in subparagraphs (a)
 and (c) of the Commercial Computer Software - Restricted
 Rights clause in FAR 52.227-19.
  
 Gaussian, Inc.
 340 Quinnipiac St., Bldg. 40, Wallingford CT 06492
  
  
 ---------------------------------------------------------------
 Warning -- This program may not be used in any manner that
 competes with the business of Gaussian, Inc. or will provide
 assistance to any competitor of Gaussian, Inc.  The licensee
 of this program is prohibited from giving any competitor of
 Gaussian, Inc. access to this program.  By using this program,
 the user acknowledges that Gaussian, Inc. is engaged in the
 business of creating and licensing software in the field of
 computational chemistry and represents and warrants to the
 licensee that it is not a competitor of Gaussian, Inc. and that
 it will not use this program in any manner prohibited above.
 ---------------------------------------------------------------
  

 Cite this work as:
 Gaussian 16, Revision C.01,
 M. J. Frisch, G. W. Trucks, H. B. Schlegel, G. E. Scuseria, 
 M. A. Robb, J. R. Cheeseman, G. Scalmani, V. Barone, 
 G. A. Petersson, H. Nakatsuji, X. Li, M. Caricato, A. V. Marenich, 
 J. Bloino, B. G. Janesko, R. Gomperts, B. Mennucci, H. P. Hratchian, 
 J. V. Ortiz, A. F. Izmaylov, J. L. Sonnenberg, D. Williams-Young, 
 F. Ding, F. Lipparini, F. Egidi, J. Goings, B. Peng, A. Petrone, 
 T. Henderson, D. Ranasinghe, V. G. Zakrzewski, J. Gao, N. Rega, 
 G. Zheng, W. Liang, M. Hada, M. Ehara, K. Toyota, R. Fukuda, 
 J. Hasegawa, M. Ishida, T. Nakajima, Y. Honda, O. Kitao, H. Nakai, 
 T. Vreven, K. Throssell, J. A. Montgomery, Jr., J. E. Peralta, 
 F. Ogliaro, M. J. Bearpark, J. J. Heyd, E. N. Brothers, K. N. Kudin, 
 V. N. Staroverov, T. A. Keith, R. Kobayashi, J. Normand, 
 K. Raghavachari, A. P. Rendell, J. C. Burant, S. S. Iyengar, 
 J. Tomasi, M. Cossi, J. M. Millam, M. Klene, C. Adamo, R. Cammi, 
 J. W. Ochterski, R. L. Martin, K. Morokuma, O. Farkas, 
 J. B. Foresman, and D. J. Fox, Gaussian, Inc., Wallingford CT, 2019.
 
 ******************************************
 Gaussian 16:  ES64L-G16RevC.01  3-Jul-2019
                13-Oct-2025 
 ******************************************
 %NProcShared=16
 Will use up to   16 processors via shared memory.
 %Mem=40GB
 %chk=SDI-drug_8.chk
 ----------------------------------------------------------------------
 #N OPT FREQ=NORAMAN Integral(Ultrafine) pbe1pbe EmpiricalDispersion=GD
 3BJ def2SVP
 ----------------------------------------------------------------------
 1/18=20,19=15,26=4,38=1/1,3;
 2/9=110,12=2,17=6,18=5,40=1/2;
 3/5=43,7=101,11=2,25=1,30=1,71=1,74=-13,75=-5,124=41/1,2,3;
 4//1;
 5/5=2,38=5/2;
 6/7=2,8=2,9=2,10=2,28=1/1;
 7//1,2,3,16;
 1/18=20,19=15,26=4/3(2);
 2/9=110/2;
 99//99;
 2/9=110/2;
 3/5=43,7=101,11=2,25=1,30=1,71=1,74=-13,75=-5,124=41/1,2,3;
 4/5=5,16=3,69=1/1;
 5/5=2,38=5/2;
 7//1,2,3,16;
 1/18=20,19=15,26=4/3(-5);
 2/9=110/2;
 6/7=2,8=2,9=2,10=2,19=2,28=1/1;
 99/9=1/99;
 ----------
 SDI-drug_8
 ----------
 Symbolic Z-matrix:
 Charge =  0 Multiplicity = 1
 O                     0.54752  -4.54506   0.78783 
 C                     0.69912  -3.41751   0.38135 
 N                     1.92034  -2.97528  -0.0451 
 C                     2.27224  -1.69823  -0.49454 
 C                     3.18466  -1.55815  -1.53905 
 C                     3.49907  -0.30236  -2.02094 
 C                     2.91327   0.82799  -1.47 
 Cl                    3.26097   2.36621  -2.17991 
 C                     2.03594   0.71479  -0.39374 
 C                     1.3646    1.84646   0.27297 
 C                     2.02996   3.00884   0.65389 
 C                     1.31559   3.98657   1.32653 
 C                    -0.02593   3.77341   1.60209 
 C                    -0.59856   2.57851   1.18926 
 N                     0.07535   1.64533   0.54148 
 C                     1.74198  -0.55536   0.08817 
 C                    -0.41857  -2.42868   0.21576 
 C                    -1.0367   -1.82991   1.3111 
 Cl                   -0.51065  -2.22831   2.90444 
 C                    -2.01528  -0.86586   1.12831 
 C                    -0.84767  -2.10725  -1.0673 
 C                    -1.84367  -1.16769  -1.25568 
 C                    -2.38937  -0.53221  -0.15582 
 S                    -3.62143   0.77261  -0.42179 
 N                    -4.7768    0.36222  -1.34883 
 C                    -2.65942   1.85979  -1.53233 
 N                    -3.80892   1.34615   0.99429 
 H                     2.63243  -3.69398  -0.10084 
 H                     3.63677  -2.43239  -1.98298 
 H                     4.19041  -0.19442  -2.84192 
 H                     3.08153   3.13293   0.45053 
 H                     1.80406   4.89874   1.63793 
 H                    -0.6118    4.5104    2.12829 
 H                    -1.64053   2.34827   1.37731 
 H                     1.09098  -0.6209    0.94158 
 H                    -2.4727   -0.35096   1.95698 
 H                    -0.38757  -2.59172  -1.91564 
 H                    -2.19072  -0.91752  -2.24528 
 H                    -5.54181  -0.09759  -0.88241 
 H                    -2.81149   1.50041  -2.54082 
 H                    -1.61792   1.81829  -1.23595 
 H                    -3.04703   2.8672   -1.43312 
 H                    -4.66324   1.86573   1.11359 
 

 GradGradGradGradGradGradGradGradGradGradGradGradGradGradGradGradGradGrad
 Berny optimization.
 Initialization pass.
                           ----------------------------
                           !    Initial Parameters    !
                           ! (Angstroms and Degrees)  !
 --------------------------                            --------------------------
 ! Name  Definition              Value          Derivative Info.                !
 --------------------------------------------------------------------------------
 ! R1    R(1,2)                  1.2081         estimate D2E/DX2                !
 ! R2    R(2,3)                  1.367          estimate D2E/DX2                !
 ! R3    R(2,17)                 1.5015         estimate D2E/DX2                !
 ! R4    R(3,4)                  1.3988         estimate D2E/DX2                !
 ! R5    R(3,28)                 1.0133         estimate D2E/DX2                !
 ! R6    R(4,5)                  1.394          estimate D2E/DX2                !
 ! R7    R(4,16)                 1.3881         estimate D2E/DX2                !
 ! R8    R(5,6)                  1.3813         estimate D2E/DX2                !
 ! R9    R(5,29)                 1.0797         estimate D2E/DX2                !
 ! R10   R(6,7)                  1.3872         estimate D2E/DX2                !
 ! R11   R(6,30)                 1.0787         estimate D2E/DX2                !
 ! R12   R(7,8)                  1.7294         estimate D2E/DX2                !
 ! R13   R(7,9)                  1.3931         estimate D2E/DX2                !
 ! R14   R(9,10)                 1.4751         estimate D2E/DX2                !
 ! R15   R(9,16)                 1.3899         estimate D2E/DX2                !
 ! R16   R(10,11)                1.3925         estimate D2E/DX2                !
 ! R17   R(10,15)                1.3322         estimate D2E/DX2                !
 ! R18   R(11,12)                1.3852         estimate D2E/DX2                !
 ! R19   R(11,31)                1.0782         estimate D2E/DX2                !
 ! R20   R(12,13)                1.386          estimate D2E/DX2                !
 ! R21   R(12,32)                1.0806         estimate D2E/DX2                !
 ! R22   R(13,14)                1.3879         estimate D2E/DX2                !
 ! R23   R(13,33)                1.0786         estimate D2E/DX2                !
 ! R24   R(14,15)                1.3208         estimate D2E/DX2                !
 ! R25   R(14,34)                1.0836         estimate D2E/DX2                !
 ! R26   R(16,35)                1.0754         estimate D2E/DX2                !
 ! R27   R(17,18)                1.393          estimate D2E/DX2                !
 ! R28   R(17,21)                1.3906         estimate D2E/DX2                !
 ! R29   R(18,19)                1.7246         estimate D2E/DX2                !
 ! R30   R(18,20)                1.3858         estimate D2E/DX2                !
 ! R31   R(20,23)                1.3785         estimate D2E/DX2                !
 ! R32   R(20,36)                1.0775         estimate D2E/DX2                !
 ! R33   R(21,22)                1.3821         estimate D2E/DX2                !
 ! R34   R(21,37)                1.0799         estimate D2E/DX2                !
 ! R35   R(22,23)                1.3825         estimate D2E/DX2                !
 ! R36   R(22,38)                1.0781         estimate D2E/DX2                !
 ! R37   R(23,24)                1.8142         estimate D2E/DX2                !
 ! R38   R(24,25)                1.5371         estimate D2E/DX2                !
 ! R39   R(24,26)                1.8278         estimate D2E/DX2                !
 ! R40   R(24,27)                1.5393         estimate D2E/DX2                !
 ! R41   R(25,39)                1.0071         estimate D2E/DX2                !
 ! R42   R(26,40)                1.0814         estimate D2E/DX2                !
 ! R43   R(26,41)                1.0836         estimate D2E/DX2                !
 ! R44   R(26,42)                1.084          estimate D2E/DX2                !
 ! R45   R(27,43)                1.007          estimate D2E/DX2                !
 ! A1    A(1,2,3)              121.2634         estimate D2E/DX2                !
 ! A2    A(1,2,17)             123.9417         estimate D2E/DX2                !
 ! A3    A(3,2,17)             114.6791         estimate D2E/DX2                !
 ! A4    A(2,3,4)              128.3381         estimate D2E/DX2                !
 ! A5    A(2,3,28)             114.5515         estimate D2E/DX2                !
 ! A6    A(4,3,28)             116.9412         estimate D2E/DX2                !
 ! A7    A(3,4,5)              119.8124         estimate D2E/DX2                !
 ! A8    A(3,4,16)             121.3777         estimate D2E/DX2                !
 ! A9    A(5,4,16)             118.8062         estimate D2E/DX2                !
 ! A10   A(4,5,6)              120.1153         estimate D2E/DX2                !
 ! A11   A(4,5,29)             120.0531         estimate D2E/DX2                !
 ! A12   A(6,5,29)             119.8258         estimate D2E/DX2                !
 ! A13   A(5,6,7)              120.4048         estimate D2E/DX2                !
 ! A14   A(5,6,30)             120.1553         estimate D2E/DX2                !
 ! A15   A(7,6,30)             119.4312         estimate D2E/DX2                !
 ! A16   A(6,7,8)              118.4769         estimate D2E/DX2                !
 ! A17   A(6,7,9)              120.4336         estimate D2E/DX2                !
 ! A18   A(8,7,9)              121.0641         estimate D2E/DX2                !
 ! A19   A(7,9,10)             124.9908         estimate D2E/DX2                !
 ! A20   A(7,9,16)             118.3783         estimate D2E/DX2                !
 ! A21   A(10,9,16)            116.6222         estimate D2E/DX2                !
 ! A22   A(9,10,11)            123.1339         estimate D2E/DX2                !
 ! A23   A(9,10,15)            114.5648         estimate D2E/DX2                !
 ! A24   A(11,10,15)           122.2306         estimate D2E/DX2                !
 ! A25   A(10,11,12)           118.4003         estimate D2E/DX2                !
 ! A26   A(10,11,31)           120.6972         estimate D2E/DX2                !
 ! A27   A(12,11,31)           120.8861         estimate D2E/DX2                !
 ! A28   A(11,12,13)           119.1538         estimate D2E/DX2                !
 ! A29   A(11,12,32)           120.1754         estimate D2E/DX2                !
 ! A30   A(13,12,32)           120.6688         estimate D2E/DX2                !
 ! A31   A(12,13,14)           118.205          estimate D2E/DX2                !
 ! A32   A(12,13,33)           121.1758         estimate D2E/DX2                !
 ! A33   A(14,13,33)           120.6182         estimate D2E/DX2                !
 ! A34   A(13,14,15)           122.9331         estimate D2E/DX2                !
 ! A35   A(13,14,34)           121.8765         estimate D2E/DX2                !
 ! A36   A(15,14,34)           115.1902         estimate D2E/DX2                !
 ! A37   A(10,15,14)           119.0748         estimate D2E/DX2                !
 ! A38   A(4,16,9)             121.7378         estimate D2E/DX2                !
 ! A39   A(4,16,35)            120.9444         estimate D2E/DX2                !
 ! A40   A(9,16,35)            117.3153         estimate D2E/DX2                !
 ! A41   A(2,17,18)            121.7821         estimate D2E/DX2                !
 ! A42   A(2,17,21)            118.9266         estimate D2E/DX2                !
 ! A43   A(18,17,21)           119.291          estimate D2E/DX2                !
 ! A44   A(17,18,19)           119.4612         estimate D2E/DX2                !
 ! A45   A(17,18,20)           120.575          estimate D2E/DX2                !
 ! A46   A(19,18,20)           119.8658         estimate D2E/DX2                !
 ! A47   A(18,20,23)           118.874          estimate D2E/DX2                !
 ! A48   A(18,20,36)           122.0563         estimate D2E/DX2                !
 ! A49   A(23,20,36)           119.0484         estimate D2E/DX2                !
 ! A50   A(17,21,22)           120.3487         estimate D2E/DX2                !
 ! A51   A(17,21,37)           119.32           estimate D2E/DX2                !
 ! A52   A(22,21,37)           120.3283         estimate D2E/DX2                !
 ! A53   A(21,22,23)           119.2411         estimate D2E/DX2                !
 ! A54   A(21,22,38)           120.9852         estimate D2E/DX2                !
 ! A55   A(23,22,38)           119.7701         estimate D2E/DX2                !
 ! A56   A(20,23,22)           121.5152         estimate D2E/DX2                !
 ! A57   A(20,23,24)           119.6666         estimate D2E/DX2                !
 ! A58   A(22,23,24)           118.8179         estimate D2E/DX2                !
 ! A59   A(23,24,25)           114.0079         estimate D2E/DX2                !
 ! A60   A(23,24,26)            99.1745         estimate D2E/DX2                !
 ! A61   A(23,24,27)           102.4644         estimate D2E/DX2                !
 ! A62   A(25,24,26)           100.8349         estimate D2E/DX2                !
 ! A63   A(25,24,27)           124.2472         estimate D2E/DX2                !
 ! A64   A(26,24,27)           113.6683         estimate D2E/DX2                !
 ! A65   A(24,25,39)           114.4283         estimate D2E/DX2                !
 ! A66   A(24,26,40)           107.155          estimate D2E/DX2                !
 ! A67   A(24,26,41)           108.4759         estimate D2E/DX2                !
 ! A68   A(24,26,42)           107.9985         estimate D2E/DX2                !
 ! A69   A(40,26,41)           112.1791         estimate D2E/DX2                !
 ! A70   A(40,26,42)           110.1171         estimate D2E/DX2                !
 ! A71   A(41,26,42)           110.7469         estimate D2E/DX2                !
 ! A72   A(24,27,43)           113.8642         estimate D2E/DX2                !
 ! D1    D(1,2,3,4)           -177.463          estimate D2E/DX2                !
 ! D2    D(1,2,3,28)             7.4593         estimate D2E/DX2                !
 ! D3    D(17,2,3,4)             6.3028         estimate D2E/DX2                !
 ! D4    D(17,2,3,28)         -168.7749         estimate D2E/DX2                !
 ! D5    D(1,2,17,18)           72.4081         estimate D2E/DX2                !
 ! D6    D(1,2,17,21)         -107.4204         estimate D2E/DX2                !
 ! D7    D(3,2,17,18)         -111.4722         estimate D2E/DX2                !
 ! D8    D(3,2,17,21)           68.6993         estimate D2E/DX2                !
 ! D9    D(2,3,4,5)           -142.871          estimate D2E/DX2                !
 ! D10   D(2,3,4,16)            37.8417         estimate D2E/DX2                !
 ! D11   D(28,3,4,5)            32.1063         estimate D2E/DX2                !
 ! D12   D(28,3,4,16)         -147.1809         estimate D2E/DX2                !
 ! D13   D(3,4,5,6)            177.5972         estimate D2E/DX2                !
 ! D14   D(3,4,5,29)            -1.5232         estimate D2E/DX2                !
 ! D15   D(16,4,5,6)            -3.0972         estimate D2E/DX2                !
 ! D16   D(16,4,5,29)          177.7823         estimate D2E/DX2                !
 ! D17   D(3,4,16,9)          -176.8366         estimate D2E/DX2                !
 ! D18   D(3,4,16,35)            3.7538         estimate D2E/DX2                !
 ! D19   D(5,4,16,9)             3.8691         estimate D2E/DX2                !
 ! D20   D(5,4,16,35)         -175.5404         estimate D2E/DX2                !
 ! D21   D(4,5,6,7)              0.1142         estimate D2E/DX2                !
 ! D22   D(4,5,6,30)          -178.8063         estimate D2E/DX2                !
 ! D23   D(29,5,6,7)           179.2367         estimate D2E/DX2                !
 ! D24   D(29,5,6,30)            0.3161         estimate D2E/DX2                !
 ! D25   D(5,6,7,8)           -175.9645         estimate D2E/DX2                !
 ! D26   D(5,6,7,9)              2.2226         estimate D2E/DX2                !
 ! D27   D(30,6,7,8)             2.9639         estimate D2E/DX2                !
 ! D28   D(30,6,7,9)          -178.8491         estimate D2E/DX2                !
 ! D29   D(6,7,9,10)           179.6223         estimate D2E/DX2                !
 ! D30   D(6,7,9,16)            -1.4884         estimate D2E/DX2                !
 ! D31   D(8,7,9,10)            -2.238          estimate D2E/DX2                !
 ! D32   D(8,7,9,16)           176.6512         estimate D2E/DX2                !
 ! D33   D(7,9,10,11)          -46.6583         estimate D2E/DX2                !
 ! D34   D(7,9,10,15)          136.3394         estimate D2E/DX2                !
 ! D35   D(16,9,10,11)         134.4349         estimate D2E/DX2                !
 ! D36   D(16,9,10,15)         -42.5674         estimate D2E/DX2                !
 ! D37   D(7,9,16,4)            -1.5851         estimate D2E/DX2                !
 ! D38   D(7,9,16,35)          177.845          estimate D2E/DX2                !
 ! D39   D(10,9,16,4)          177.397          estimate D2E/DX2                !
 ! D40   D(10,9,16,35)          -3.1729         estimate D2E/DX2                !
 ! D41   D(9,10,11,12)        -177.2122         estimate D2E/DX2                !
 ! D42   D(9,10,11,31)           1.3286         estimate D2E/DX2                !
 ! D43   D(15,10,11,12)         -0.4354         estimate D2E/DX2                !
 ! D44   D(15,10,11,31)        178.1053         estimate D2E/DX2                !
 ! D45   D(9,10,15,14)         177.1236         estimate D2E/DX2                !
 ! D46   D(11,10,15,14)          0.0911         estimate D2E/DX2                !
 ! D47   D(10,11,12,13)          0.3416         estimate D2E/DX2                !
 ! D48   D(10,11,12,32)        179.8303         estimate D2E/DX2                !
 ! D49   D(31,11,12,13)       -178.1963         estimate D2E/DX2                !
 ! D50   D(31,11,12,32)          1.2924         estimate D2E/DX2                !
 ! D51   D(11,12,13,14)          0.0632         estimate D2E/DX2                !
 ! D52   D(11,12,13,33)        179.6845         estimate D2E/DX2                !
 ! D53   D(32,12,13,14)       -179.4229         estimate D2E/DX2                !
 ! D54   D(32,12,13,33)          0.1983         estimate D2E/DX2                !
 ! D55   D(12,13,14,15)         -0.4282         estimate D2E/DX2                !
 ! D56   D(12,13,14,34)        179.7228         estimate D2E/DX2                !
 ! D57   D(33,13,14,15)        179.9483         estimate D2E/DX2                !
 ! D58   D(33,13,14,34)          0.0993         estimate D2E/DX2                !
 ! D59   D(13,14,15,10)          0.3516         estimate D2E/DX2                !
 ! D60   D(34,14,15,10)       -179.7901         estimate D2E/DX2                !
 ! D61   D(2,17,18,19)           0.0211         estimate D2E/DX2                !
 ! D62   D(2,17,18,20)         176.4168         estimate D2E/DX2                !
 ! D63   D(21,17,18,19)        179.849          estimate D2E/DX2                !
 ! D64   D(21,17,18,20)         -3.7554         estimate D2E/DX2                !
 ! D65   D(2,17,21,22)        -177.8378         estimate D2E/DX2                !
 ! D66   D(2,17,21,37)           1.5283         estimate D2E/DX2                !
 ! D67   D(18,17,21,22)          2.3294         estimate D2E/DX2                !
 ! D68   D(18,17,21,37)       -178.3045         estimate D2E/DX2                !
 ! D69   D(17,18,20,23)          1.5263         estimate D2E/DX2                !
 ! D70   D(17,18,20,36)       -176.7801         estimate D2E/DX2                !
 ! D71   D(19,18,20,23)        177.9074         estimate D2E/DX2                !
 ! D72   D(19,18,20,36)         -0.399          estimate D2E/DX2                !
 ! D73   D(18,20,23,22)          2.1881         estimate D2E/DX2                !
 ! D74   D(18,20,23,24)       -177.6221         estimate D2E/DX2                !
 ! D75   D(36,20,23,22)       -179.4538         estimate D2E/DX2                !
 ! D76   D(36,20,23,24)          0.736          estimate D2E/DX2                !
 ! D77   D(17,21,22,23)          1.2773         estimate D2E/DX2                !
 ! D78   D(17,21,22,38)       -179.4122         estimate D2E/DX2                !
 ! D79   D(37,21,22,23)       -178.0824         estimate D2E/DX2                !
 ! D80   D(37,21,22,38)          1.2281         estimate D2E/DX2                !
 ! D81   D(21,22,23,20)         -3.5934         estimate D2E/DX2                !
 ! D82   D(21,22,23,24)        176.2184         estimate D2E/DX2                !
 ! D83   D(38,22,23,20)        177.0876         estimate D2E/DX2                !
 ! D84   D(38,22,23,24)         -3.1006         estimate D2E/DX2                !
 ! D85   D(20,23,24,25)       -129.026          estimate D2E/DX2                !
 ! D86   D(20,23,24,26)        124.6909         estimate D2E/DX2                !
 ! D87   D(20,23,24,27)          7.8086         estimate D2E/DX2                !
 ! D88   D(22,23,24,25)         51.1587         estimate D2E/DX2                !
 ! D89   D(22,23,24,26)        -55.1244         estimate D2E/DX2                !
 ! D90   D(22,23,24,27)       -172.0067         estimate D2E/DX2                !
 ! D91   D(23,24,25,39)         86.6464         estimate D2E/DX2                !
 ! D92   D(26,24,25,39)       -168.1082         estimate D2E/DX2                !
 ! D93   D(27,24,25,39)        -39.4437         estimate D2E/DX2                !
 ! D94   D(23,24,26,40)         86.7291         estimate D2E/DX2                !
 ! D95   D(23,24,26,41)        -34.5825         estimate D2E/DX2                !
 ! D96   D(23,24,26,42)       -154.6661         estimate D2E/DX2                !
 ! D97   D(25,24,26,40)        -30.0484         estimate D2E/DX2                !
 ! D98   D(25,24,26,41)       -151.36           estimate D2E/DX2                !
 ! D99   D(25,24,26,42)         88.5564         estimate D2E/DX2                !
 ! D100  D(27,24,26,40)       -165.2419         estimate D2E/DX2                !
 ! D101  D(27,24,26,41)         73.4465         estimate D2E/DX2                !
 ! D102  D(27,24,26,42)        -46.6371         estimate D2E/DX2                !
 ! D103  D(23,24,27,43)       -160.6607         estimate D2E/DX2                !
 ! D104  D(25,24,27,43)        -29.7736         estimate D2E/DX2                !
 ! D105  D(26,24,27,43)         93.3671         estimate D2E/DX2                !
 --------------------------------------------------------------------------------
 Trust Radius=3.00D-01 FncErr=1.00D-07 GrdErr=1.00D-06 EigMax=2.50D+02 EigMin=1.00D-04
 Number of steps in this run=    232 maximum allowed number of steps=    258.
 GradGradGradGradGradGradGradGradGradGradGradGradGradGradGradGradGradGrad

                          Input orientation:                          
 ---------------------------------------------------------------------
 Center     Atomic      Atomic             Coordinates (Angstroms)
 Number     Number       Type             X           Y           Z
 ---------------------------------------------------------------------
      1          8           0        0.547522   -4.545063    0.787829
      2          6           0        0.699119   -3.417511    0.381354
      3          7           0        1.920340   -2.975275   -0.045096
      4          6           0        2.272235   -1.698231   -0.494542
      5          6           0        3.184662   -1.558153   -1.539052
      6          6           0        3.499070   -0.302356   -2.020943
      7          6           0        2.913274    0.827990   -1.469997
      8         17           0        3.260974    2.366205   -2.179910
      9          6           0        2.035940    0.714788   -0.393740
     10          6           0        1.364600    1.846456    0.272973
     11          6           0        2.029964    3.008838    0.653894
     12          6           0        1.315585    3.986573    1.326531
     13          6           0       -0.025929    3.773411    1.602091
     14          6           0       -0.598557    2.578508    1.189256
     15          7           0        0.075345    1.645328    0.541475
     16          6           0        1.741978   -0.555356    0.088169
     17          6           0       -0.418567   -2.428676    0.215765
     18          6           0       -1.036697   -1.829907    1.311102
     19         17           0       -0.510650   -2.228306    2.904439
     20          6           0       -2.015278   -0.865856    1.128310
     21          6           0       -0.847672   -2.107247   -1.067305
     22          6           0       -1.843669   -1.167686   -1.255681
     23          6           0       -2.389370   -0.532208   -0.155816
     24         16           0       -3.621433    0.772607   -0.421791
     25          7           0       -4.776797    0.362221   -1.348828
     26          6           0       -2.659424    1.859789   -1.532332
     27          7           0       -3.808919    1.346152    0.994294
     28          1           0        2.632435   -3.693978   -0.100839
     29          1           0        3.636771   -2.432387   -1.982983
     30          1           0        4.190412   -0.194424   -2.841919
     31          1           0        3.081535    3.132931    0.450527
     32          1           0        1.804064    4.898744    1.637932
     33          1           0       -0.611797    4.510399    2.128290
     34          1           0       -1.640533    2.348267    1.377305
     35          1           0        1.090978   -0.620903    0.941578
     36          1           0       -2.472700   -0.350965    1.956984
     37          1           0       -0.387572   -2.591718   -1.915645
     38          1           0       -2.190718   -0.917521   -2.245278
     39          1           0       -5.541812   -0.097588   -0.882406
     40          1           0       -2.811492    1.500415   -2.540819
     41          1           0       -1.617919    1.818290   -1.235954
     42          1           0       -3.047033    2.867199   -1.433123
     43          1           0       -4.663242    1.865731    1.113592
 ---------------------------------------------------------------------
                    Distance matrix (angstroms):
                    1          2          3          4          5
     1  O    0.000000
     2  C    1.208129   0.000000
     3  N    2.245579   1.367046   0.000000
     4  C    3.567010   2.489541   1.398811   0.000000
     5  C    4.614164   3.650082   2.416330   1.393968   0.000000
     6  C    5.882295   4.828556   3.679790   2.404889   1.381339
     7  C    6.290012   5.133640   4.181039   2.782847   2.402519
     8  Cl   7.995994   6.824555   5.906449   4.509735   3.977073
     9  C    5.592631   4.411775   3.708299   2.426655   2.792411
    10  C    6.464070   5.306973   4.864063   3.738675   4.264672
    11  C    7.699155   6.568363   6.025796   4.851196   5.196128
    12  C    8.583061   7.489583   7.121406   6.045535   6.515290
    13  C    8.377880   7.329751   7.214288   6.294148   6.971388
    14  C    7.226333   6.187804   6.221975   5.419144   6.234450
    15  N    6.213259   5.103634   5.009795   4.132680   4.925316
    16  C    4.223033   3.060302   2.430140   1.388124   2.394742
    17  C    2.395762   1.501478   2.416051   2.877239   4.101274
    18  C    3.186790   2.529422   3.448943   3.771832   5.100696
    19  Cl   3.311665   3.040347   3.894539   4.424760   5.817994
    20  C    4.496714   3.799584   4.616884   4.659321   5.885021
    21  C    3.366160   2.491579   3.075756   3.198308   4.096799
    22  C    4.615236   3.769266   4.347489   4.219180   5.051423
    23  C    5.061502   4.260550   4.955243   4.817147   5.834015
    24  S    6.864472   6.072009   6.700728   6.391061   7.280360
    25  N    7.549511   6.874995   7.595409   7.393519   8.191999
    26  C    7.529261   6.541552   6.823778   6.169098   6.770207
    27  N    7.329913   6.587153   7.251170   6.961705   7.985174
    28  H    2.420937   2.011630   1.013272   2.065853   2.633469
    29  H    4.656635   3.897481   2.645046   2.148580   1.079704
    30  H    6.736006   5.741682   4.550668   3.383935   2.137464
    31  H    8.092377   6.970580   6.237323   4.988812   5.096600
    32  H    9.564887   8.482924   8.052719   6.948864   7.327401
    33  H    9.227256   8.223263   8.195770   7.331029   8.042998
    34  H    7.256243   6.301594   6.560727   5.931923   6.859137
    35  H    3.964595   2.878962   2.684108   2.149057   3.378680
    36  H    5.298974   4.684736   5.494919   5.508132   6.759092
    37  H    3.463918   2.671897   2.995418   3.145223   3.737771
    38  H    5.464134   4.636842   5.096661   4.857215   5.459292
    39  H    7.723323   7.181100   8.041511   7.985727   8.872192
    40  H    7.675329   6.711891   6.975003   6.345303   6.805310
    41  H    7.019765   5.949619   6.075828   5.296123   5.878522
    42  H    8.532003   7.538140   7.793325   7.072390   7.643885
    43  H    8.267797   7.563315   8.253572   7.961707   8.963766
                    6          7          8          9         10
     6  C    0.000000
     7  C    1.387221   0.000000
     8  Cl   2.683874   1.729444   0.000000
     9  C    2.413114   1.393147   2.723653   0.000000
    10  C    3.799396   2.544329   3.143725   1.475086   0.000000
    11  C    4.503002   3.169739   3.155757   2.521951   1.392459
    12  C    5.862431   4.511078   4.324957   3.766009   2.385894
    13  C    6.493371   5.172247   5.204563   4.194022   2.722734
    14  C    5.949395   4.740136   5.127604   3.594427   2.286801
    15  N    4.699080   3.573220   4.251332   2.363147   1.332187
    16  C    2.756761   2.390284   3.998380   1.389933   2.438292
    17  C    4.987181   4.954678   6.501474   4.034534   4.632463
    18  C    5.831734   5.513728   6.947265   4.338555   4.512160
    19  Cl   6.636756   6.340338   7.822102   5.101462   5.200468
    20  C    6.375215   5.823310   7.016365   4.607325   4.417218
    21  C    4.802210   4.787744   6.175000   4.090573   4.724643
    22  C    5.466195   5.163058   6.276939   4.397501   4.659917
    23  C    6.181040   5.629853   6.665144   4.603800   4.464772
    24  S    7.376611   6.618474   7.279976   5.657738   5.147462
    25  N    8.329669   7.705116   8.325407   6.888388   6.523032
    26  C    6.545277   5.667756   5.977200   4.965265   4.410450
    27  N    8.075639   7.178377   7.816614   6.040500   5.247467
    28  H    3.992612   4.733039   6.437656   4.458566   5.695924
    29  H    2.134815   3.378855   4.817312   3.872087   5.344211
    30  H    1.078705   2.135084   2.803379   3.385557   4.674715
    31  H    4.252493   3.004908   2.745772   2.766491   2.152768
    32  H    6.581174   5.240287   4.807520   4.656925   3.372344
    33  H    7.568221   6.239706   6.177095   5.270466   3.800650
    34  H    6.707415   5.581714   6.056308   4.395601   3.240707
    35  H    3.831046   3.351977   4.834810   2.111895   2.570946
    36  H    7.175535   6.491752   7.574425   5.195149   4.731746
    37  H    4.512012   4.773739   6.161390   4.372937   5.249528
    38  H    5.727342   5.449643   6.364596   4.894616   5.159597
    39  H    9.114590   8.525869   9.232705   7.636824   7.267237
    40  H    6.583575   5.862744   6.144485   5.359549   5.047466
    41  H    5.594365   4.644048   4.999486   3.908674   3.342615
    42  H    7.296785   6.299602   6.371784   5.616921   4.838923
    43  H    9.008288   8.071892   8.595977   6.962454   6.086205
                   11         12         13         14         15
    11  C    0.000000
    12  C    1.385188   0.000000
    13  C    2.389633   1.386012   0.000000
    14  C    2.716785   2.380217   1.387851   0.000000
    15  N    2.385860   2.763320   2.379894   1.320828   0.000000
    16  C    3.620284   4.726994   4.914842   4.063446   2.797528
    17  C    5.979450   6.737693   6.367256   5.104113   4.116740
    18  C    5.766263   6.274146   5.701184   4.431810   3.729105
    19  Cl   6.240782   6.667057   6.160493   5.104414   4.575154
    20  C    5.621594   5.888974   5.069989   3.724844   3.319809
    21  C    6.116995   6.895272   6.510228   5.206766   4.185923
    22  C    6.007900   6.573819   5.990449   4.643489   3.850381
    23  C    5.720590   6.028552   5.216747   3.833117   3.361949
    24  S    6.172205   6.144946   5.101820   3.872277   3.918634
    25  N    7.572812   7.576979   6.550946   5.367634   5.363105
    26  C    5.300024   5.338259   4.519054   3.488663   3.438842
    27  N    6.080539   5.774318   4.535639   3.444291   3.921997
    28  H    6.772025   7.922268   8.107327   7.172707   5.954785
    29  H    6.256347   7.585765   8.048605   7.287672   5.973642
    30  H    5.210483   6.566685   7.298662   6.846440   5.636117
    31  H    1.078220   2.148178   3.375299   3.794230   3.355355
    32  H    2.142687   1.080573   2.148612   3.370073   3.843878
    33  H    3.377489   2.152211   1.078554   2.148061   3.346457
    34  H    3.798977   3.380127   2.165297   1.083553   2.033955
    35  H    3.760250   4.628982   4.581894   3.626583   2.515432
    36  H    5.767175   5.793342   4.808650   3.561408   3.532901
    37  H    6.619156   7.529035   7.281491   6.034580   4.919786
    38  H    6.452569   7.007291   6.441537   5.152981   4.412396
    39  H    8.327178   8.281527   7.182084   5.990747   6.051253
    40  H    5.993432   6.178200   5.485397   4.469097   4.225562
    41  H    4.277380   4.457941   3.796239   2.738371   2.460959
    42  H    5.491047   5.282152   4.377306   3.599340   3.891176
    43  H    6.805661   6.347416   5.038110   4.127402   4.778086
                   16         17         18         19         20
    16  C    0.000000
    17  C    2.862441   0.000000
    18  C    3.292580   1.392973   0.000000
    19  Cl   3.975484   2.697702   1.724578   0.000000
    20  C    3.910918   2.413427   1.385796   2.697186   0.000000
    21  C    3.232611   1.390581   2.401971   3.987855   2.779402
    22  C    3.877854   2.405445   2.770942   4.495381   2.409141
    23  C    4.138611   2.760204   2.380252   3.971335   1.378494
    24  S    5.548848   4.573078   4.056705   5.454012   2.768954
    25  N    6.738051   5.406591   5.086158   6.557524   3.907732
    26  C    5.275536   5.144727   4.932770   6.404271   3.863040
    27  N    5.937108   5.133218   4.227640   5.225321   2.850980
    28  H    3.267963   3.318107   4.350961   4.588994   5.577662
    29  H    3.376856   4.613054   5.749372   6.413239   6.639263
    30  H    3.835429   5.965233   6.873504   7.697876   7.397576
    31  H    3.940707   6.575507   6.506165   6.904226   6.513616
    32  H    5.670346   7.788051   7.311053   7.599789   6.933809
    33  H    5.946783   7.200407   6.406857   6.784010   5.645692
    34  H    4.640504   5.065725   4.222102   4.955179   3.245462
    35  H    1.075363   2.464462   2.474922   3.000297   3.121490
    36  H    4.614949   3.401205   2.160218   2.876061   1.077520
    37  H    3.563288   2.137861   3.378404   4.835331   3.859234
    38  H    4.587182   3.388339   3.848643   5.573183   3.378541
    39  H    7.362416   5.734771   5.301743   6.647763   4.131544
    40  H    5.645517   5.363078   5.392425   6.989140   4.437984
    41  H    4.321621   4.645714   4.487166   5.894391   3.598928
    42  H    6.079707   6.137911   5.799571   7.156246   4.643399
    43  H    6.923872   6.104531   5.181562   6.100188   3.804405
                   21         22         23         24         25
    21  C    0.000000
    22  C    1.382125   0.000000
    23  C    2.385035   1.382506   0.000000
    24  S    4.050184   2.760535   1.814184   0.000000
    25  N    4.649253   3.309461   2.814798   1.537102   0.000000
    26  C    4.385894   3.147633   2.772972   1.827766   2.599934
    27  N    4.994511   3.904353   2.620326   1.539286   2.719399
    28  H    3.944986   5.267952   5.934503   7.691830   8.538556
    29  H    4.588508   5.671301   6.577506   8.086459   8.888200
    30  H    5.673662   6.314549   7.114969   8.235113   9.107690
    31  H    6.723238   6.757521   6.612995   7.159737   8.524547
    32  H    7.964541   7.647256   7.092085   7.120638   8.532791
    33  H    7.352598   6.723795   5.814189   5.434327   6.829711
    34  H    5.143574   4.397250   3.347889   3.105385   4.605685
    35  H    3.162782   3.706626   3.650337   5.099751   6.375208
    36  H    3.856367   3.374008   2.122196   2.870639   4.092174
    37  H    1.079854   2.140943   3.368349   4.899810   5.320933
    38  H    2.146355   1.078113   2.133958   2.868551   3.021451
    39  H    5.109586   3.867907   3.264157   2.158070   1.007086
    40  H    4.363835   3.115610   3.161959   2.382434   2.564908
    41  H    4.003943   2.994563   2.699385   2.402162   3.480142
    42  H    5.451249   4.214246   3.690529   2.395839   3.045342
    43  H    5.924478   4.771275   3.540057   2.153529   2.887378
                   26         27         28         29         30
    26  C    0.000000
    27  N    2.822942   0.000000
    28  H    7.803670   8.251864   0.000000
    29  H    7.633343   8.864526   2.478461   0.000000
    30  H    7.270148   9.004399   4.710381   2.460237   0.000000
    31  H    6.205741   7.139091   6.863845   6.099428   4.810520
    32  H    6.261673   6.673887   8.805929   8.379458   7.190555
    33  H    4.961719   4.638965   9.099772   9.118946   8.360595
    34  H    3.121336   2.419263   7.546647   7.873762   7.633286
    35  H    5.132210   5.280253   3.592563   4.279672   4.909504
    36  H    4.134927   2.364837   6.439936   7.561831   8.212858
    37  H    5.012400   5.973289   3.691739   4.028058   5.250042
    38  H    2.905413   4.270552   5.964070   6.026877   6.449626
    39  H    3.544276   2.934162   8.964551   9.534618   9.928004
    40  H    1.081352   3.676368   7.910219   7.573520   7.210396
    41  H    1.083648   3.161867   7.052595   6.799858   6.353491
    42  H    1.083955   2.964188   8.779543   8.547583   7.983661
    43  H    3.319072   1.007007   9.252681   9.846462   9.913501
                   31         32         33         34         35
    31  H    0.000000
    32  H    2.481926   0.000000
    33  H    4.284041   2.495526   0.000000
    34  H    4.875709   4.293962   2.509400   0.000000
    35  H    4.277232   5.608913   5.535160   4.057953   0.000000
    36  H    6.727292   6.778787   5.208182   2.883467   3.715336
    37  H    7.099653   8.575442   8.175803   6.067692   3.772790
    38  H    7.174272   8.053977   7.147265   4.908277   4.584055
    39  H    9.304573   9.234573   7.389377   5.129180   6.898890
    40  H    6.807425   7.093234   5.974884   4.176326   5.644144
    41  H    5.163077   5.427558   4.424689   2.666555   4.246108
    42  H    6.417016   6.090295   4.616724   3.185285   5.910092
    43  H    7.875723   7.162412   4.943489   3.072321   6.270884
                   36         37         38         39         40
    36  H    0.000000
    37  H    4.936192   0.000000
    38  H    4.249647   2.482525   0.000000
    39  H    4.188769   5.818459   3.709386   0.000000
    40  H    4.875717   4.797060   2.513786   3.571918   0.000000
    41  H    3.953627   4.628596   2.971783   4.380927   1.796757
    42  H    4.709486   6.091415   3.964464   3.913717   1.774984
    43  H    3.228548   6.879425   5.014167   2.934368   4.113047
                   41         42         43
    41  H    0.000000
    42  H    1.783662   0.000000
    43  H    3.846636   3.178180   0.000000
 Stoichiometry    C19H16Cl2N4OS
 Framework group  C1[X(C19H16Cl2N4OS)]
 Deg. of freedom   123
 Full point group                 C1      NOp   1
 Largest Abelian subgroup         C1      NOp   1
 Largest concise Abelian subgroup C1      NOp   1
                         Standard orientation:                         
 ---------------------------------------------------------------------
 Center     Atomic      Atomic             Coordinates (Angstroms)
 Number     Number       Type             X           Y           Z
 ---------------------------------------------------------------------
      1          8           0        0.377069    4.656272    0.239660
      2          6           0       -0.042532    3.542393    0.032818
      3          7           0       -1.382333    3.300547   -0.090708
      4          6           0       -2.028881    2.074757   -0.280672
      5          6           0       -3.150286    2.003237   -1.105586
      6          6           0       -3.763972    0.787555   -1.337111
      7          6           0       -3.272919   -0.369761   -0.750710
      8         17           0       -4.013654   -1.878644   -1.157605
      9          6           0       -2.183157   -0.314375    0.115436
     10          6           0       -1.585641   -1.477209    0.798568
     11          6           0       -2.340959   -2.443353    1.458116
     12          6           0       -1.675026   -3.463639    2.117127
     13          6           0       -0.289231   -3.484318    2.103984
     14          6           0        0.375486   -2.471994    1.426134
     15          7           0       -0.253683   -1.500335    0.790041
     16          6           0       -1.586769    0.919234    0.348766
     17          6           0        0.834371    2.345418   -0.196809
     18          6           0        1.559491    1.757945    0.837333
     19         17           0        1.453265    2.415716    2.428000
     20          6           0        2.302913    0.610061    0.613470
     21          6           0        0.925103    1.814083   -1.478670
     22          6           0        1.688224    0.686159   -1.714690
     23          6           0        2.338383    0.077262   -0.657401
     24         16           0        3.251653   -1.460570   -0.961168
     25          7           0        4.238944   -1.379857   -2.136508
     26          6           0        1.910439   -2.453610   -1.706652
     27          7           0        3.633343   -1.906883    0.461687
     28          1           0       -1.960007    4.132702   -0.113731
     29          1           0       -3.532889    2.896268   -1.576620
     30          1           0       -4.620152    0.728497   -1.990620
     31          1           0       -3.417410   -2.383857    1.474603
     32          1           0       -2.232712   -4.226964    2.640538
     33          1           0        0.262408   -4.260461    2.610516
     34          1           0        1.457213   -2.427693    1.381495
     35          1           0       -0.769735    0.948108    1.047355
     36          1           0        2.831314    0.107184    1.406537
     37          1           0        0.384918    2.285720   -2.286039
     38          1           0        1.773329    0.271064   -2.706043
     39          1           0        5.150548   -1.029012   -1.891340
     40          1           0        1.905553   -2.238517   -2.766384
     41          1           0        0.976111   -2.181790   -1.229747
     42          1           0        2.136391   -3.500535   -1.539766
     43          1           0        4.394625   -2.565376    0.491658
 ---------------------------------------------------------------------
 Rotational constants (GHZ):           0.1801899           0.1553901           0.1103602
 Standard basis: def2SVP (5D, 7F)
 There are   497 symmetry adapted cartesian basis functions of A   symmetry.
 There are   470 symmetry adapted basis functions of A   symmetry.
   470 basis functions,   823 primitive gaussians,   497 cartesian basis functions
   108 alpha electrons      108 beta electrons
       nuclear repulsion energy      3030.7564115777 Hartrees.
 NAtoms=   43 NActive=   43 NUniq=   43 SFac= 1.00D+00 NAtFMM=   60 NAOKFM=F Big=F
 Integral buffers will be    131072 words long.
 Raffenetti 2 integral format.
 Two-electron integral symmetry is turned on.
 Nuclear repulsion after empirical dispersion term =     3030.6877158316 Hartrees.
 One-electron integrals computed using PRISM.
   1 Symmetry operations used in ECPInt.
 ECPInt:  NShTT=   23436 NPrTT=   89682 LenC2=   20997 LenP2D=   53273.
 LDataN:  DoStor=T MaxTD1= 4 Len=   56
 NBasis=   470 RedAO= T EigKep=  1.93D-04  NBF=   470
 NBsUse=   470 1.00D-06 EigRej= -1.00D+00 NBFU=   470
 ExpMin= 1.22D-01 ExpMax= 1.04D+04 ExpMxC= 1.57D+03 IAcc=3 IRadAn=         5 AccDes= 0.00D+00
 Harris functional with IExCor= 1009 and IRadAn=       5 diagonalized for initial guess.
 HarFok:  IExCor= 1009 AccDes= 0.00D+00 IRadAn=         5 IDoV= 1 UseB2=F ITyADJ=14
 ICtDFT=  3500011 ScaDFX=  1.000000  1.000000  1.000000  1.000000
 FoFCou: FMM=F IPFlag=           0 FMFlag=      100000 FMFlg1=           0
         NFxFlg=           0 DoJE=T BraDBF=F KetDBF=T FulRan=T
         wScrn=  0.000000 ICntrl=       500 IOpCl=  0 I1Cent=   200000004 NGrid=           0
         NMat0=    1 NMatS0=      1 NMatT0=    0 NMatD0=    1 NMtDS0=    0 NMtDT0=    0
 Petite list used in FoFCou.
 Requested convergence on RMS density matrix=1.00D-08 within 128 cycles.
 Requested convergence on MAX density matrix=1.00D-06.
 Requested convergence on             energy=1.00D-06.
 No special actions if energy rises.
 Integral accuracy reduced to 1.0D-05 until final iterations.
 Initial convergence to 1.0D-05 achieved.  Increase integral accuracy.
 SCF Done:  E(RPBE1PBE) =  -2343.64869473     A.U. after   16 cycles
            NFock= 16  Conv=0.29D-08     -V/T= 2.0050

 **********************************************************************

            Population analysis using the SCF Density.

 **********************************************************************

 Orbital symmetries:
       Occupied  (A) (A) (A) (A) (A) (A) (A) (A) (A) (A) (A) (A)
                 (A) (A) (A) (A) (A) (A) (A) (A) (A) (A) (A) (A)
                 (A) (A) (A) (A) (A) (A) (A) (A) (A) (A) (A) (A)
                 (A) (A) (A) (A) (A) (A) (A) (A) (A) (A) (A) (A)
                 (A) (A) (A) (A) (A) (A) (A) (A) (A) (A) (A) (A)
                 (A) (A) (A) (A) (A) (A) (A) (A) (A) (A) (A) (A)
                 (A) (A) (A) (A) (A) (A) (A) (A) (A) (A) (A) (A)
                 (A) (A) (A) (A) (A) (A) (A) (A) (A) (A) (A) (A)
                 (A) (A) (A) (A) (A) (A) (A) (A) (A) (A) (A) (A)
       Virtual   (A) (A) (A) (A) (A) (A) (A) (A) (A) (A) (A) (A)
                 (A) (A) (A) (A) (A) (A) (A) (A) (A) (A) (A) (A)
                 (A) (A) (A) (A) (A) (A) (A) (A) (A) (A) (A) (A)
                 (A) (A) (A) (A) (A) (A) (A) (A) (A) (A) (A) (A)
                 (A) (A) (A) (A) (A) (A) (A) (A) (A) (A) (A) (A)
                 (A) (A) (A) (A) (A) (A) (A) (A) (A) (A) (A) (A)
                 (A) (A) (A) (A) (A) (A) (A) (A) (A) (A) (A) (A)
                 (A) (A) (A) (A) (A) (A) (A) (A) (A) (A) (A) (A)
                 (A) (A) (A) (A) (A) (A) (A) (A) (A) (A) (A) (A)
                 (A) (A) (A) (A) (A) (A) (A) (A) (A) (A) (A) (A)
                 (A) (A) (A) (A) (A) (A) (A) (A) (A) (A) (A) (A)
                 (A) (A) (A) (A) (A) (A) (A) (A) (A) (A) (A) (A)
                 (A) (A) (A) (A) (A) (A) (A) (A) (A) (A) (A) (A)
                 (A) (A) (A) (A) (A) (A) (A) (A) (A) (A) (A) (A)
                 (A) (A) (A) (A) (A) (A) (A) (A) (A) (A) (A) (A)
                 (A) (A) (A) (A) (A) (A) (A) (A) (A) (A) (A) (A)
                 (A) (A) (A) (A) (A) (A) (A) (A) (A) (A) (A) (A)
                 (A) (A) (A) (A) (A) (A) (A) (A) (A) (A) (A) (A)
                 (A) (A) (A) (A) (A) (A) (A) (A) (A) (A) (A) (A)
                 (A) (A) (A) (A) (A) (A) (A) (A) (A) (A) (A) (A)
                 (A) (A) (A) (A) (A) (A) (A) (A) (A) (A) (A) (A)
                 (A) (A) (A) (A) (A) (A) (A) (A) (A) (A) (A) (A)
                 (A) (A) (A) (A) (A) (A) (A) (A) (A) (A) (A) (A)
                 (A) (A) (A) (A) (A) (A) (A) (A) (A) (A) (A) (A)
                 (A) (A) (A) (A) (A) (A) (A) (A) (A) (A) (A) (A)
                 (A) (A) (A) (A) (A) (A) (A) (A) (A) (A) (A) (A)
                 (A) (A) (A) (A) (A) (A) (A) (A) (A) (A) (A) (A)
                 (A) (A) (A) (A) (A) (A) (A) (A) (A) (A) (A) (A)
                 (A) (A) (A) (A) (A) (A) (A) (A) (A) (A) (A) (A)
                 (A) (A) (A) (A) (A) (A) (A) (A) (A) (A) (A) (A)
                 (A) (A)
 The electronic state is 1-A.
 Alpha  occ. eigenvalues -- -101.69225-101.68958 -89.18799 -19.18962 -14.44225
 Alpha  occ. eigenvalues --  -14.39581 -14.35269 -14.34744 -10.35122 -10.30912
 Alpha  occ. eigenvalues --  -10.30524 -10.29880 -10.28867 -10.27164 -10.27066
 Alpha  occ. eigenvalues --  -10.26980 -10.26586 -10.26380 -10.26283 -10.26125
 Alpha  occ. eigenvalues --  -10.26100 -10.26021 -10.25834 -10.25595 -10.25404
 Alpha  occ. eigenvalues --  -10.25253 -10.25120  -9.54430  -9.54148  -8.16217
 Alpha  occ. eigenvalues --   -7.28552  -7.28277  -7.27590  -7.27549  -7.27316
 Alpha  occ. eigenvalues --   -7.27249  -6.10349  -6.10257  -6.10218  -1.07670
 Alpha  occ. eigenvalues --   -1.01027  -0.98545  -0.97819  -0.93238  -0.92799
 Alpha  occ. eigenvalues --   -0.87644  -0.86813  -0.85747  -0.83434  -0.82292
 Alpha  occ. eigenvalues --   -0.80849  -0.77427  -0.77383  -0.76368  -0.75795
 Alpha  occ. eigenvalues --   -0.69948  -0.67711  -0.66654  -0.65121  -0.64686
 Alpha  occ. eigenvalues --   -0.63251  -0.62637  -0.60044  -0.58312  -0.55633
 Alpha  occ. eigenvalues --   -0.54456  -0.53803  -0.52311  -0.51966  -0.51529
 Alpha  occ. eigenvalues --   -0.50805  -0.49601  -0.48706  -0.47883  -0.47552
 Alpha  occ. eigenvalues --   -0.46717  -0.46161  -0.45838  -0.45606  -0.45020
 Alpha  occ. eigenvalues --   -0.44201  -0.43729  -0.43207  -0.43025  -0.42497
 Alpha  occ. eigenvalues --   -0.41954  -0.41221  -0.40771  -0.39834  -0.39164
 Alpha  occ. eigenvalues --   -0.38338  -0.37116  -0.35950  -0.35120  -0.33421
 Alpha  occ. eigenvalues --   -0.33193  -0.31927  -0.31464  -0.30523  -0.30091
 Alpha  occ. eigenvalues --   -0.28228  -0.27843  -0.27402  -0.27089  -0.26628
 Alpha  occ. eigenvalues --   -0.25952  -0.24672  -0.24332
 Alpha virt. eigenvalues --   -0.05628  -0.04175  -0.02857  -0.02757  -0.02554
 Alpha virt. eigenvalues --    0.00203   0.03128   0.04171   0.04676   0.06713
 Alpha virt. eigenvalues --    0.07256   0.07751   0.07970   0.08649   0.09320
 Alpha virt. eigenvalues --    0.10033   0.10618   0.10922   0.12022   0.12105
 Alpha virt. eigenvalues --    0.12770   0.13352   0.13999   0.14354   0.14895
 Alpha virt. eigenvalues --    0.15387   0.15792   0.16643   0.17425   0.18198
 Alpha virt. eigenvalues --    0.20851   0.21236   0.22298   0.23171   0.23564
 Alpha virt. eigenvalues --    0.26076   0.26817   0.27173   0.27385   0.28155
 Alpha virt. eigenvalues --    0.28913   0.29590   0.29918   0.29989   0.30712
 Alpha virt. eigenvalues --    0.31371   0.31781   0.33329   0.33993   0.35271
 Alpha virt. eigenvalues --    0.36697   0.37350   0.38467   0.38849   0.39346
 Alpha virt. eigenvalues --    0.39936   0.40751   0.41161   0.42153   0.42683
 Alpha virt. eigenvalues --    0.42973   0.43208   0.44062   0.44706   0.45265
 Alpha virt. eigenvalues --    0.46239   0.46899   0.47768   0.47863   0.48041
 Alpha virt. eigenvalues --    0.49164   0.49944   0.50236   0.50654   0.51703
 Alpha virt. eigenvalues --    0.52205   0.52382   0.53751   0.54163   0.55253
 Alpha virt. eigenvalues --    0.55874   0.56532   0.57079   0.58599   0.59328
 Alpha virt. eigenvalues --    0.59627   0.59953   0.60466   0.60748   0.61507
 Alpha virt. eigenvalues --    0.62386   0.63257   0.63476   0.64086   0.64705
 Alpha virt. eigenvalues --    0.64861   0.65063   0.65775   0.66474   0.66624
 Alpha virt. eigenvalues --    0.66654   0.67285   0.67799   0.68024   0.68599
 Alpha virt. eigenvalues --    0.68887   0.69259   0.69646   0.69796   0.70318
 Alpha virt. eigenvalues --    0.71189   0.71408   0.71890   0.72194   0.72751
 Alpha virt. eigenvalues --    0.73701   0.73755   0.74295   0.74930   0.75170
 Alpha virt. eigenvalues --    0.75561   0.76075   0.76554   0.77801   0.77942
 Alpha virt. eigenvalues --    0.78282   0.79573   0.80191   0.80354   0.80594
 Alpha virt. eigenvalues --    0.80847   0.81300   0.82244   0.82787   0.83369
 Alpha virt. eigenvalues --    0.84091   0.84192   0.85400   0.85622   0.87015
 Alpha virt. eigenvalues --    0.87280   0.87777   0.88001   0.89578   0.89838
 Alpha virt. eigenvalues --    0.90152   0.91367   0.92857   0.93676   0.95182
 Alpha virt. eigenvalues --    0.95833   0.96302   0.96621   0.98233   0.99137
 Alpha virt. eigenvalues --    0.99785   0.99851   1.00584   1.02767   1.03521
 Alpha virt. eigenvalues --    1.05757   1.06022   1.07368   1.08381   1.08954
 Alpha virt. eigenvalues --    1.11344   1.11662   1.11760   1.12723   1.13213
 Alpha virt. eigenvalues --    1.14812   1.15712   1.17550   1.17901   1.19357
 Alpha virt. eigenvalues --    1.20059   1.20297   1.21232   1.21634   1.22087
 Alpha virt. eigenvalues --    1.23541   1.24299   1.24890   1.25637   1.26650
 Alpha virt. eigenvalues --    1.26950   1.27636   1.28563   1.29570   1.30555
 Alpha virt. eigenvalues --    1.31170   1.33022   1.34085   1.35149   1.35488
 Alpha virt. eigenvalues --    1.37398   1.37965   1.38374   1.40113   1.42143
 Alpha virt. eigenvalues --    1.43048   1.44134   1.44615   1.45746   1.46404
 Alpha virt. eigenvalues --    1.48523   1.49978   1.50842   1.51051   1.53357
 Alpha virt. eigenvalues --    1.54765   1.55313   1.57167   1.59099   1.60763
 Alpha virt. eigenvalues --    1.63692   1.65000   1.67894   1.68433   1.69442
 Alpha virt. eigenvalues --    1.71511   1.71635   1.72027   1.72652   1.73179
 Alpha virt. eigenvalues --    1.73585   1.74437   1.74691   1.74963   1.76840
 Alpha virt. eigenvalues --    1.77123   1.77923   1.78565   1.78751   1.79206
 Alpha virt. eigenvalues --    1.79896   1.80181   1.81346   1.81677   1.83009
 Alpha virt. eigenvalues --    1.83471   1.83920   1.85222   1.86002   1.86202
 Alpha virt. eigenvalues --    1.87349   1.87728   1.88830   1.90241   1.90691
 Alpha virt. eigenvalues --    1.91816   1.92133   1.93281   1.95018   1.96819
 Alpha virt. eigenvalues --    1.97654   1.98780   1.99743   1.99986   2.00822
 Alpha virt. eigenvalues --    2.01326   2.01972   2.04834   2.05535   2.06795
 Alpha virt. eigenvalues --    2.08117   2.08738   2.09736   2.10388   2.12528
 Alpha virt. eigenvalues --    2.13592   2.14999   2.15118   2.15812   2.16583
 Alpha virt. eigenvalues --    2.16692   2.17672   2.19064   2.20523   2.21166
 Alpha virt. eigenvalues --    2.22281   2.24937   2.26002   2.26738   2.27785
 Alpha virt. eigenvalues --    2.28895   2.30144   2.30328   2.31766   2.32872
 Alpha virt. eigenvalues --    2.33161   2.33585   2.35040   2.35764   2.37592
 Alpha virt. eigenvalues --    2.38769   2.39322   2.40093   2.41404   2.41905
 Alpha virt. eigenvalues --    2.44127   2.46318   2.47051   2.47101   2.48661
 Alpha virt. eigenvalues --    2.50800   2.54044   2.54699   2.55858   2.57233
 Alpha virt. eigenvalues --    2.57396   2.58863   2.60025   2.60608   2.60943
 Alpha virt. eigenvalues --    2.62689   2.63969   2.64136   2.65880   2.67043
 Alpha virt. eigenvalues --    2.68721   2.68915   2.70301   2.71482   2.73782
 Alpha virt. eigenvalues --    2.75402   2.75780   2.77039   2.81044   2.82877
 Alpha virt. eigenvalues --    2.83971   2.84530   2.85619   2.86289   2.87293
 Alpha virt. eigenvalues --    2.88858   2.89233   2.90770   2.92049   2.92905
 Alpha virt. eigenvalues --    2.96137   2.96928   2.97959   2.98917   3.05401
 Alpha virt. eigenvalues --    3.07253   3.07789   3.11222   3.13495   3.15379
 Alpha virt. eigenvalues --    3.16315   3.20488   3.22886   3.27932   3.31927
 Alpha virt. eigenvalues --    3.41206   3.43110   3.47741   3.55276   3.61139
 Alpha virt. eigenvalues --    3.68272   3.71642
          Condensed to atoms (all electrons):
               1          2          3          4          5          6
     1  O    7.650580   0.767375  -0.109194   0.002157  -0.000046   0.000000
     2  C    0.767375   4.692967   0.327437  -0.038178   0.006105  -0.000377
     3  N   -0.109194   0.327437   6.629833   0.323736  -0.085166   0.008244
     4  C    0.002157  -0.038178   0.323736   5.305723   0.202829   0.134533
     5  C   -0.000046   0.006105  -0.085166   0.202829   5.189359   0.277541
     6  C    0.000000  -0.000377   0.008244   0.134533   0.277541   4.980035
     7  C    0.000000   0.000199  -0.000126  -0.206827   0.114789   0.306077
     8  Cl   0.000000  -0.000000   0.000001   0.001190   0.002653  -0.061936
     9  C   -0.000004   0.000489   0.009045   0.151799  -0.156767   0.083796
    10  C    0.000000  -0.000072  -0.000158   0.017732  -0.002219   0.013466
    11  C    0.000000  -0.000001   0.000000  -0.000737   0.000013  -0.000373
    12  C   -0.000000  -0.000000   0.000000   0.000007   0.000001  -0.000006
    13  C   -0.000000  -0.000000   0.000000  -0.000002   0.000000  -0.000002
    14  C   -0.000000   0.000001  -0.000000   0.000048   0.000001   0.000007
    15  N   -0.000000  -0.000123   0.000011  -0.000068  -0.000025  -0.000076
    16  C   -0.000081  -0.018994  -0.079800   0.178225   0.072647  -0.122259
    17  C   -0.084682   0.128773  -0.170297   0.013124   0.001190  -0.000102
    18  C   -0.002761  -0.055505  -0.002414   0.000953  -0.000366   0.000042
    19  Cl  -0.001615   0.014099  -0.001685  -0.000397   0.000002  -0.000001
    20  C    0.000119   0.006961   0.000034  -0.000124  -0.000010   0.000001
    21  C   -0.004778  -0.045126  -0.008009  -0.003413  -0.002076   0.000323
    22  C    0.000023   0.006495   0.000666  -0.000793   0.000104  -0.000041
    23  C   -0.000060   0.000044  -0.000073   0.000067  -0.000028   0.000010
    24  S   -0.000000   0.000011   0.000000  -0.000002   0.000000  -0.000000
    25  N   -0.000000  -0.000000   0.000000  -0.000000   0.000000  -0.000000
    26  C    0.000000  -0.000000  -0.000000   0.000006  -0.000000   0.000001
    27  N   -0.000000   0.000000  -0.000000   0.000000   0.000000  -0.000000
    28  H    0.008416  -0.010119   0.330335  -0.019550  -0.013571   0.000587
    29  H   -0.000051  -0.000460  -0.008183  -0.085276   0.452389  -0.059025
    30  H   -0.000000   0.000001  -0.000140   0.016052  -0.061833   0.444866
    31  H    0.000000   0.000000  -0.000000   0.000056  -0.000023  -0.000043
    32  H   -0.000000  -0.000000   0.000000  -0.000000  -0.000000  -0.000000
    33  H    0.000000   0.000000  -0.000000   0.000000   0.000000   0.000000
    34  H   -0.000000   0.000001  -0.000000  -0.000001  -0.000000   0.000000
    35  H   -0.000218   0.003604  -0.008072  -0.099310   0.017634  -0.003818
    36  H    0.000004  -0.000093   0.000006   0.000007   0.000000  -0.000000
    37  H   -0.000064  -0.009891   0.002678   0.003674  -0.000577   0.000199
    38  H    0.000002  -0.000174  -0.000001  -0.000007   0.000008  -0.000005
    39  H    0.000000  -0.000000   0.000000  -0.000000   0.000000  -0.000000
    40  H    0.000000   0.000000   0.000000  -0.000000  -0.000000   0.000000
    41  H    0.000000  -0.000003   0.000000  -0.000050   0.000001  -0.000005
    42  H   -0.000000   0.000000   0.000000  -0.000000  -0.000000  -0.000000
    43  H    0.000000  -0.000000   0.000000  -0.000000  -0.000000   0.000000
               7          8          9         10         11         12
     1  O    0.000000   0.000000  -0.000004   0.000000   0.000000  -0.000000
     2  C    0.000199  -0.000000   0.000489  -0.000072  -0.000001  -0.000000
     3  N   -0.000126   0.000001   0.009045  -0.000158   0.000000   0.000000
     4  C   -0.206827   0.001190   0.151799   0.017732  -0.000737   0.000007
     5  C    0.114789   0.002653  -0.156767  -0.002219   0.000013   0.000001
     6  C    0.306077  -0.061936   0.083796   0.013466  -0.000373  -0.000006
     7  C    5.340980   0.254641   0.252726  -0.104176  -0.017058   0.000635
     8  Cl   0.254641  16.945253  -0.066109  -0.005843  -0.000443  -0.001275
     9  C    0.252726  -0.066109   5.398654   0.244714  -0.113735   0.011123
    10  C   -0.104176  -0.005843   0.244714   5.179337   0.397905   0.001527
    11  C   -0.017058  -0.000443  -0.113735   0.397905   5.045695   0.410666
    12  C    0.000635  -0.001275   0.011123   0.001527   0.410666   4.857126
    13  C   -0.000162  -0.000018   0.001020  -0.083697   0.029136   0.383267
    14  C   -0.000151  -0.000001   0.012134  -0.043594  -0.094220   0.000038
    15  N   -0.000431  -0.000496  -0.111907   0.532920  -0.047708  -0.040630
    16  C    0.074545   0.002247   0.307661  -0.067895   0.010505  -0.000459
    17  C    0.000114   0.000000  -0.001345  -0.000884  -0.000022   0.000001
    18  C   -0.000155   0.000000  -0.000240   0.001283  -0.000002   0.000000
    19  Cl   0.000003   0.000000   0.000168  -0.000061  -0.000000   0.000000
    20  C   -0.000029  -0.000000  -0.000719   0.000400   0.000044  -0.000002
    21  C   -0.000281   0.000001   0.001143   0.000085   0.000000   0.000000
    22  C    0.000170  -0.000001   0.000223  -0.000649   0.000002  -0.000000
    23  C   -0.000052  -0.000000   0.000260   0.000202   0.000006  -0.000002
    24  S    0.000001   0.000000   0.000019   0.000000  -0.000003  -0.000003
    25  N   -0.000000  -0.000000   0.000000  -0.000000   0.000000  -0.000000
    26  C   -0.000011  -0.000004   0.000207   0.000392  -0.000146   0.000070
    27  N   -0.000000  -0.000000   0.000001  -0.000026   0.000001  -0.000011
    28  H   -0.000013  -0.000000  -0.000144   0.000010  -0.000000   0.000000
    29  H    0.016418  -0.000160  -0.002185   0.000065   0.000002  -0.000000
    30  H   -0.075300   0.002004   0.018498  -0.000260   0.000004  -0.000000
    31  H   -0.002542   0.013278  -0.016066  -0.038748   0.418299  -0.048622
    32  H   -0.000005  -0.000013  -0.000449   0.012683  -0.059872   0.441434
    33  H    0.000001   0.000000   0.000082   0.000582   0.011569  -0.058927
    34  H    0.000027   0.000000   0.000034   0.006648  -0.000099   0.007124
    35  H    0.023744  -0.000118  -0.055324  -0.033146   0.001265   0.000019
    36  H   -0.000000  -0.000000  -0.000015  -0.000029  -0.000001  -0.000001
    37  H   -0.000105  -0.000000  -0.000010   0.000030   0.000000   0.000000
    38  H    0.000004   0.000000  -0.000016  -0.000001  -0.000000   0.000000
    39  H    0.000000   0.000000  -0.000000   0.000000   0.000000   0.000000
    40  H    0.000002   0.000000   0.000002  -0.000010  -0.000000  -0.000001
    41  H   -0.000049   0.000051  -0.001671  -0.000148   0.000829  -0.000168
    42  H    0.000001   0.000000   0.000005  -0.000048  -0.000000  -0.000008
    43  H    0.000000  -0.000000  -0.000000   0.000001   0.000000   0.000000
              13         14         15         16         17         18
     1  O   -0.000000  -0.000000  -0.000000  -0.000081  -0.084682  -0.002761
     2  C   -0.000000   0.000001  -0.000123  -0.018994   0.128773  -0.055505
     3  N    0.000000  -0.000000   0.000011  -0.079800  -0.170297  -0.002414
     4  C   -0.000002   0.000048  -0.000068   0.178225   0.013124   0.000953
     5  C    0.000000   0.000001  -0.000025   0.072647   0.001190  -0.000366
     6  C   -0.000002   0.000007  -0.000076  -0.122259  -0.000102   0.000042
     7  C   -0.000162  -0.000151  -0.000431   0.074545   0.000114  -0.000155
     8  Cl  -0.000018  -0.000001  -0.000496   0.002247   0.000000   0.000000
     9  C    0.001020   0.012134  -0.111907   0.307661  -0.001345  -0.000240
    10  C   -0.083697  -0.043594   0.532920  -0.067895  -0.000884   0.001283
    11  C    0.029136  -0.094220  -0.047708   0.010505  -0.000022  -0.000002
    12  C    0.383267   0.000038  -0.040630  -0.000459   0.000001   0.000000
    13  C    5.042103   0.390766  -0.033760   0.000360  -0.000005  -0.000013
    14  C    0.390766   4.850527   0.481018   0.000709  -0.000057   0.000084
    15  N   -0.033760   0.481018   6.420483   0.001290  -0.001235  -0.001535
    16  C    0.000360   0.000709   0.001290   5.138273   0.013433  -0.010662
    17  C   -0.000005  -0.000057  -0.001235   0.013433   6.012315   0.161854
    18  C   -0.000013   0.000084  -0.001535  -0.010662   0.161854   5.358991
    19  Cl  -0.000001   0.000027  -0.000051  -0.003087  -0.094151   0.284458
    20  C    0.000100   0.000636   0.006019   0.002452   0.103595   0.199530
    21  C   -0.000001  -0.000025   0.000185  -0.017997   0.228655   0.123677
    22  C    0.000004   0.000152   0.000584   0.001490   0.134340  -0.182736
    23  C    0.000031   0.000990  -0.002408  -0.001158  -0.236923   0.172713
    24  S   -0.000252  -0.001593  -0.000420  -0.000006   0.000026   0.007675
    25  N    0.000001  -0.000037  -0.000002   0.000000  -0.000066   0.000016
    26  C   -0.000953   0.001982  -0.011423  -0.000049  -0.000130   0.000112
    27  N    0.000703  -0.019022   0.000042   0.000000  -0.000040   0.002521
    28  H   -0.000000   0.000000   0.000000   0.006791   0.018063  -0.000383
    29  H    0.000000  -0.000000   0.000000   0.017498  -0.000223   0.000008
    30  H    0.000000  -0.000000   0.000006  -0.002035   0.000001  -0.000000
    31  H    0.010509   0.000374   0.005452  -0.000195  -0.000000   0.000001
    32  H   -0.062925   0.010676  -0.000077  -0.000000  -0.000000  -0.000000
    33  H    0.427435  -0.045144   0.005404  -0.000002   0.000000   0.000000
    34  H   -0.059256   0.398070  -0.049219  -0.000135  -0.000004   0.001091
    35  H    0.000204  -0.000774   0.012763   0.461081   0.000247  -0.033268
    36  H    0.000047  -0.000140  -0.000191  -0.000027   0.018995  -0.075290
    37  H    0.000000  -0.000000   0.000013  -0.001727  -0.078184   0.016547
    38  H   -0.000001   0.000014   0.000005   0.000119   0.016761  -0.001679
    39  H   -0.000000   0.000003   0.000001   0.000000  -0.000000  -0.000020
    40  H    0.000012   0.000140   0.000127  -0.000004   0.000016  -0.000033
    41  H    0.001897  -0.001963   0.024474   0.000345   0.000023  -0.000033
    42  H    0.000086   0.000365   0.000001  -0.000000   0.000002  -0.000012
    43  H   -0.000053   0.000486  -0.000002  -0.000000   0.000010  -0.000057
              19         20         21         22         23         24
     1  O   -0.001615   0.000119  -0.004778   0.000023  -0.000060  -0.000000
     2  C    0.014099   0.006961  -0.045126   0.006495   0.000044   0.000011
     3  N   -0.001685   0.000034  -0.008009   0.000666  -0.000073   0.000000
     4  C   -0.000397  -0.000124  -0.003413  -0.000793   0.000067  -0.000002
     5  C    0.000002  -0.000010  -0.002076   0.000104  -0.000028   0.000000
     6  C   -0.000001   0.000001   0.000323  -0.000041   0.000010  -0.000000
     7  C    0.000003  -0.000029  -0.000281   0.000170  -0.000052   0.000001
     8  Cl   0.000000  -0.000000   0.000001  -0.000001  -0.000000   0.000000
     9  C    0.000168  -0.000719   0.001143   0.000223   0.000260   0.000019
    10  C   -0.000061   0.000400   0.000085  -0.000649   0.000202   0.000000
    11  C   -0.000000   0.000044   0.000000   0.000002   0.000006  -0.000003
    12  C    0.000000  -0.000002   0.000000  -0.000000  -0.000002  -0.000003
    13  C   -0.000001   0.000100  -0.000001   0.000004   0.000031  -0.000252
    14  C    0.000027   0.000636  -0.000025   0.000152   0.000990  -0.001593
    15  N   -0.000051   0.006019   0.000185   0.000584  -0.002408  -0.000420
    16  C   -0.003087   0.002452  -0.017997   0.001490  -0.001158  -0.000006
    17  C   -0.094151   0.103595   0.228655   0.134340  -0.236923   0.000026
    18  C    0.284458   0.199530   0.123677  -0.182736   0.172713   0.007675
    19  Cl  16.900961  -0.068946   0.004031   0.000352   0.004712  -0.000030
    20  C   -0.068946   5.061390  -0.123952   0.086182   0.252121  -0.030177
    21  C    0.004031  -0.123952   4.970022   0.291416   0.138582   0.000998
    22  C    0.000352   0.086182   0.291416   5.165645   0.114487  -0.059121
    23  C    0.004712   0.252121   0.138582   0.114487   5.907836   0.088142
    24  S   -0.000030  -0.030177   0.000998  -0.059121   0.088142  14.661102
    25  N    0.000000  -0.002921   0.000819   0.010404  -0.049485   0.352786
    26  C    0.000001   0.004239  -0.000735  -0.004133  -0.122743   0.304104
    27  N   -0.000007  -0.002551  -0.000004   0.007809  -0.099041   0.351015
    28  H   -0.000015   0.000001   0.000073   0.000021   0.000008   0.000000
    29  H    0.000000  -0.000000   0.000051  -0.000000   0.000000   0.000000
    30  H   -0.000000   0.000000  -0.000003  -0.000000  -0.000000  -0.000000
    31  H   -0.000000  -0.000000   0.000000  -0.000000   0.000000   0.000000
    32  H   -0.000000   0.000000  -0.000000  -0.000000   0.000000   0.000000
    33  H   -0.000000  -0.000002   0.000000   0.000000   0.000000   0.000012
    34  H    0.000001  -0.002146  -0.000000  -0.000407  -0.002851  -0.000720
    35  H    0.016263  -0.001971  -0.005633   0.002565  -0.002210  -0.000002
    36  H    0.002531   0.439456  -0.002854   0.015478  -0.052551  -0.014341
    37  H   -0.000112  -0.002020   0.459967  -0.070014   0.016627  -0.000166
    38  H    0.000011   0.012683  -0.054938   0.455460  -0.086800  -0.008022
    39  H   -0.000000   0.000953  -0.000043  -0.001450  -0.004514  -0.011156
    40  H   -0.000000  -0.000655   0.000588   0.004103  -0.001158  -0.003470
    41  H   -0.000000  -0.000045  -0.000124  -0.002775   0.007120  -0.018380
    42  H   -0.000000  -0.000030   0.000000   0.000304   0.006625  -0.008131
    43  H   -0.000001   0.000479  -0.000009  -0.000359   0.010124  -0.014296
              25         26         27         28         29         30
     1  O   -0.000000   0.000000  -0.000000   0.008416  -0.000051  -0.000000
     2  C   -0.000000  -0.000000   0.000000  -0.010119  -0.000460   0.000001
     3  N    0.000000  -0.000000  -0.000000   0.330335  -0.008183  -0.000140
     4  C   -0.000000   0.000006   0.000000  -0.019550  -0.085276   0.016052
     5  C    0.000000  -0.000000   0.000000  -0.013571   0.452389  -0.061833
     6  C   -0.000000   0.000001  -0.000000   0.000587  -0.059025   0.444866
     7  C   -0.000000  -0.000011  -0.000000  -0.000013   0.016418  -0.075300
     8  Cl  -0.000000  -0.000004  -0.000000  -0.000000  -0.000160   0.002004
     9  C    0.000000   0.000207   0.000001  -0.000144  -0.002185   0.018498
    10  C   -0.000000   0.000392  -0.000026   0.000010   0.000065  -0.000260
    11  C    0.000000  -0.000146   0.000001  -0.000000   0.000002   0.000004
    12  C   -0.000000   0.000070  -0.000011   0.000000  -0.000000  -0.000000
    13  C    0.000001  -0.000953   0.000703  -0.000000   0.000000   0.000000
    14  C   -0.000037   0.001982  -0.019022   0.000000  -0.000000  -0.000000
    15  N   -0.000002  -0.011423   0.000042   0.000000   0.000000   0.000006
    16  C    0.000000  -0.000049   0.000000   0.006791   0.017498  -0.002035
    17  C   -0.000066  -0.000130  -0.000040   0.018063  -0.000223   0.000001
    18  C    0.000016   0.000112   0.002521  -0.000383   0.000008  -0.000000
    19  Cl   0.000000   0.000001  -0.000007  -0.000015   0.000000  -0.000000
    20  C   -0.002921   0.004239  -0.002551   0.000001  -0.000000   0.000000
    21  C    0.000819  -0.000735  -0.000004   0.000073   0.000051  -0.000003
    22  C    0.010404  -0.004133   0.007809   0.000021  -0.000000  -0.000000
    23  C   -0.049485  -0.122743  -0.099041   0.000008   0.000000  -0.000000
    24  S    0.352786   0.304104   0.351015   0.000000   0.000000  -0.000000
    25  N    6.902620  -0.100836  -0.038958  -0.000000  -0.000000   0.000000
    26  C   -0.100836   4.975088  -0.055177   0.000000  -0.000000   0.000000
    27  N   -0.038958  -0.055177   6.864048   0.000000   0.000000  -0.000000
    28  H   -0.000000   0.000000   0.000000   0.526448   0.004022  -0.000024
    29  H   -0.000000  -0.000000   0.000000   0.004022   0.673960  -0.013508
    30  H    0.000000   0.000000  -0.000000  -0.000024  -0.013508   0.656348
    31  H   -0.000000   0.000003  -0.000000  -0.000000   0.000000   0.000009
    32  H    0.000000  -0.000001   0.000000  -0.000000  -0.000000   0.000000
    33  H   -0.000000   0.000024   0.000019   0.000000  -0.000000  -0.000000
    34  H    0.000381   0.002064   0.050859   0.000000  -0.000000  -0.000000
    35  H    0.000000  -0.000059  -0.000001  -0.000466  -0.000245   0.000024
    36  H    0.000036   0.001433   0.031954  -0.000000   0.000000   0.000000
    37  H    0.000000   0.000040   0.000001  -0.000338   0.000070   0.000000
    38  H    0.008730   0.001925   0.000486  -0.000002   0.000000   0.000000
    39  H    0.326707   0.009600  -0.002170  -0.000000   0.000000   0.000000
    40  H    0.009116   0.350368   0.003847  -0.000000   0.000000  -0.000000
    41  H    0.004941   0.362767   0.001161  -0.000000   0.000000   0.000000
    42  H    0.003421   0.363968   0.002775  -0.000000  -0.000000  -0.000000
    43  H   -0.000087  -0.004061   0.329560   0.000000  -0.000000  -0.000000
              31         32         33         34         35         36
     1  O    0.000000  -0.000000   0.000000  -0.000000  -0.000218   0.000004
     2  C    0.000000  -0.000000   0.000000   0.000001   0.003604  -0.000093
     3  N   -0.000000   0.000000  -0.000000  -0.000000  -0.008072   0.000006
     4  C    0.000056  -0.000000   0.000000  -0.000001  -0.099310   0.000007
     5  C   -0.000023  -0.000000   0.000000  -0.000000   0.017634   0.000000
     6  C   -0.000043  -0.000000   0.000000   0.000000  -0.003818  -0.000000
     7  C   -0.002542  -0.000005   0.000001   0.000027   0.023744  -0.000000
     8  Cl   0.013278  -0.000013   0.000000   0.000000  -0.000118  -0.000000
     9  C   -0.016066  -0.000449   0.000082   0.000034  -0.055324  -0.000015
    10  C   -0.038748   0.012683   0.000582   0.006648  -0.033146  -0.000029
    11  C    0.418299  -0.059872   0.011569  -0.000099   0.001265  -0.000001
    12  C   -0.048622   0.441434  -0.058927   0.007124   0.000019  -0.000001
    13  C    0.010509  -0.062925   0.427435  -0.059256   0.000204   0.000047
    14  C    0.000374   0.010676  -0.045144   0.398070  -0.000774  -0.000140
    15  N    0.005452  -0.000077   0.005404  -0.049219   0.012763  -0.000191
    16  C   -0.000195  -0.000000  -0.000002  -0.000135   0.461081  -0.000027
    17  C   -0.000000  -0.000000   0.000000  -0.000004   0.000247   0.018995
    18  C    0.000001  -0.000000   0.000000   0.001091  -0.033268  -0.075290
    19  Cl  -0.000000  -0.000000  -0.000000   0.000001   0.016263   0.002531
    20  C   -0.000000   0.000000  -0.000002  -0.002146  -0.001971   0.439456
    21  C    0.000000  -0.000000   0.000000  -0.000000  -0.005633  -0.002854
    22  C   -0.000000  -0.000000   0.000000  -0.000407   0.002565   0.015478
    23  C    0.000000   0.000000   0.000000  -0.002851  -0.002210  -0.052551
    24  S    0.000000   0.000000   0.000012  -0.000720  -0.000002  -0.014341
    25  N   -0.000000   0.000000  -0.000000   0.000381   0.000000   0.000036
    26  C    0.000003  -0.000001   0.000024   0.002064  -0.000059   0.001433
    27  N   -0.000000   0.000000   0.000019   0.050859  -0.000001   0.031954
    28  H   -0.000000  -0.000000   0.000000   0.000000  -0.000466  -0.000000
    29  H    0.000000  -0.000000  -0.000000  -0.000000  -0.000245   0.000000
    30  H    0.000009   0.000000  -0.000000  -0.000000   0.000024   0.000000
    31  H    0.650788  -0.010786  -0.000168   0.000070  -0.000132  -0.000000
    32  H   -0.010786   0.652613  -0.011042  -0.000245   0.000002  -0.000000
    33  H   -0.000168  -0.011042   0.651341  -0.006853  -0.000008  -0.000001
    34  H    0.000070  -0.000245  -0.006853   0.623673  -0.000184   0.001130
    35  H   -0.000132   0.000002  -0.000008  -0.000184   0.697241   0.000154
    36  H   -0.000000  -0.000000  -0.000001   0.001130   0.000154   0.603722
    37  H   -0.000000  -0.000000  -0.000000   0.000000  -0.000281   0.000021
    38  H   -0.000000  -0.000000   0.000000  -0.000050  -0.000001  -0.000225
    39  H   -0.000000  -0.000000  -0.000000  -0.000032  -0.000000   0.000129
    40  H   -0.000000  -0.000000   0.000000   0.000072   0.000002  -0.000067
    41  H   -0.000028   0.000005  -0.000108  -0.004281   0.000202  -0.000161
    42  H    0.000000   0.000000   0.000013  -0.000080   0.000002  -0.000079
    43  H    0.000000  -0.000000   0.000004  -0.001340  -0.000000  -0.001052
              37         38         39         40         41         42
     1  O   -0.000064   0.000002   0.000000   0.000000   0.000000  -0.000000
     2  C   -0.009891  -0.000174  -0.000000   0.000000  -0.000003   0.000000
     3  N    0.002678  -0.000001   0.000000   0.000000   0.000000   0.000000
     4  C    0.003674  -0.000007  -0.000000  -0.000000  -0.000050  -0.000000
     5  C   -0.000577   0.000008   0.000000  -0.000000   0.000001  -0.000000
     6  C    0.000199  -0.000005  -0.000000   0.000000  -0.000005  -0.000000
     7  C   -0.000105   0.000004   0.000000   0.000002  -0.000049   0.000001
[...]
    19  Cl  -0.000002   0.000000  -0.000003   0.000020   0.026011   0.005331
    20  C    0.000000  -0.000000  -0.000006   0.001592   0.002181   0.443787
    21  C   -0.000002   0.000000  -0.000000   0.000055  -0.005197  -0.006429
    22  C   -0.000000  -0.000000  -0.000001  -0.000438   0.003205   0.016347
    23  C    0.000001  -0.000000   0.000015  -0.006432  -0.002079  -0.040721
    24  S   -0.000001   0.000000  -0.000007   0.002654  -0.000003  -0.010909
    25  N   -0.000000   0.000000  -0.000000   0.000374   0.000002   0.000489
    26  C    0.000012  -0.000001   0.000073   0.005219  -0.000129   0.001538
    27  N   -0.000000   0.000001   0.000054   0.015399   0.000013   0.018213
    28  H   -0.000000  -0.000000   0.000000   0.000000  -0.000231  -0.000001
    29  H   -0.000000  -0.000000  -0.000000  -0.000000  -0.000228  -0.000000
    30  H    0.000044   0.000000  -0.000000   0.000000   0.000042  -0.000000
    31  H    0.519312  -0.007275  -0.000058   0.000127  -0.000211  -0.000000
    32  H   -0.007275   0.536119  -0.007193  -0.000265   0.000019  -0.000000
    33  H   -0.000058  -0.007193   0.536168  -0.002105  -0.000021  -0.000003
    34  H    0.000127  -0.000265  -0.002105   0.507269  -0.000271   0.000648
    35  H   -0.000211   0.000019  -0.000021  -0.000271   0.542738  -0.000076
    36  H   -0.000000  -0.000000  -0.000003   0.000648  -0.000076   0.475542
    37  H   -0.000000  -0.000000  -0.000000   0.000000  -0.000196   0.000057
    38  H    0.000000  -0.000000  -0.000000  -0.000032   0.000034  -0.000088
    39  H   -0.000000  -0.000000  -0.000000   0.000010  -0.000000   0.000067
    40  H   -0.000000   0.000000   0.000001  -0.000200   0.000015  -0.000096
    41  H   -0.000022   0.000007  -0.000091  -0.005314   0.000136  -0.000229
    42  H   -0.000000   0.000000  -0.000005  -0.000605   0.000005  -0.000079
    43  H    0.000000  -0.000000   0.000005  -0.000815   0.000000  -0.001287
              37         38         39         40         41         42
     1  O   -0.000477  -0.000000   0.000000   0.000000   0.000000  -0.000000
     2  C   -0.005935   0.000005  -0.000001   0.000008   0.000010  -0.000000
     3  N    0.003419   0.000016  -0.000000   0.000000  -0.000000   0.000000
     4  C    0.002311   0.000047   0.000000  -0.000043  -0.000049   0.000000
     5  C    0.000115  -0.000006  -0.000000   0.000002   0.000044   0.000000
     6  C    0.000354  -0.000001   0.000000  -0.000000  -0.000072  -0.000000
     7  C   -0.000130  -0.000009  -0.000000   0.000059   0.000135   0.000001
     8  Cl   0.000000   0.000000   0.000000   0.000003   0.000192   0.000001
     9  C    0.000112  -0.000016  -0.000000   0.000101  -0.001149   0.000039
    10  C    0.000011  -0.000059   0.000000   0.000199  -0.005785  -0.000019
    11  C    0.000000   0.000000  -0.000000  -0.000035   0.001169  -0.000002
    12  C    0.000000  -0.000000   0.000000   0.000018  -0.001041  -0.000001
    13  C   -0.000000   0.000003   0.000001  -0.000116   0.004381  -0.000032
    14  C   -0.000000   0.000059   0.000002   0.000149  -0.005209  -0.000316
    15  N    0.000019   0.000038   0.000001   0.000248   0.025941   0.000543
    16  C   -0.002825   0.000038   0.000000  -0.000082   0.001216   0.000001
    17  C   -0.051579   0.017716  -0.000129   0.000108   0.000152   0.000012
    18  C    0.010004  -0.004628   0.000172  -0.000086   0.000672  -0.000060
    19  Cl  -0.000173   0.000028   0.000001   0.000000  -0.000027  -0.000000
    20  C   -0.001007   0.012075   0.002759  -0.000982  -0.008226  -0.000098
    21  C    0.433354  -0.069840   0.000277   0.000148  -0.000393  -0.000060
    22  C   -0.061796   0.458232  -0.006443  -0.002238   0.004635   0.000289
    23  C    0.011938  -0.084585  -0.003053   0.004398   0.005973   0.007495
    24  S   -0.000266   0.002063  -0.019561  -0.010122  -0.018453  -0.015076
    25  N   -0.000033   0.016781   0.309395   0.001659   0.005880   0.004311
    26  C    0.000220  -0.003634   0.014046   0.367811   0.352767   0.363872
    27  N   -0.000002   0.001584  -0.002482   0.005715  -0.003395   0.002053
    28  H   -0.000081  -0.000003  -0.000000  -0.000000   0.000000  -0.000000
    29  H    0.000110  -0.000001  -0.000000   0.000000   0.000000   0.000000
    30  H   -0.000003   0.000000   0.000000  -0.000000  -0.000000   0.000000
    31  H   -0.000000   0.000000  -0.000000  -0.000000  -0.000022  -0.000000
    32  H   -0.000000  -0.000000  -0.000000   0.000000   0.000007   0.000000
    33  H   -0.000000  -0.000000  -0.000000   0.000001  -0.000091  -0.000005
    34  H    0.000000  -0.000032   0.000010  -0.000200  -0.005314  -0.000605
    35  H   -0.000196   0.000034  -0.000000   0.000015   0.000136   0.000005
    36  H    0.000057  -0.000088   0.000067  -0.000096  -0.000229  -0.000079
    37  H    0.538728  -0.007475   0.000011  -0.000023  -0.000052  -0.000003
    38  H   -0.007475   0.515148  -0.001167  -0.000750   0.000546  -0.000077
    39  H    0.000011  -0.001167   0.491595  -0.000861  -0.000646  -0.000656
    40  H   -0.000023  -0.000750  -0.000861   0.508891  -0.020022  -0.009279
    41  H   -0.000052   0.000546  -0.000646  -0.020022   0.509416  -0.009643
    42  H   -0.000003  -0.000077  -0.000656  -0.009279  -0.009643   0.510252
    43  H   -0.000001  -0.000072  -0.000302   0.000140   0.000336   0.002370
              43
     1  O   -0.000000
     2  C    0.000000
     3  N   -0.000000
     4  C   -0.000000
     5  C   -0.000000
     6  C    0.000000
     7  C    0.000000
     8  Cl   0.000000
     9  C    0.000001
    10  C    0.000003
    11  C   -0.000000
    12  C    0.000002
    13  C   -0.000085
    14  C    0.000516
    15  N   -0.000005
    16  C   -0.000001
    17  C   -0.000019
    18  C   -0.000128
    19  Cl  -0.000006
    20  C   -0.002719
    21  C    0.000090
    22  C   -0.001024
    23  C    0.016662
    24  S   -0.016346
    25  N    0.000069
    26  C   -0.008784
    27  N    0.311812
    28  H    0.000000
    29  H   -0.000000
    30  H   -0.000000
    31  H    0.000000
    32  H   -0.000000
    33  H    0.000005
    34  H   -0.000815
    35  H    0.000000
    36  H   -0.001287
    37  H   -0.000001
    38  H   -0.000072
    39  H   -0.000302
    40  H    0.000140
    41  H    0.000336
    42  H    0.002370
    43  H    0.482312
 Mulliken charges:
               1
     1  O   -0.303257
     2  C    0.182038
     3  N   -0.237835
     4  C    0.293098
     5  C   -0.247752
     6  C   -0.185280
     7  C    0.049466
     8  Cl  -0.097047
     9  C    0.151822
    10  C    0.194477
    11  C   -0.191079
    12  C   -0.134499
    13  C   -0.072009
    14  C   -0.078757
    15  N   -0.295326
    16  C   -0.275644
    17  C    0.068323
    18  C    0.120086
    19  Cl  -0.082575
    20  C   -0.241048
    21  C   -0.100700
    22  C   -0.214962
    23  C    0.132785
    24  S    0.484541
    25  N   -0.551051
    26  C   -0.343209
    27  N   -0.593459
    28  H    0.238817
    29  H    0.124932
    30  H    0.131492
    31  H    0.147222
    32  H    0.132080
    33  H    0.133907
    34  H    0.158883
    35  H    0.149153
    36  H    0.172560
    37  H    0.131295
    38  H    0.148033
    39  H    0.216964
    40  H    0.155260
    41  H    0.166210
    42  H    0.144767
    43  H    0.217275
 Sum of Mulliken charges =  -0.00000
 Mulliken charges with hydrogens summed into heavy atoms:
               1
     1  O   -0.303257
     2  C    0.182038
     3  N    0.000981
     4  C    0.293098
     5  C   -0.122819
     6  C   -0.053787
     7  C    0.049466
     8  Cl  -0.097047
     9  C    0.151822
    10  C    0.194477
    11  C   -0.043857
    12  C   -0.002419
    13  C    0.061898
    14  C    0.080126
    15  N   -0.295326
    16  C   -0.126491
    17  C    0.068323
    18  C    0.120086
    19  Cl  -0.082575
    20  C   -0.068487
    21  C    0.030595
    22  C   -0.066929
    23  C    0.132785
    24  S    0.484541
    25  N   -0.334087
    26  C    0.123028
    27  N   -0.376183
 Electronic spatial extent (au):  <R**2>=          10463.1302
 Charge=             -0.0000 electrons
 Dipole moment (field-independent basis, Debye):
    X=             -4.3017    Y=             -2.6190    Z=             -0.7851  Tot=              5.0971
 Quadrupole moment (field-independent basis, Debye-Ang):
   XX=           -178.0870   YY=           -175.0297   ZZ=           -175.4530
   XY=             -9.3180   XZ=              1.2376   YZ=            -15.9451
 Traceless Quadrupole moment (field-independent basis, Debye-Ang):
   XX=             -1.8971   YY=              1.1602   ZZ=              0.7369
   XY=             -9.3180   XZ=              1.2376   YZ=            -15.9451
 Octapole moment (field-independent basis, Debye-Ang**2):
  XXX=            -26.6950  YYY=           -121.9826  ZZZ=             12.6924  XYY=            -68.0795
  XXY=             16.1896  XXZ=             20.1429  XZZ=            -32.1586  YZZ=              5.4556
  YYZ=              1.0017  XYZ=              6.7737
 Hexadecapole moment (field-independent basis, Debye-Ang**3):
 XXXX=          -6414.2821 YYYY=          -5452.4912 ZZZZ=          -2219.0610 XXXY=             31.1556
 XXXZ=            118.3729 YYYX=           -296.1508 YYYZ=           -195.7568 ZZZX=            110.3237
 ZZZY=            -27.0142 XXYY=          -1873.2692 XXZZ=          -1533.8947 YYZZ=          -1171.7149
 XXYZ=           -139.7071 YYXZ=             -5.1244 ZZXY=             71.2922
 N-N= 3.010038580958D+03 E-N=-1.154419086770D+04  KE= 2.338137847962D+03
 Breneman (CHELPG) radii used.
 Read replacement radii for each type of atom:
 Atom Element Radius
    1     8    1.70
    2     6    1.50
    3     7    1.70
    4     6    1.50
    5     6    1.50
    6     6    1.50
    7     6    1.50
    8    17    2.00
    9     6    1.50
   10     6    1.50
   11     6    1.50
   12     6    1.50
   13     6    1.50
   14     6    1.50
   15     7    1.70
   16     6    1.50
   17     6    1.50
   18     6    1.50
   19    17    2.00
   20     6    1.50
   21     6    1.50
   22     6    1.50
   23     6    1.50
   24    16    2.00
   25     7    1.70
   26     6    1.50
   27     7    1.70
   28     1    1.45
   29     1    1.45
   30     1    1.45
   31     1    1.45
   32     1    1.45
   33     1    1.45
   34     1    1.45
   35     1    1.45
   36     1    1.45
   37     1    1.45
   38     1    1.45
   39     1    1.45
   40     1    1.45
   41     1    1.45
   42     1    1.45
   43     1    1.45
 Generate Potential Derived Charges using the Breneman model, NDens= 1.
 Grid spacing= 0.300 Box extension= 2.800
 NStep X,Y,Z=   52     50     38   Total possible points=       98800
 Number of Points to Fit=   23191

 **********************************************************************

            Electrostatic Properties Using The SCF Density.

 **********************************************************************

       Atomic Center    1 is at   0.804135  4.621157  0.446783
       Atomic Center    2 is at   0.317085  3.552996  0.159137
       Atomic Center    3 is at  -1.036572  3.403734 -0.033951
       Atomic Center    4 is at  -1.775604  2.239478 -0.305454
       Atomic Center    5 is at  -2.831648  2.290487 -1.223227
       Atomic Center    6 is at  -3.564915  1.146089 -1.508005
       Atomic Center    7 is at  -3.246926 -0.067431 -0.897323
       Atomic Center    8 is at  -4.147290 -1.473453 -1.372828
       Atomic Center    9 is at  -2.203228 -0.143778  0.036135
       Atomic Center   10 is at  -1.774198 -1.379786  0.743093
       Atomic Center   11 is at  -2.682209 -2.246678  1.364136
       Atomic Center   12 is at  -2.185644 -3.336953  2.071160
       Atomic Center   13 is at  -0.808426 -3.532980  2.137338
       Atomic Center   14 is at   0.018260 -2.618424  1.486238
       Atomic Center   15 is at  -0.453052 -1.573386  0.810323
       Atomic Center   16 is at  -1.498438  1.028097  0.328737
       Atomic Center   17 is at   1.141114  2.318850 -0.091576
       Atomic Center   18 is at   1.664382  1.558724  0.957729
       Atomic Center   19 is at   1.366538  2.038713  2.595091
       Atomic Center   20 is at   2.311260  0.351222  0.717942
       Atomic Center   21 is at   1.363981  1.902955 -1.406525
       Atomic Center   22 is at   2.048601  0.722877 -1.669244
       Atomic Center   23 is at   2.466433 -0.060979 -0.597535
       Atomic Center   24 is at   3.172382 -1.672431 -0.981139
       Atomic Center   25 is at   4.185795 -1.650265 -2.152430
       Atomic Center   26 is at   1.761056 -2.462476 -1.760321
       Atomic Center   27 is at   3.466810 -2.217722  0.444470
       Atomic Center   28 is at  -1.540586  4.284807  0.001144
       Atomic Center   29 is at  -3.069077  3.229018 -1.729655
       Atomic Center   30 is at  -4.378326  1.176741 -2.234394
       Atomic Center   31 is at  -3.754342 -2.059312  1.300684
       Atomic Center   32 is at  -2.871547 -4.024062  2.572697
       Atomic Center   33 is at  -0.378807 -4.375252  2.683179
       Atomic Center   34 is at   1.111061 -2.728810  1.492218
       Atomic Center   35 is at  -0.723898  0.967403  1.089384
       Atomic Center   36 is at   2.657230 -0.292151  1.527228
       Atomic Center   37 is at   0.973435  2.505070 -2.230093
       Atomic Center   38 is at   2.241305  0.396370 -2.693696
       Atomic Center   39 is at   5.056682 -1.240679 -1.800624
       Atomic Center   40 is at   1.608767 -2.043754 -2.761490
       Atomic Center   41 is at   0.892133 -2.297189 -1.110194
       Atomic Center   42 is at   2.020794 -3.527119 -1.830466
       Atomic Center   43 is at   3.970280 -3.101140  0.336084
   23191 points will be used for fitting atomic charges
 Fitting point charges to electrostatic potential
 Charges from ESP fit, RMS=   0.00383 RRMS=   0.24498:
 ESP charges:
               1
     1  O   -0.558386
     2  C    0.644213
     3  N   -0.555857
     4  C    0.335334
     5  C   -0.266952
     6  C   -0.065589
     7  C    0.039526
     8  Cl  -0.112725
     9  C   -0.028274
    10  C    0.424556
    11  C   -0.324629
    12  C    0.099569
    13  C   -0.305839
    14  C    0.260832
    15  N   -0.384358
    16  C   -0.192677
    17  C    0.052728
    18  C    0.007075
    19  Cl  -0.068106
    20  C   -0.025818
    21  C   -0.137714
    22  C   -0.143470
    23  C    0.047007
    24  S    0.621120
    25  N   -0.757879
    26  C   -0.079500
    27  N   -0.733914
    28  H    0.329970
    29  H    0.150324
    30  H    0.110692
    31  H    0.133275
    32  H    0.087356
    33  H    0.134903
    34  H    0.046530
    35  H    0.055279
    36  H    0.097779
    37  H    0.104821
    38  H    0.146570
    39  H    0.324798
    40  H    0.083226
    41  H   -0.021480
    42  H    0.094612
    43  H    0.331071
 Sum of ESP charges =   0.00000
 ESP charges with hydrogens summed into heavy atoms:
               1
     1  O   -0.558386
     2  C    0.644213
     3  N   -0.225887
     4  C    0.335334
     5  C   -0.116628
     6  C    0.045103
     7  C    0.039526
     8  Cl  -0.112725
     9  C   -0.028274
    10  C    0.424556
    11  C   -0.191355
    12  C    0.186925
    13  C   -0.170936
    14  C    0.307362
    15  N   -0.384358
    16  C   -0.137397
    17  C    0.052728
    18  C    0.007075
    19  Cl  -0.068106
    20  C    0.071961
    21  C   -0.032892
    22  C    0.003100
    23  C    0.047007
    24  S    0.621120
    25  N   -0.433081
    26  C    0.076859
    27  N   -0.402843
 Charge=   0.00000 Dipole=    -4.2401    -2.5761    -0.7234 Tot=     5.0137
 -----------------------------------------------------------------

              Electrostatic Properties (Atomic Units)

 -----------------------------------------------------------------
    Center     Electric         -------- Electric Field --------
               Potential          X             Y             Z
 -----------------------------------------------------------------
    1 Atom    -22.369593
    2 Atom    -14.644017
    3 Atom    -18.321464
    4 Atom    -14.693598
    5 Atom    -14.735605
    6 Atom    -14.735006
    7 Atom    -14.683747
    8 Atom    -64.408917
    9 Atom    -14.724550
   10 Atom    -14.703921
   11 Atom    -14.742699
   12 Atom    -14.734115
   13 Atom    -14.744650
   14 Atom    -14.723801
   15 Atom    -18.375905
   16 Atom    -14.742835
   17 Atom    -14.722862
   18 Atom    -14.681846
   19 Atom    -64.411365
   20 Atom    -14.737372
   21 Atom    -14.732826
   22 Atom    -14.735322
   23 Atom    -14.721097
   24 Atom    -59.069488
   25 Atom    -18.422565
   26 Atom    -14.737404
   27 Atom    -18.419573
   28 Atom     -0.994721
   29 Atom     -1.071282
   30 Atom     -1.075189
   31 Atom     -1.082351
   32 Atom     -1.078571
   33 Atom     -1.081598
   34 Atom     -1.096782
   35 Atom     -1.084523
   36 Atom     -1.082026
   37 Atom     -1.076645
   38 Atom     -1.076425
   39 Atom     -1.048839
   40 Atom     -1.077927
   41 Atom     -1.080250
   42 Atom     -1.074072
   43 Atom     -1.043927
 -----------------------------------------------------------------
 Unable to Open any file for archive entry.
 1\1\GINC-NOTCH146\SP\RPBE1PBE\def2TZVP\C19H16Cl2N4O1S1\U1414944\14-Oct
 -2025\0\\#N Guess=Read Geom=Check Integral(Ultrafine) Density Pop=(Che
 lpG,ReadRadii) NMR pbe1pbe EmpiricalDispersion=GD3BJ def2TZVP\\SDI-dru
 g_8\\0,1\O,0,0.551361873,-4.5697601357,0.7514175355\C,0,0.6781119197,-
 3.4394667035,0.3423990575\N,0,1.8956420615,-2.9529718468,-0.0734036152
 \C,0,2.237666146,-1.6620404936,-0.5114575999\C,0,3.1235105153,-1.50938
 36596,-1.5848224193\C,0,3.4636290721,-0.2401953759,-2.0341641857\C,0,2
 .9142468553,0.8930765731,-1.4337039539\Cl,0,3.3135608638,2.44145147,-2
 .1095322273\C,0,2.0353949259,0.7693815179,-0.3479794447\C,0,1.38810979
 4,1.9030267115,0.3643717312\C,0,2.1010257584,3.0302519778,0.7919134555
 \C,0,1.4297875321,4.0060223096,1.5216184962\C,0,0.0763377991,3.8338673
 891,1.8010302169\C,0,-0.5504548588,2.6799029144,1.3327854842\N,0,0.088
 769204,1.7435349288,0.635856867\C,0,1.7310478091,-0.5179446697,0.10566
 99108\C,0,-0.4816418394,-2.4951132632,0.1745761445\C,0,-1.0379656561,-
 1.8139493689,1.2604690447\Cl,0,-0.3871933734,-2.0545815683,2.847493074
 4\C,0,-2.0204388947,-0.8471492099,1.0759313398\C,0,-0.9971486532,-2.26
 83146977,-1.103917205\C,0,-2.0112160079,-1.3398537597,-1.3037597085\C,
 0,-2.470667821,-0.6059491587,-0.2138692544\S,0,-3.6414270731,0.7206182
 315,-0.5482858966\N,0,-4.7667008469,0.3290469179,-1.538160204\C,0,-2.6
 301414972,1.7872052697,-1.5792232217\N,0,-3.8669138267,1.2887520156,0.
 8809688801\H,0,2.6228449275,-3.6619546923,-0.0818224568\H,0,3.53541658
 9,-2.3910525686,-2.0814879888\H,0,4.1407629647,-0.115997894,-2.8804988
 734\H,0,3.162535596,3.1298651425,0.5641515526\H,0,1.9640683267,4.89129
 21172,1.8751196847\H,0,-0.4859902091,4.5754203998,2.3718388765\H,0,-1.
 6186178885,2.4959313365,1.5105934375\H,0,1.0874861672,-0.6000131817,0.
 9781801475\H,0,-2.4105269644,-0.2516395138,1.9016244116\H,0,-0.5781359
 757,-2.8135908755,-1.9527012627\H,0,-2.4316511516,-1.1658377609,-2.296
 8339097\H,0,-5.4307751023,-0.2654027701,-1.0325854603\H,0,-2.513689797
 ,1.3393849599,-2.5725784749\H,0,-1.6653283269,1.9154815858,-1.07158973
 92\H,0,-3.1808916042,2.7343577531,-1.6528848629\H,0,-4.6047756699,1.99
 38179711,0.8169426181\\Version=ES64L-G16RevC.01\State=1-A\HF=-2345.246
 4999\RMSD=6.921e-09\Dipole=1.2796509,1.4126063,-0.6232549\Quadrupole=1
 .2458087,-0.9173015,-0.3285072,-5.1484863,-3.8574035,12.1759844\PG=C01
  [X(C19H16Cl2N4O1S1)]\\@
 The archive entry for this job was punched.


 REVOLUTIONS HAVE NEVER LIGHTENED THE BURDEN OF TYRANNY:
 THEY HAVE MERELY SHIFTED IT TO OTHER SHOULDERS.
                                   -- G. B. SHAW (1903)
 Job cpu time:       0 days  4 hours 47 minutes 24.4 seconds.
 Elapsed time:       0 days  0 hours 19 minutes 23.1 seconds.
 File lengths (MBytes):  RWF=    525 Int=      0 D2E=      0 Chk=     83 Scr=      2
 Normal termination of Gaussian 16 at Tue Oct 14 00:31:46 2025.
