 Entering Gaussian System, Link 0=g16
 Input=SDI-drug_9.com
 Output=SDI-drug_9.log
 Initial command:
 /uufs/chpc.utah.edu/sys/installdir/gaussian16/C01/AVX/g16/l1.exe "/scratch/general/vast/u1414944/6939702-notchpeak.peaks/Gau-2099524.inp" -scrdir="/scratch/general/vast/u1414944/6939702-notchpeak.peaks/"
 Entering Link 1 = /uufs/chpc.utah.edu/sys/installdir/gaussian16/C01/AVX/g16/l1.exe PID=   2099525.
  
 Copyright (c) 1988-2019, Gaussian, Inc.  All Rights Reserved.
  
 This is part of the Gaussian(R) 16 program.  It is based on
 the Gaussian(R) 09 system (copyright 2009, Gaussian, Inc.),
 the Gaussian(R) 03 system (copyright 2003, Gaussian, Inc.),
 the Gaussian(R) 98 system (copyright 1998, Gaussian, Inc.),
 the Gaussian(R) 94 system (copyright 1995, Gaussian, Inc.),
 the Gaussian 92(TM) system (copyright 1992, Gaussian, Inc.),
 the Gaussian 90(TM) system (copyright 1990, Gaussian, Inc.),
 the Gaussian 88(TM) system (copyright 1988, Gaussian, Inc.),
 the Gaussian 86(TM) system (copyright 1986, Carnegie Mellon
 University), and the Gaussian 82(TM) system (copyright 1983,
 Carnegie Mellon University). Gaussian is a federally registered
 trademark of Gaussian, Inc.
  
 This software contains proprietary and confidential information,
 including trade secrets, belonging to Gaussian, Inc.
  
 This software is provided under written license and may be
 used, copied, transmitted, or stored only in accord with that
 written license.
  
 The following legend is applicable only to US Government
 contracts under FAR:
  
                    RESTRICTED RIGHTS LEGEND
  
 Use, reproduction and disclosure by the US Government is
 subject to restrictions as set forth in subparagraphs (a)
 and (c) of the Commercial Computer Software - Restricted
 Rights clause in FAR 52.227-19.
  
 Gaussian, Inc.
 340 Quinnipiac St., Bldg. 40, Wallingford CT 06492
  
  
 ---------------------------------------------------------------
 Warning -- This program may not be used in any manner that
 competes with the business of Gaussian, Inc. or will provide
 assistance to any competitor of Gaussian, Inc.  The licensee
 of this program is prohibited from giving any competitor of
 Gaussian, Inc. access to this program.  By using this program,
 the user acknowledges that Gaussian, Inc. is engaged in the
 business of creating and licensing software in the field of
 computational chemistry and represents and warrants to the
 licensee that it is not a competitor of Gaussian, Inc. and that
 it will not use this program in any manner prohibited above.
 ---------------------------------------------------------------
  

 Cite this work as:
 Gaussian 16, Revision C.01,
 M. J. Frisch, G. W. Trucks, H. B. Schlegel, G. E. Scuseria, 
 M. A. Robb, J. R. Cheeseman, G. Scalmani, V. Barone, 
 G. A. Petersson, H. Nakatsuji, X. Li, M. Caricato, A. V. Marenich, 
 J. Bloino, B. G. Janesko, R. Gomperts, B. Mennucci, H. P. Hratchian, 
 J. V. Ortiz, A. F. Izmaylov, J. L. Sonnenberg, D. Williams-Young, 
 F. Ding, F. Lipparini, F. Egidi, J. Goings, B. Peng, A. Petrone, 
 T. Henderson, D. Ranasinghe, V. G. Zakrzewski, J. Gao, N. Rega, 
 G. Zheng, W. Liang, M. Hada, M. Ehara, K. Toyota, R. Fukuda, 
 J. Hasegawa, M. Ishida, T. Nakajima, Y. Honda, O. Kitao, H. Nakai, 
 T. Vreven, K. Throssell, J. A. Montgomery, Jr., J. E. Peralta, 
 F. Ogliaro, M. J. Bearpark, J. J. Heyd, E. N. Brothers, K. N. Kudin, 
 V. N. Staroverov, T. A. Keith, R. Kobayashi, J. Normand, 
 K. Raghavachari, A. P. Rendell, J. C. Burant, S. S. Iyengar, 
 J. Tomasi, M. Cossi, J. M. Millam, M. Klene, C. Adamo, R. Cammi, 
 J. W. Ochterski, R. L. Martin, K. Morokuma, O. Farkas, 
 J. B. Foresman, and D. J. Fox, Gaussian, Inc., Wallingford CT, 2019.
 
 ******************************************
 Gaussian 16:  ES64L-G16RevC.01  3-Jul-2019
                13-Oct-2025 
 ******************************************
 %NProcShared=16
 Will use up to   16 processors via shared memory.
 %Mem=40GB
 %chk=SDI-drug_9.chk
 ----------------------------------------------------------------------
 #N OPT FREQ=NORAMAN Integral(Ultrafine) pbe1pbe EmpiricalDispersion=GD
 3BJ def2SVP
 ----------------------------------------------------------------------
 1/18=20,19=15,26=4,38=1/1,3;
 2/9=110,12=2,17=6,18=5,40=1/2;
 3/5=43,7=101,11=2,25=1,30=1,71=1,74=-13,75=-5,124=41/1,2,3;
 4//1;
 5/5=2,38=5/2;
 6/7=2,8=2,9=2,10=2,28=1/1;
 7//1,2,3,16;
 1/18=20,19=15,26=4/3(2);
 2/9=110/2;
 99//99;
 2/9=110/2;
 3/5=43,7=101,11=2,25=1,30=1,71=1,74=-13,75=-5,124=41/1,2,3;
 4/5=5,16=3,69=1/1;
 5/5=2,38=5/2;
 7//1,2,3,16;
 1/18=20,19=15,26=4/3(-5);
 2/9=110/2;
 6/7=2,8=2,9=2,10=2,19=2,28=1/1;
 99/9=1/99;
 ----------
 SDI-drug_9
 ----------
 Symbolic Z-matrix:
 Charge =  0 Multiplicity = 1
 O                     0.46646  -4.48147   0.67252 
 C                     0.6769   -3.34455   0.31751 
 N                     1.92659  -2.9453   -0.06168 
 C                     2.34947  -1.6809   -0.48266 
 C                     3.32391  -1.57498  -1.47402 
 C                     3.69829  -0.33196  -1.94442 
 C                     3.10988   0.81843  -1.43863 
 Cl                    3.53276   2.33102  -2.16096 
 C                     2.17299   0.73905  -0.40969 
 C                     1.46843   1.88498   0.19303 
 C                     2.08344   3.09496   0.50441 
 C                     1.31841   4.09276   1.08629 
 C                    -0.02091   3.85189   1.34613 
 C                    -0.53562   2.60254   1.02524 
 N                     0.18484   1.65069   0.4658 
 C                     1.82397  -0.52038   0.06647 
 C                    -0.40331  -2.31096   0.18583 
 C                    -1.09614  -1.84417   1.30186 
 Cl                   -0.66194  -2.4102    2.87057 
 C                    -2.09229  -0.88945   1.1669 
 C                    -0.74106  -1.83243  -1.07627 
 C                    -1.7395   -0.8877   -1.21847 
 C                    -2.39741  -0.42546  -0.09468 
 S                    -3.67906   0.8334   -0.31406 
 N                    -3.75534   1.47127   1.08456 
 C                    -5.08646  -0.26664  -0.70305 
 N                    -3.55222   1.61968  -1.62641 
 H                     2.6034   -3.69716  -0.12304 
 H                     3.77413  -2.46467  -1.88833 
 H                     4.4363   -0.24865  -2.72677 
 H                     3.1349    3.24491   0.32 
 H                     1.76679   5.04297   1.33911 
 H                    -0.6473    4.60574   1.79664 
 H                    -1.56829   2.34273   1.22476 
 H                     1.11982  -0.5606    0.87875 
 H                    -2.61236  -0.48496   2.01936 
 H                    -0.20988  -2.19958  -1.94171 
 H                    -2.00544  -0.48444  -2.18347 
 H                    -4.27281   2.335     1.1107 
 H                    -5.96827   0.34702  -0.84373 
 H                    -5.22059  -0.95498   0.12262 
 H                    -4.84506  -0.78706  -1.62017 
 H                    -2.9331    2.41216  -1.5753 
 

 GradGradGradGradGradGradGradGradGradGradGradGradGradGradGradGradGradGrad
 Berny optimization.
 Initialization pass.
                           ----------------------------
                           !    Initial Parameters    !
                           ! (Angstroms and Degrees)  !
 --------------------------                            --------------------------
 ! Name  Definition              Value          Derivative Info.                !
 --------------------------------------------------------------------------------
 ! R1    R(1,2)                  1.2095         estimate D2E/DX2                !
 ! R2    R(2,3)                  1.3656         estimate D2E/DX2                !
 ! R3    R(2,17)                 1.5008         estimate D2E/DX2                !
 ! R4    R(3,4)                  1.3981         estimate D2E/DX2                !
 ! R5    R(3,28)                 1.0135         estimate D2E/DX2                !
 ! R6    R(4,5)                  1.3941         estimate D2E/DX2                !
 ! R7    R(4,16)                 1.3873         estimate D2E/DX2                !
 ! R8    R(5,6)                  1.3808         estimate D2E/DX2                !
 ! R9    R(5,29)                 1.0798         estimate D2E/DX2                !
 ! R10   R(6,7)                  1.3876         estimate D2E/DX2                !
 ! R11   R(6,30)                 1.0787         estimate D2E/DX2                !
 ! R12   R(7,8)                  1.7287         estimate D2E/DX2                !
 ! R13   R(7,9)                  1.3938         estimate D2E/DX2                !
 ! R14   R(9,10)                 1.4741         estimate D2E/DX2                !
 ! R15   R(9,16)                 1.3909         estimate D2E/DX2                !
 ! R16   R(10,11)                1.3926         estimate D2E/DX2                !
 ! R17   R(10,15)                1.333          estimate D2E/DX2                !
 ! R18   R(11,12)                1.3854         estimate D2E/DX2                !
 ! R19   R(11,31)                1.078          estimate D2E/DX2                !
 ! R20   R(12,13)                1.3854         estimate D2E/DX2                !
 ! R21   R(12,32)                1.0807         estimate D2E/DX2                !
 ! R22   R(13,14)                1.3888         estimate D2E/DX2                !
 ! R23   R(13,33)                1.0787         estimate D2E/DX2                !
 ! R24   R(14,15)                1.3184         estimate D2E/DX2                !
 ! R25   R(14,34)                1.0834         estimate D2E/DX2                !
 ! R26   R(16,35)                1.0758         estimate D2E/DX2                !
 ! R27   R(17,18)                1.3941         estimate D2E/DX2                !
 ! R28   R(17,21)                1.3914         estimate D2E/DX2                !
 ! R29   R(18,19)                1.7233         estimate D2E/DX2                !
 ! R30   R(18,20)                1.3864         estimate D2E/DX2                !
 ! R31   R(20,23)                1.3784         estimate D2E/DX2                !
 ! R32   R(20,36)                1.0774         estimate D2E/DX2                !
 ! R33   R(21,22)                1.3819         estimate D2E/DX2                !
 ! R34   R(21,37)                1.0798         estimate D2E/DX2                !
 ! R35   R(22,23)                1.3818         estimate D2E/DX2                !
 ! R36   R(22,38)                1.0792         estimate D2E/DX2                !
 ! R37   R(23,24)                1.8098         estimate D2E/DX2                !
 ! R38   R(24,25)                1.5391         estimate D2E/DX2                !
 ! R39   R(24,26)                1.8282         estimate D2E/DX2                !
 ! R40   R(24,27)                1.5351         estimate D2E/DX2                !
 ! R41   R(25,39)                1.0072         estimate D2E/DX2                !
 ! R42   R(26,40)                1.0835         estimate D2E/DX2                !
 ! R43   R(26,41)                1.0833         estimate D2E/DX2                !
 ! R44   R(26,42)                1.0818         estimate D2E/DX2                !
 ! R45   R(27,43)                1.0069         estimate D2E/DX2                !
 ! A1    A(1,2,3)              121.033          estimate D2E/DX2                !
 ! A2    A(1,2,17)             123.2208         estimate D2E/DX2                !
 ! A3    A(3,2,17)             115.6546         estimate D2E/DX2                !
 ! A4    A(2,3,4)              128.6662         estimate D2E/DX2                !
 ! A5    A(2,3,28)             114.2709         estimate D2E/DX2                !
 ! A6    A(4,3,28)             116.7878         estimate D2E/DX2                !
 ! A7    A(3,4,5)              119.6195         estimate D2E/DX2                !
 ! A8    A(3,4,16)             121.5195         estimate D2E/DX2                !
 ! A9    A(5,4,16)             118.8608         estimate D2E/DX2                !
 ! A10   A(4,5,6)              120.0118         estimate D2E/DX2                !
 ! A11   A(4,5,29)             120.1115         estimate D2E/DX2                !
 ! A12   A(6,5,29)             119.8671         estimate D2E/DX2                !
 ! A13   A(5,6,7)              120.4761         estimate D2E/DX2                !
 ! A14   A(5,6,30)             120.1392         estimate D2E/DX2                !
 ! A15   A(7,6,30)             119.3693         estimate D2E/DX2                !
 ! A16   A(6,7,8)              117.9924         estimate D2E/DX2                !
 ! A17   A(6,7,9)              120.4572         estimate D2E/DX2                !
 ! A18   A(8,7,9)              121.5142         estimate D2E/DX2                !
 ! A19   A(7,9,10)             125.3692         estimate D2E/DX2                !
 ! A20   A(7,9,16)             118.2256         estimate D2E/DX2                !
 ! A21   A(10,9,16)            116.3588         estimate D2E/DX2                !
 ! A22   A(9,10,11)            123.7666         estimate D2E/DX2                !
 ! A23   A(9,10,15)            114.0346         estimate D2E/DX2                !
 ! A24   A(11,10,15)           122.1558         estimate D2E/DX2                !
 ! A25   A(10,11,12)           118.4126         estimate D2E/DX2                !
 ! A26   A(10,11,31)           120.8888         estimate D2E/DX2                !
 ! A27   A(12,11,31)           120.682          estimate D2E/DX2                !
 ! A28   A(11,12,13)           119.1685         estimate D2E/DX2                !
 ! A29   A(11,12,32)           120.1594         estimate D2E/DX2                !
 ! A30   A(13,12,32)           120.6707         estimate D2E/DX2                !
 ! A31   A(12,13,14)           118.1226         estimate D2E/DX2                !
 ! A32   A(12,13,33)           121.2113         estimate D2E/DX2                !
 ! A33   A(14,13,33)           120.6614         estimate D2E/DX2                !
 ! A34   A(13,14,15)           123.0259         estimate D2E/DX2                !
 ! A35   A(13,14,34)           121.7656         estimate D2E/DX2                !
 ! A36   A(15,14,34)           115.2082         estimate D2E/DX2                !
 ! A37   A(10,15,14)           119.0886         estimate D2E/DX2                !
 ! A38   A(4,16,9)             121.7968         estimate D2E/DX2                !
 ! A39   A(4,16,35)            121.0343         estimate D2E/DX2                !
 ! A40   A(9,16,35)            117.1675         estimate D2E/DX2                !
 ! A41   A(2,17,18)            121.2019         estimate D2E/DX2                !
 ! A42   A(2,17,21)            119.4161         estimate D2E/DX2                !
 ! A43   A(18,17,21)           119.365          estimate D2E/DX2                !
 ! A44   A(17,18,19)           119.5736         estimate D2E/DX2                !
 ! A45   A(17,18,20)           120.6474         estimate D2E/DX2                !
 ! A46   A(19,18,20)           119.7254         estimate D2E/DX2                !
 ! A47   A(18,20,23)           118.6826         estimate D2E/DX2                !
 ! A48   A(18,20,36)           121.8951         estimate D2E/DX2                !
 ! A49   A(23,20,36)           119.4026         estimate D2E/DX2                !
 ! A50   A(17,21,22)           120.255          estimate D2E/DX2                !
 ! A51   A(17,21,37)           119.3848         estimate D2E/DX2                !
 ! A52   A(22,21,37)           120.358          estimate D2E/DX2                !
 ! A53   A(21,22,23)           119.2754         estimate D2E/DX2                !
 ! A54   A(21,22,38)           121.7044         estimate D2E/DX2                !
 ! A55   A(23,22,38)           119.0067         estimate D2E/DX2                !
 ! A56   A(20,23,22)           121.7595         estimate D2E/DX2                !
 ! A57   A(20,23,24)           120.1216         estimate D2E/DX2                !
 ! A58   A(22,23,24)           118.1166         estimate D2E/DX2                !
 ! A59   A(23,24,25)           102.3111         estimate D2E/DX2                !
 ! A60   A(23,24,26)            98.7676         estimate D2E/DX2                !
 ! A61   A(23,24,27)           113.6643         estimate D2E/DX2                !
 ! A62   A(25,24,26)           113.8647         estimate D2E/DX2                !
 ! A63   A(25,24,27)           124.6578         estimate D2E/DX2                !
 ! A64   A(26,24,27)           100.9476         estimate D2E/DX2                !
 ! A65   A(24,25,39)           113.8562         estimate D2E/DX2                !
 ! A66   A(24,26,40)           108.2625         estimate D2E/DX2                !
 ! A67   A(24,26,41)           108.3898         estimate D2E/DX2                !
 ! A68   A(24,26,42)           107.3416         estimate D2E/DX2                !
 ! A69   A(40,26,41)           110.982          estimate D2E/DX2                !
 ! A70   A(40,26,42)           110.1213         estimate D2E/DX2                !
 ! A71   A(41,26,42)           111.6004         estimate D2E/DX2                !
 ! A72   A(24,27,43)           114.237          estimate D2E/DX2                !
 ! D1    D(1,2,3,4)           -179.2699         estimate D2E/DX2                !
 ! D2    D(1,2,3,28)             7.0172         estimate D2E/DX2                !
 ! D3    D(17,2,3,4)             4.0993         estimate D2E/DX2                !
 ! D4    D(17,2,3,28)         -169.6136         estimate D2E/DX2                !
 ! D5    D(1,2,17,18)           66.0446         estimate D2E/DX2                !
 ! D6    D(1,2,17,21)         -112.4444         estimate D2E/DX2                !
 ! D7    D(3,2,17,18)         -117.4065         estimate D2E/DX2                !
 ! D8    D(3,2,17,21)           64.1045         estimate D2E/DX2                !
 ! D9    D(2,3,4,5)           -144.1975         estimate D2E/DX2                !
 ! D10   D(2,3,4,16)            35.981          estimate D2E/DX2                !
 ! D11   D(28,3,4,5)            29.3816         estimate D2E/DX2                !
 ! D12   D(28,3,4,16)         -150.4399         estimate D2E/DX2                !
 ! D13   D(3,4,5,6)            176.686          estimate D2E/DX2                !
 ! D14   D(3,4,5,29)            -2.1867         estimate D2E/DX2                !
 ! D15   D(16,4,5,6)            -3.4877         estimate D2E/DX2                !
 ! D16   D(16,4,5,29)          177.6396         estimate D2E/DX2                !
 ! D17   D(3,4,16,9)          -175.5677         estimate D2E/DX2                !
 ! D18   D(3,4,16,35)            3.9836         estimate D2E/DX2                !
 ! D19   D(5,4,16,9)             4.6095         estimate D2E/DX2                !
 ! D20   D(5,4,16,35)         -175.8392         estimate D2E/DX2                !
 ! D21   D(4,5,6,7)             -0.0818         estimate D2E/DX2                !
 ! D22   D(4,5,6,30)          -178.649          estimate D2E/DX2                !
 ! D23   D(29,5,6,7)           178.7937         estimate D2E/DX2                !
 ! D24   D(29,5,6,30)            0.2265         estimate D2E/DX2                !
 ! D25   D(5,6,7,8)           -175.1648         estimate D2E/DX2                !
 ! D26   D(5,6,7,9)              2.6798         estimate D2E/DX2                !
 ! D27   D(30,6,7,8)             3.4134         estimate D2E/DX2                !
 ! D28   D(30,6,7,9)          -178.742          estimate D2E/DX2                !
 ! D29   D(6,7,9,10)          -179.0354         estimate D2E/DX2                !
 ! D30   D(6,7,9,16)            -1.61           estimate D2E/DX2                !
 ! D31   D(8,7,9,10)            -1.2679         estimate D2E/DX2                !
 ! D32   D(8,7,9,16)           176.1575         estimate D2E/DX2                !
 ! D33   D(7,9,10,11)          -42.0966         estimate D2E/DX2                !
 ! D34   D(7,9,10,15)          140.2471         estimate D2E/DX2                !
 ! D35   D(16,9,10,11)         140.435          estimate D2E/DX2                !
 ! D36   D(16,9,10,15)         -37.2213         estimate D2E/DX2                !
 ! D37   D(7,9,16,4)            -2.0645         estimate D2E/DX2                !
 ! D38   D(7,9,16,35)          178.3677         estimate D2E/DX2                !
 ! D39   D(10,9,16,4)          175.5926         estimate D2E/DX2                !
 ! D40   D(10,9,16,35)          -3.9752         estimate D2E/DX2                !
 ! D41   D(9,10,11,12)        -179.1064         estimate D2E/DX2                !
 ! D42   D(9,10,11,31)          -0.5789         estimate D2E/DX2                !
 ! D43   D(15,10,11,12)         -1.6348         estimate D2E/DX2                !
 ! D44   D(15,10,11,31)        176.8927         estimate D2E/DX2                !
 ! D45   D(9,10,15,14)         179.0349         estimate D2E/DX2                !
 ! D46   D(11,10,15,14)          1.3362         estimate D2E/DX2                !
 ! D47   D(10,11,12,13)          0.4667         estimate D2E/DX2                !
 ! D48   D(10,11,12,32)       -179.9695         estimate D2E/DX2                !
 ! D49   D(31,11,12,13)       -178.0639         estimate D2E/DX2                !
 ! D50   D(31,11,12,32)          1.4999         estimate D2E/DX2                !
 ! D51   D(11,12,13,14)          0.886          estimate D2E/DX2                !
 ! D52   D(11,12,13,33)       -179.8977         estimate D2E/DX2                !
 ! D53   D(32,12,13,14)       -178.6755         estimate D2E/DX2                !
 ! D54   D(32,12,13,33)          0.5408         estimate D2E/DX2                !
 ! D55   D(12,13,14,15)         -1.2458         estimate D2E/DX2                !
 ! D56   D(12,13,14,34)        178.5164         estimate D2E/DX2                !
 ! D57   D(33,13,14,15)        179.5333         estimate D2E/DX2                !
 ! D58   D(33,13,14,34)         -0.7045         estimate D2E/DX2                !
 ! D59   D(13,14,15,10)          0.1373         estimate D2E/DX2                !
 ! D60   D(34,14,15,10)       -179.6392         estimate D2E/DX2                !
 ! D61   D(2,17,18,19)           2.6902         estimate D2E/DX2                !
 ! D62   D(2,17,18,20)        -179.9784         estimate D2E/DX2                !
 ! D63   D(21,17,18,19)       -178.82           estimate D2E/DX2                !
 ! D64   D(21,17,18,20)         -1.4886         estimate D2E/DX2                !
 ! D65   D(2,17,21,22)         179.54           estimate D2E/DX2                !
 ! D66   D(2,17,21,37)          -1.0034         estimate D2E/DX2                !
 ! D67   D(18,17,21,22)          1.023          estimate D2E/DX2                !
 ! D68   D(18,17,21,37)       -179.5205         estimate D2E/DX2                !
 ! D69   D(17,18,20,23)          0.9402         estimate D2E/DX2                !
 ! D70   D(17,18,20,36)       -177.4345         estimate D2E/DX2                !
 ! D71   D(19,18,20,23)        178.2676         estimate D2E/DX2                !
 ! D72   D(19,18,20,36)         -0.1071         estimate D2E/DX2                !
 ! D73   D(18,20,23,22)          0.0779         estimate D2E/DX2                !
 ! D74   D(18,20,23,24)       -179.3615         estimate D2E/DX2                !
 ! D75   D(36,20,23,22)        178.494          estimate D2E/DX2                !
 ! D76   D(36,20,23,24)         -0.9454         estimate D2E/DX2                !
 ! D77   D(17,21,22,23)         -0.0299         estimate D2E/DX2                !
 ! D78   D(17,21,22,38)        178.6227         estimate D2E/DX2                !
 ! D79   D(37,21,22,23)       -179.4811         estimate D2E/DX2                !
 ! D80   D(37,21,22,38)         -0.8284         estimate D2E/DX2                !
 ! D81   D(21,22,23,20)         -0.5322         estimate D2E/DX2                !
 ! D82   D(21,22,23,24)        178.918          estimate D2E/DX2                !
 ! D83   D(38,22,23,20)       -179.2215         estimate D2E/DX2                !
 ! D84   D(38,22,23,24)          0.2286         estimate D2E/DX2                !
 ! D85   D(20,23,24,25)         21.1326         estimate D2E/DX2                !
 ! D86   D(20,23,24,26)        -95.7816         estimate D2E/DX2                !
 ! D87   D(20,23,24,27)        158.1142         estimate D2E/DX2                !
 ! D88   D(22,23,24,25)       -158.3269         estimate D2E/DX2                !
 ! D89   D(22,23,24,26)         84.7589         estimate D2E/DX2                !
 ! D90   D(22,23,24,27)        -21.3454         estimate D2E/DX2                !
 ! D91   D(23,24,25,39)        167.0839         estimate D2E/DX2                !
 ! D92   D(26,24,25,39)        -87.4214         estimate D2E/DX2                !
 ! D93   D(27,24,25,39)         36.518          estimate D2E/DX2                !
 ! D94   D(23,24,26,40)        178.6282         estimate D2E/DX2                !
 ! D95   D(23,24,26,41)         58.1595         estimate D2E/DX2                !
 ! D96   D(23,24,26,42)        -62.5197         estimate D2E/DX2                !
 ! D97   D(25,24,26,40)         70.9217         estimate D2E/DX2                !
 ! D98   D(25,24,26,41)        -49.5471         estimate D2E/DX2                !
 ! D99   D(25,24,26,42)       -170.2263         estimate D2E/DX2                !
 ! D100  D(27,24,26,40)        -65.0454         estimate D2E/DX2                !
 ! D101  D(27,24,26,41)        174.4859         estimate D2E/DX2                !
 ! D102  D(27,24,26,42)         53.8066         estimate D2E/DX2                !
 ! D103  D(23,24,27,43)        -85.9551         estimate D2E/DX2                !
 ! D104  D(25,24,27,43)         39.917          estimate D2E/DX2                !
 ! D105  D(26,24,27,43)        169.3144         estimate D2E/DX2                !
 --------------------------------------------------------------------------------
 Trust Radius=3.00D-01 FncErr=1.00D-07 GrdErr=1.00D-06 EigMax=2.50D+02 EigMin=1.00D-04
 Number of steps in this run=    232 maximum allowed number of steps=    258.
 GradGradGradGradGradGradGradGradGradGradGradGradGradGradGradGradGradGrad

                          Input orientation:                          
 ---------------------------------------------------------------------
 Center     Atomic      Atomic             Coordinates (Angstroms)
 Number     Number       Type             X           Y           Z
 ---------------------------------------------------------------------
      1          8           0        0.466459   -4.481471    0.672524
      2          6           0        0.676903   -3.344548    0.317507
      3          7           0        1.926592   -2.945304   -0.061683
      4          6           0        2.349468   -1.680905   -0.482656
      5          6           0        3.323911   -1.574976   -1.474024
      6          6           0        3.698291   -0.331963   -1.944423
      7          6           0        3.109877    0.818430   -1.438630
      8         17           0        3.532757    2.331018   -2.160961
      9          6           0        2.172992    0.739045   -0.409693
     10          6           0        1.468432    1.884978    0.193026
     11          6           0        2.083442    3.094964    0.504413
     12          6           0        1.318414    4.092762    1.086289
     13          6           0       -0.020912    3.851887    1.346128
     14          6           0       -0.535617    2.602542    1.025238
     15          7           0        0.184845    1.650688    0.465801
     16          6           0        1.823972   -0.520378    0.066466
     17          6           0       -0.403312   -2.310964    0.185825
     18          6           0       -1.096144   -1.844174    1.301860
     19         17           0       -0.661938   -2.410198    2.870572
     20          6           0       -2.092287   -0.889445    1.166904
     21          6           0       -0.741056   -1.832433   -1.076268
     22          6           0       -1.739503   -0.887697   -1.218469
     23          6           0       -2.397408   -0.425459   -0.094682
     24         16           0       -3.679062    0.833402   -0.314060
     25          7           0       -3.755342    1.471274    1.084564
     26          6           0       -5.086461   -0.266643   -0.703048
     27          7           0       -3.552217    1.619683   -1.626411
     28          1           0        2.603404   -3.697156   -0.123043
     29          1           0        3.774134   -2.464671   -1.888328
     30          1           0        4.436297   -0.248649   -2.726771
     31          1           0        3.134896    3.244911    0.319995
     32          1           0        1.766788    5.042968    1.339114
     33          1           0       -0.647298    4.605736    1.796639
     34          1           0       -1.568290    2.342732    1.224758
     35          1           0        1.119821   -0.560605    0.878751
     36          1           0       -2.612359   -0.484961    2.019356
     37          1           0       -0.209884   -2.199578   -1.941712
     38          1           0       -2.005439   -0.484435   -2.183472
     39          1           0       -4.272813    2.334997    1.110698
     40          1           0       -5.968269    0.347017   -0.843729
     41          1           0       -5.220587   -0.954976    0.122624
     42          1           0       -4.845056   -0.787056   -1.620171
     43          1           0       -2.933104    2.412158   -1.575295
 ---------------------------------------------------------------------
                    Distance matrix (angstroms):
                    1          2          3          4          5
     1  O    0.000000
     2  C    1.209511   0.000000
     3  N    2.242957   1.365615   0.000000
     4  C    3.566978   2.491073   1.398123   0.000000
     5  C    4.606562   3.653440   2.413505   1.394120   0.000000
     6  C    5.874655   4.829159   3.676027   2.403275   1.380767
     7  C    6.287573   5.131643   4.178736   2.781866   2.403218
     8  Cl   7.990046   6.819880   5.901382   4.506928   3.971434
     9  C    5.597967   4.409403   3.708942   2.427473   2.795016
    10  C    6.462627   5.290554   4.858643   3.734741   4.265342
    11  C    7.748888   6.593982   6.068765   4.884055   5.221238
    12  C    8.626384   7.504409   7.156962   6.071235   6.534561
    13  C    8.374732   7.302992   7.209474   6.290861   6.970793
    14  C    7.163226   6.110562   6.166236   5.380090   6.212401
    15  N    6.142102   5.021603   4.943183   4.084687   4.901180
    16  C    4.230887   3.058549   2.430477   1.387265   2.394808
    17  C    2.388405   1.500834   2.427365   2.902006   4.145959
    18  C    3.129397   2.522651   3.494091   3.883735   5.226365
    19  Cl   3.224107   3.030453   3.947777   4.565586   5.954839
    20  C    4.437820   3.797028   4.678394   4.803815   6.064623
    21  C    3.396140   2.497941   3.063366   3.150662   4.092487
    22  C    4.621400   3.772845   4.360293   4.229691   5.116232
    23  C    5.024100   4.259386   5.004766   4.925393   5.996455
    24  S    6.812237   6.068655   6.765033   6.534013   7.495827
    25  N    7.309485   6.589789   7.287278   7.047064   8.120458
    26  C    7.105765   6.612972   7.534553   7.572433   8.546373
    27  N    7.658913   6.804988   7.301016   6.857984   7.583549
    28  H    2.411350   2.007442   1.013470   2.063753   2.616855
    29  H    4.643938   3.902914   2.642168   2.149390   1.079771
    30  H    6.725445   5.743280   4.546786   3.382642   2.136802
    31  H    8.181797   7.032972   6.318578   5.052208   5.146411
    32  H    9.635878   8.519504   8.111736   6.990624   7.357688
    33  H    9.223960   8.194411   8.191244   7.327868   8.041701
    34  H    7.142472   6.181355   6.467801   5.869731   6.823891
    35  H    3.980277   2.874285   2.687394   2.149542   3.379721
    36  H    5.221606   4.678971   5.566514   5.684194   6.973603
    37  H    3.535351   2.683546   2.941963   2.991346   3.618918
    38  H    5.499390   4.650817   5.100856   4.825922   5.485852
    39  H    8.313659   7.575359   8.227313   7.907012   8.926303
    40  H    8.186516   7.689892   8.589517   8.568989   9.509781
    41  H    6.714242   6.366194   7.421424   7.628831   8.714478
    42  H    6.864208   6.386501   7.276134   7.338533   8.208179
    43  H    8.008237   7.053689   7.389863   6.771454   7.420090
                    6          7          8          9         10
     6  C    0.000000
     7  C    1.387610   0.000000
     8  Cl   2.676893   1.728732   0.000000
     9  C    2.414331   1.393832   2.729520   0.000000
    10  C    3.802077   2.548366   3.162538   1.474055   0.000000
    11  C    4.510916   3.164110   3.128634   2.528629   1.392575
    12  C    5.867472   4.506197   4.307168   3.770369   2.386364
    13  C    6.493443   5.172870   5.219319   4.193555   2.723329
    14  C    5.946106   4.747981   5.174675   3.587228   2.285538
    15  N    4.699403   3.588220   4.309437   2.355909   1.333002
    16  C    2.755404   2.389827   4.001480   1.390931   2.434782
    17  C    5.027679   4.977395   6.522886   4.036650   4.594498
    18  C    5.984291   5.682461   7.130925   4.504407   4.659736
    19  Cl   6.820179   6.574181   8.086466   5.358610   5.491473
    20  C    6.597116   6.063675   7.286096   4.830138   4.617855
    21  C    4.765806   4.689143   6.064352   3.943158   4.506894
    22  C    5.514114   5.145467   6.248611   4.313702   4.468881
    23  C    6.370858   5.803762   6.858173   4.726929   4.512829
    24  S    7.644703   6.881466   7.593697   5.853595   5.278223
    25  N    8.245185   7.343293   8.024275   6.157443   5.315431
    26  C    8.872268   8.300507   9.119445   7.334652   6.956942
    27  N    7.515313   6.712732   7.140631   5.918948   5.346742
    28  H    3.980041   4.730518   6.430839   4.466241   5.705110
    29  H    2.134793   3.379677   4.809493   3.874767   5.344881
    30  H    1.078732   2.134796   2.791273   3.386288   4.678227
    31  H    4.270718   2.996864   2.673694   2.781558   2.154678
    32  H    6.588035   5.231297   4.766954   4.663376   3.372749
    33  H    7.567071   6.239152   6.189492   5.270032   3.801370
    34  H    6.703326   5.594853   6.122411   4.386391   3.239705
    35  H    3.830286   3.351464   4.839792   2.111479   2.563713
    36  H    7.453808   6.811789   7.947782   5.504366   5.060133
    37  H    4.331492   4.514674   5.880624   4.081751   4.904840
    38  H    5.710773   5.330920   6.212801   4.701327   4.830077
    39  H    8.943430   7.956328   8.463492   6.812272   5.831512
    40  H    9.752688   9.109823   9.794940   8.162242   7.664509
    41  H    9.176449   8.659048   9.624632   7.603819   7.267274
    42  H    8.561602   8.117358   8.955590   7.283353   7.091374
    43  H    7.186227   6.251102   6.492838   5.498195   4.772672
                   11         12         13         14         15
    11  C    0.000000
    12  C    1.385442   0.000000
    13  C    2.389503   1.385399   0.000000
    14  C    2.715365   2.379478   1.388796   0.000000
    15  N    2.385811   2.762918   2.379620   1.318356   0.000000
    16  C    3.651003   4.751494   4.915062   4.029830   2.749496
    17  C    5.958985   6.692002   6.282775   4.986447   4.014847
    18  C    5.927965   6.412782   5.796827   4.490434   3.814969
    19  Cl   6.591102   7.028083   6.476770   5.343106   4.794868
    20  C    5.809571   6.038358   5.177156   3.825868   3.482693
    21  C    5.895387   6.635210   6.220780   4.911979   3.920127
    22  C    5.783150   6.282336   5.656357   4.320339   3.603231
    23  C    5.729774   5.967944   5.100918   3.726833   3.360440
    24  S    6.244278   6.128554   5.024892   3.847703   4.025657
    25  N    6.088049   5.710972   4.436406   3.413197   3.992509
    26  C    8.010360   7.951639   6.842601   5.650608   5.729662
    27  N    6.203025   6.099009   5.127264   4.134867   4.282983
    28  H    6.840830   7.987272   8.126103   7.131493   5.898779
    29  H    6.284361   7.607815   8.047546   7.262195   5.946520
    30  H    5.211164   6.565705   7.298604   6.850313   5.645781
    31  H    1.077984   2.146082   3.373499   3.792449   3.356428
    32  H    2.142829   1.080671   2.148161   3.369758   3.843538
    33  H    3.377754   2.152153   1.078707   2.149493   3.346029
    34  H    3.797354   3.378586   2.164869   1.083385   2.031852
    35  H    3.798931   4.662224   4.581462   3.573154   2.436087
    36  H    6.096020   6.105501   5.096772   3.851468   3.846931
    37  H    6.266981   7.148289   6.889546   5.654136   4.558122
    38  H    6.062654   6.533764   5.932968   4.688883   4.046571
    39  H    6.430171   5.861071   4.520514   3.747735   4.555753
    40  H    8.613869   8.417322   7.242281   6.172044   6.424580
    41  H    8.360419   8.316661   7.186064   5.951436   6.010486
    42  H    8.221193   8.314199   7.320593   6.087596   5.966051
    43  H    5.473312   5.289978   4.369027   3.542169   3.803619
                   16         17         18         19         20
    16  C    0.000000
    17  C    2.860286   0.000000
    18  C    3.435944   1.394074   0.000000
    19  Cl   4.196925   2.698999   1.723303   0.000000
    20  C    4.084636   2.415754   1.386370   2.694637   0.000000
    21  C    3.099467   1.391381   2.404521   3.989689   2.783321
    22  C    3.805829   2.404816   2.771429   4.494376   2.411320
    23  C    4.225521   2.758665   2.378313   3.967843   1.378399
    24  S    5.679868   4.568091   4.056116   5.455809   2.771157
    25  N    6.010985   5.133144   4.255673   5.274922   2.888863
    26  C    6.957773   5.186639   4.736126   6.077992   3.584645
    27  N    6.029022   5.352550   5.158040   6.694513   4.028614
    28  H    3.276484   3.325247   4.376134   4.613074   5.621096
    29  H    3.377075   4.666562   5.855077   6.506062   6.799315
    30  H    3.834092   6.013168   7.027338   7.873662   7.628482
    31  H    3.995022   6.588221   6.690631   7.273352   6.718154
    32  H    5.707339   7.753691   7.458585   7.987100   7.079240
    33  H    5.947917   7.105983   6.484413   7.097668   5.716781
    34  H    4.587644   4.908507   4.214149   5.110824   3.274887
    35  H    1.075756   2.421537   2.595588   3.250079   3.241729
    36  H    4.847273   3.402353   2.158973   2.869712   1.077384
    37  H    3.314976   2.139214   3.381203   4.838056   3.863080
    38  H    4.441610   3.393610   3.850097   5.572873   3.375884
    39  H    6.812809   6.116647   5.252927   6.217109   3.892927
    40  H    7.893025   6.252486   5.756950   7.039560   4.538141
    41  H    7.058175   5.004881   4.380902   5.518167   3.298648
    42  H    6.884169   5.031203   4.869302   6.348215   3.918674
    43  H    5.824510   5.639971   5.456080   6.941113   4.373468
                   21         22         23         24         25
    21  C    0.000000
    22  C    1.381899   0.000000
    23  C    2.384657   1.381810   0.000000
    24  S    4.039742   2.746274   1.809832   0.000000
    25  N    4.966850   3.864235   2.613849   1.539107   0.000000
    26  C    4.633955   3.442890   2.761582   1.828163   2.826267
    27  N    4.485799   3.120785   2.803994   1.535119   2.722621
    28  H    3.946041   5.287141   5.976030   7.748020   8.282792
    29  H    4.630994   5.773713   6.742662   8.300948   9.001265
    30  H    5.660169   6.389356   7.325209   8.535283   9.197139
    31  H    6.538499   6.573057   6.652065   7.255854   7.155818
    32  H    7.706782   7.349020   7.021396   7.078892   6.581468
    33  H    7.050703   6.360943   5.652691   5.279882   4.471224
    34  H    4.838496   4.053929   3.176671   3.016852   2.358450
    35  H    2.983708   3.561048   3.651951   5.137639   5.285651
    36  H    3.860096   3.377512   2.125771   2.884574   2.450940
    37  H    1.079784   2.140992   3.368127   4.887066   5.933277
    38  H    2.154452   1.079153   2.126066   2.834150   4.191303
    39  H    5.884182   4.714704   3.548267   2.153431   1.007212
    40  H    5.668142   4.421245   3.729455   2.399497   3.143137
    41  H    4.719478   3.731086   2.880615   2.401101   2.993152
    42  H    4.269831   3.133041   2.906690   2.385655   3.688241
    43  H    4.803193   3.527188   3.245190   2.153982   2.938739
                   26         27         28         29         30
    26  C    0.000000
    27  N    2.600909   0.000000
    28  H    8.440311   8.271673   0.000000
    29  H    9.205779   8.392019   2.450686   0.000000
    30  H    9.735435   8.277549   4.693730   2.460122   0.000000
    31  H    8.998240   7.151737   6.976464   6.155050   4.814705
    32  H    8.906706   6.986060   8.900988   8.414896   7.187413
    33  H    7.049445   5.391878   9.120870   9.116946   8.358782
    34  H    4.785686   3.547947   7.463233   7.832236   7.641002
    35  H    6.411430   5.732141   3.611449   4.281072   4.908780
    36  H    3.685150   4.313291   6.489395   7.744452   8.500889
    37  H    5.389947   5.085014   3.669453   3.993185   5.099945
    38  H    3.425169   2.670235   5.984010   6.116528   6.468905
    39  H    3.274175   2.919365   9.229916   9.837903   9.861541
    40  H    1.083492   2.840699   9.505172  10.193684  10.590357
    41  H    1.083294   3.531494   8.294259   9.339599  10.093233
    42  H    1.081768   2.732007   8.135701   8.785029   9.362583
    43  H    3.545946   1.006941   8.371719   8.298705   7.919209
                   31         32         33         34         35
    31  H    0.000000
    32  H    2.478575   0.000000
    33  H    4.282209   2.495659   0.000000
    34  H    4.873652   4.292680   2.509276   0.000000
    35  H    4.342197   5.659552   5.536814   3.971779   0.000000
    36  H    7.059086   7.085030   5.461343   3.117261   3.903315
    37  H    6.778299   8.193017   7.776819   5.701261   3.522693
    38  H    6.826303   7.562440   6.602702   4.449719   4.376101
    39  H    7.505152   6.622844   4.332567   2.706938   6.125260
    40  H    9.623910   9.308483   7.308964   5.255599   7.350628
    41  H    9.353721   9.288627   7.391808   5.042702   6.397502
    42  H    9.148805   9.298550   7.640548   5.350363   6.471140
    43  H    6.411414   6.124045   4.626731   3.115740   5.593377
                   36         37         38         39         40
    36  H    0.000000
    37  H    4.939824   0.000000
    38  H    4.246423   2.494831   0.000000
    39  H    3.396312   6.810798   4.893029   0.000000
    40  H    4.489051   6.391378   4.265002   3.262885   0.000000
    41  H    3.259043   5.560365   3.984553   3.563494   1.785512
    42  H    4.280462   4.856277   2.910723   4.187161   1.774991
    43  H    4.627926   5.368268   3.101725   3.002554   3.743290
                   41         42         43
    41  H    0.000000
    42  H    1.790686   0.000000
    43  H    4.410567   3.727271   0.000000
 Stoichiometry    C19H16Cl2N4OS
 Framework group  C1[X(C19H16Cl2N4OS)]
 Deg. of freedom   123
 Full point group                 C1      NOp   1
 Largest Abelian subgroup         C1      NOp   1
 Largest concise Abelian subgroup C1      NOp   1
                         Standard orientation:                         
 ---------------------------------------------------------------------
 Center     Atomic      Atomic             Coordinates (Angstroms)
 Number     Number       Type             X           Y           Z
 ---------------------------------------------------------------------
      1          8           0        0.493115    4.552193    0.133491
      2          6           0        0.005103    3.455296   -0.013410
      3          7           0       -1.348470    3.291509   -0.090334
      4          6           0       -2.077930    2.108635   -0.243458
      5          6           0       -3.243496    2.112025   -1.008322
      6          6           0       -3.932996    0.934908   -1.221631
      7          6           0       -3.473803   -0.257601   -0.680775
      8         17           0       -4.313397   -1.711658   -1.092248
      9          6           0       -2.341183   -0.275228    0.131401
     10          6           0       -1.749098   -1.478181    0.743917
     11          6           0       -2.496851   -2.495529    1.331397
     12          6           0       -1.823764   -3.569117    1.891587
     13          6           0       -0.438938   -3.589965    1.857635
     14          6           0        0.217851   -2.514236    1.274377
     15          7           0       -0.416210   -1.492470    0.733986
     16          6           0       -1.671746    0.923739    0.352813
     17          6           0        0.821988    2.210360   -0.201385
     18          6           0        1.637887    1.721200    0.817670
     19         17           0        1.660196    2.517736    2.345677
     20          6           0        2.388020    0.570276    0.631401
     21          6           0        0.788632    1.549433   -1.425315
     22          6           0        1.541284    0.407032   -1.620455
     23          6           0        2.326170   -0.069612   -0.587902
     24         16           0        3.275917   -1.584586   -0.867773
     25          7           0        3.528822   -2.082997    0.566269
     26          6           0        4.746971   -0.847989   -1.665021
     27          7           0        2.729169   -2.452435   -2.009918
     28          1           0       -1.871623    4.158741   -0.126933
     29          1           0       -3.598905    3.030992   -1.450012
     30          1           0       -4.823036    0.931358   -1.831123
     31          1           0       -3.572607   -2.439141    1.371619
     32          1           0       -2.376022   -4.374479    2.354462
     33          1           0        0.118339   -4.410146    2.282317
     34          1           0        1.299149   -2.458323    1.237071
     35          1           0       -0.815790    0.895428    1.003804
     36          1           0        2.993588    0.151924    1.418183
     37          1           0        0.162735    1.932508   -2.217426
     38          1           0        1.516242   -0.136286   -2.552522
     39          1           0        3.870894   -3.029123    0.614313
     40          1           0        5.449351   -1.643722   -1.882796
     41          1           0        5.178929   -0.124998   -0.983683
     42          1           0        4.416438   -0.381677   -2.583457
     43          1           0        1.999363   -3.088477   -1.732851
 ---------------------------------------------------------------------
 Rotational constants (GHZ):           0.1863701           0.1458385           0.1036776
 Standard basis: def2SVP (5D, 7F)
 There are   497 symmetry adapted cartesian basis functions of A   symmetry.
 There are   470 symmetry adapted basis functions of A   symmetry.
   470 basis functions,   823 primitive gaussians,   497 cartesian basis functions
   108 alpha electrons      108 beta electrons
       nuclear repulsion energy      3004.5519193440 Hartrees.
 NAtoms=   43 NActive=   43 NUniq=   43 SFac= 1.00D+00 NAtFMM=   60 NAOKFM=F Big=F
 Integral buffers will be    131072 words long.
 Raffenetti 2 integral format.
 Two-electron integral symmetry is turned on.
 Nuclear repulsion after empirical dispersion term =     3004.4845209505 Hartrees.
 One-electron integrals computed using PRISM.
   1 Symmetry operations used in ECPInt.
 ECPInt:  NShTT=   23436 NPrTT=   89682 LenC2=   20771 LenP2D=   52522.
 LDataN:  DoStor=T MaxTD1= 4 Len=   56
 NBasis=   470 RedAO= T EigKep=  1.80D-04  NBF=   470
 NBsUse=   470 1.00D-06 EigRej= -1.00D+00 NBFU=   470
 ExpMin= 1.22D-01 ExpMax= 1.04D+04 ExpMxC= 1.57D+03 IAcc=3 IRadAn=         5 AccDes= 0.00D+00
 Harris functional with IExCor= 1009 and IRadAn=       5 diagonalized for initial guess.
 HarFok:  IExCor= 1009 AccDes= 0.00D+00 IRadAn=         5 IDoV= 1 UseB2=F ITyADJ=14
 ICtDFT=  3500011 ScaDFX=  1.000000  1.000000  1.000000  1.000000
 FoFCou: FMM=F IPFlag=           0 FMFlag=      100000 FMFlg1=           0
         NFxFlg=           0 DoJE=T BraDBF=F KetDBF=T FulRan=T
         wScrn=  0.000000 ICntrl=       500 IOpCl=  0 I1Cent=   200000004 NGrid=           0
         NMat0=    1 NMatS0=      1 NMatT0=    0 NMatD0=    1 NMtDS0=    0 NMtDT0=    0
 Petite list used in FoFCou.
 Requested convergence on RMS density matrix=1.00D-08 within 128 cycles.
 Requested convergence on MAX density matrix=1.00D-06.
 Requested convergence on             energy=1.00D-06.
 No special actions if energy rises.
 Integral accuracy reduced to 1.0D-05 until final iterations.
 Initial convergence to 1.0D-05 achieved.  Increase integral accuracy.
 SCF Done:  E(RPBE1PBE) =  -2343.65120896     A.U. after   16 cycles
            NFock= 16  Conv=0.27D-08     -V/T= 2.0050

 **********************************************************************

            Population analysis using the SCF Density.

 **********************************************************************

 Orbital symmetries:
       Occupied  (A) (A) (A) (A) (A) (A) (A) (A) (A) (A) (A) (A)
                 (A) (A) (A) (A) (A) (A) (A) (A) (A) (A) (A) (A)
                 (A) (A) (A) (A) (A) (A) (A) (A) (A) (A) (A) (A)
                 (A) (A) (A) (A) (A) (A) (A) (A) (A) (A) (A) (A)
                 (A) (A) (A) (A) (A) (A) (A) (A) (A) (A) (A) (A)
                 (A) (A) (A) (A) (A) (A) (A) (A) (A) (A) (A) (A)
                 (A) (A) (A) (A) (A) (A) (A) (A) (A) (A) (A) (A)
                 (A) (A) (A) (A) (A) (A) (A) (A) (A) (A) (A) (A)
                 (A) (A) (A) (A) (A) (A) (A) (A) (A) (A) (A) (A)
       Virtual   (A) (A) (A) (A) (A) (A) (A) (A) (A) (A) (A) (A)
                 (A) (A) (A) (A) (A) (A) (A) (A) (A) (A) (A) (A)
                 (A) (A) (A) (A) (A) (A) (A) (A) (A) (A) (A) (A)
                 (A) (A) (A) (A) (A) (A) (A) (A) (A) (A) (A) (A)
                 (A) (A) (A) (A) (A) (A) (A) (A) (A) (A) (A) (A)
                 (A) (A) (A) (A) (A) (A) (A) (A) (A) (A) (A) (A)
                 (A) (A) (A) (A) (A) (A) (A) (A) (A) (A) (A) (A)
                 (A) (A) (A) (A) (A) (A) (A) (A) (A) (A) (A) (A)
                 (A) (A) (A) (A) (A) (A) (A) (A) (A) (A) (A) (A)
                 (A) (A) (A) (A) (A) (A) (A) (A) (A) (A) (A) (A)
                 (A) (A) (A) (A) (A) (A) (A) (A) (A) (A) (A) (A)
                 (A) (A) (A) (A) (A) (A) (A) (A) (A) (A) (A) (A)
                 (A) (A) (A) (A) (A) (A) (A) (A) (A) (A) (A) (A)
                 (A) (A) (A) (A) (A) (A) (A) (A) (A) (A) (A) (A)
                 (A) (A) (A) (A) (A) (A) (A) (A) (A) (A) (A) (A)
                 (A) (A) (A) (A) (A) (A) (A) (A) (A) (A) (A) (A)
                 (A) (A) (A) (A) (A) (A) (A) (A) (A) (A) (A) (A)
                 (A) (A) (A) (A) (A) (A) (A) (A) (A) (A) (A) (A)
                 (A) (A) (A) (A) (A) (A) (A) (A) (A) (A) (A) (A)
                 (A) (A) (A) (A) (A) (A) (A) (A) (A) (A) (A) (A)
                 (A) (A) (A) (A) (A) (A) (A) (A) (A) (A) (A) (A)
                 (A) (A) (A) (A) (A) (A) (A) (A) (A) (A) (A) (A)
                 (A) (A) (A) (A) (A) (A) (A) (A) (A) (A) (A) (A)
                 (A) (A) (A) (A) (A) (A) (A) (A) (A) (A) (A) (A)
                 (A) (A) (A) (A) (A) (A) (A) (A) (A) (A) (A) (A)
                 (A) (A) (A) (A) (A) (A) (A) (A) (A) (A) (A) (A)
                 (A) (A) (A) (A) (A) (A) (A) (A) (A) (A) (A) (A)
                 (A) (A) (A) (A) (A) (A) (A) (A) (A) (A) (A) (A)
                 (A) (A) (A) (A) (A) (A) (A) (A) (A) (A) (A) (A)
                 (A) (A) (A) (A) (A) (A) (A) (A) (A) (A) (A) (A)
                 (A) (A)
 The electronic state is 1-A.
 Alpha  occ. eigenvalues -- -101.68916-101.68786 -89.19112 -19.18859 -14.44170
 Alpha  occ. eigenvalues --  -14.38904 -14.35592 -14.35149 -10.35056 -10.30976
 Alpha  occ. eigenvalues --  -10.30211 -10.29641 -10.28338 -10.27357 -10.27144
 Alpha  occ. eigenvalues --  -10.26390 -10.26376 -10.26371 -10.26264 -10.26074
 Alpha  occ. eigenvalues --  -10.25919 -10.25833 -10.25786 -10.25761 -10.24906
 Alpha  occ. eigenvalues --  -10.24901 -10.24660  -9.54123  -9.53990  -8.16521
 Alpha  occ. eigenvalues --   -7.28244  -7.28124  -7.27282  -7.27242  -7.27153
 Alpha  occ. eigenvalues --   -7.27089  -6.10655  -6.10557  -6.10526  -1.07587
 Alpha  occ. eigenvalues --   -1.01409  -0.98089  -0.97599  -0.93226  -0.92505
 Alpha  occ. eigenvalues --   -0.87589  -0.86550  -0.86191  -0.82964  -0.81907
 Alpha  occ. eigenvalues --   -0.80943  -0.77260  -0.77005  -0.76752  -0.75705
 Alpha  occ. eigenvalues --   -0.70039  -0.67419  -0.66400  -0.64989  -0.64587
 Alpha  occ. eigenvalues --   -0.62941  -0.62496  -0.59977  -0.58018  -0.55716
 Alpha  occ. eigenvalues --   -0.54445  -0.53440  -0.52414  -0.51712  -0.51280
 Alpha  occ. eigenvalues --   -0.50503  -0.49378  -0.48357  -0.48051  -0.47718
 Alpha  occ. eigenvalues --   -0.46622  -0.46187  -0.45994  -0.45232  -0.44613
 Alpha  occ. eigenvalues --   -0.44459  -0.43983  -0.43393  -0.42615  -0.42385
 Alpha  occ. eigenvalues --   -0.41600  -0.41269  -0.40497  -0.39516  -0.39122
 Alpha  occ. eigenvalues --   -0.38116  -0.36964  -0.35796  -0.35494  -0.33161
 Alpha  occ. eigenvalues --   -0.33045  -0.31736  -0.31109  -0.30237  -0.29629
 Alpha  occ. eigenvalues --   -0.28308  -0.27841  -0.27529  -0.26917  -0.26431
 Alpha  occ. eigenvalues --   -0.25931  -0.24963  -0.24149
 Alpha virt. eigenvalues --   -0.05510  -0.04333  -0.02681  -0.02399  -0.02163
 Alpha virt. eigenvalues --    0.00835   0.03453   0.04337   0.04953   0.06502
 Alpha virt. eigenvalues --    0.07337   0.07571   0.08210   0.08306   0.09637
 Alpha virt. eigenvalues --    0.10141   0.10407   0.10849   0.11855   0.12766
 Alpha virt. eigenvalues --    0.12959   0.13212   0.13725   0.14483   0.14530
 Alpha virt. eigenvalues --    0.15298   0.15689   0.17101   0.17588   0.17927
 Alpha virt. eigenvalues --    0.18912   0.21183   0.21920   0.23090   0.23952
 Alpha virt. eigenvalues --    0.25396   0.26744   0.27382   0.27881   0.28494
 Alpha virt. eigenvalues --    0.29355   0.29440   0.29993   0.30472   0.30707
 Alpha virt. eigenvalues --    0.31183   0.31477   0.33166   0.33377   0.35268
 Alpha virt. eigenvalues --    0.36134   0.37586   0.38953   0.39248   0.39471
 Alpha virt. eigenvalues --    0.40477   0.40968   0.41143   0.41242   0.42164
 Alpha virt. eigenvalues --    0.42790   0.44109   0.44583   0.44823   0.45986
 Alpha virt. eigenvalues --    0.46310   0.46725   0.47425   0.47757   0.48546
 Alpha virt. eigenvalues --    0.49122   0.49575   0.50303   0.51305   0.51521
 Alpha virt. eigenvalues --    0.52440   0.53263   0.54365   0.54645   0.55453
 Alpha virt. eigenvalues --    0.56209   0.56994   0.57542   0.58505   0.58963
 Alpha virt. eigenvalues --    0.59786   0.60712   0.60953   0.61728   0.61810
 Alpha virt. eigenvalues --    0.62088   0.63142   0.63437   0.64090   0.64281
 Alpha virt. eigenvalues --    0.64616   0.64948   0.65480   0.66139   0.66727
 Alpha virt. eigenvalues --    0.66942   0.67164   0.67328   0.67761   0.68107
 Alpha virt. eigenvalues --    0.68352   0.68849   0.69507   0.69831   0.70225
 Alpha virt. eigenvalues --    0.70674   0.71086   0.71173   0.72028   0.72762
 Alpha virt. eigenvalues --    0.72994   0.73152   0.73388   0.74163   0.74489
 Alpha virt. eigenvalues --    0.75330   0.75858   0.76515   0.76970   0.77742
 Alpha virt. eigenvalues --    0.78130   0.78844   0.79969   0.80317   0.80598
 Alpha virt. eigenvalues --    0.81549   0.82325   0.82508   0.82980   0.83716
 Alpha virt. eigenvalues --    0.84095   0.84139   0.84905   0.85625   0.86382
 Alpha virt. eigenvalues --    0.87522   0.87546   0.88622   0.89667   0.90196
 Alpha virt. eigenvalues --    0.91549   0.91767   0.92437   0.94259   0.95034
 Alpha virt. eigenvalues --    0.96237   0.96634   0.98146   0.98557   0.99157
 Alpha virt. eigenvalues --    0.99563   1.00640   1.01055   1.02496   1.03568
 Alpha virt. eigenvalues --    1.04124   1.05340   1.07140   1.08985   1.10502
 Alpha virt. eigenvalues --    1.10787   1.12117   1.12660   1.13235   1.14788
 Alpha virt. eigenvalues --    1.15525   1.16432   1.16851   1.18280   1.19548
 Alpha virt. eigenvalues --    1.19976   1.20696   1.20949   1.21625   1.22329
 Alpha virt. eigenvalues --    1.24018   1.24633   1.24889   1.25892   1.26473
 Alpha virt. eigenvalues --    1.26694   1.27284   1.27886   1.29654   1.30355
 Alpha virt. eigenvalues --    1.31278   1.33015   1.33311   1.34437   1.35685
 Alpha virt. eigenvalues --    1.37268   1.37384   1.38353   1.40369   1.42509
 Alpha virt. eigenvalues --    1.42785   1.44164   1.44872   1.46428   1.47568
 Alpha virt. eigenvalues --    1.48794   1.49728   1.50177   1.50705   1.52338
 Alpha virt. eigenvalues --    1.53050   1.54641   1.55833   1.57294   1.60090
 Alpha virt. eigenvalues --    1.63985   1.65238   1.65842   1.68281   1.69508
 Alpha virt. eigenvalues --    1.70082   1.71285   1.71627   1.72295   1.73176
 Alpha virt. eigenvalues --    1.73886   1.74185   1.74496   1.75368   1.76383
 Alpha virt. eigenvalues --    1.76807   1.77717   1.77926   1.78464   1.78667
 Alpha virt. eigenvalues --    1.79289   1.80646   1.81178   1.81711   1.82270
 Alpha virt. eigenvalues --    1.82646   1.83800   1.84284   1.84695   1.85523
 Alpha virt. eigenvalues --    1.87049   1.87794   1.88401   1.90427   1.91048
 Alpha virt. eigenvalues --    1.91647   1.93540   1.94145   1.95380   1.96964
 Alpha virt. eigenvalues --    1.97699   1.98283   1.99596   1.99915   2.00689
 Alpha virt. eigenvalues --    2.00966   2.01921   2.02422   2.05241   2.06388
 Alpha virt. eigenvalues --    2.07593   2.09408   2.09960   2.10580   2.12235
 Alpha virt. eigenvalues --    2.13773   2.14488   2.15134   2.15520   2.16780
 Alpha virt. eigenvalues --    2.17274   2.17894   2.19287   2.20616   2.21870
 Alpha virt. eigenvalues --    2.22555   2.26060   2.26214   2.26979   2.28007
 Alpha virt. eigenvalues --    2.29673   2.30350   2.30867   2.31252   2.32361
 Alpha virt. eigenvalues --    2.32523   2.34340   2.35389   2.36074   2.36478
 Alpha virt. eigenvalues --    2.39259   2.39753   2.40294   2.41818   2.42668
 Alpha virt. eigenvalues --    2.42979   2.44927   2.45791   2.46774   2.48917
 Alpha virt. eigenvalues --    2.51231   2.54179   2.55147   2.55815   2.57360
 Alpha virt. eigenvalues --    2.57758   2.58656   2.59401   2.61316   2.61762
 Alpha virt. eigenvalues --    2.63755   2.64386   2.64532   2.65994   2.66218
 Alpha virt. eigenvalues --    2.68097   2.69340   2.70481   2.71784   2.73720
 Alpha virt. eigenvalues --    2.73912   2.76002   2.76789   2.80965   2.83060
 Alpha virt. eigenvalues --    2.84024   2.84654   2.85319   2.86069   2.86736
 Alpha virt. eigenvalues --    2.88444   2.89318   2.91237   2.92093   2.92848
 Alpha virt. eigenvalues --    2.95056   2.95308   2.96491   2.99355   3.04867
 Alpha virt. eigenvalues --    3.07461   3.08051   3.11078   3.13353   3.15831
 Alpha virt. eigenvalues --    3.16553   3.20950   3.22736   3.28396   3.31808
 Alpha virt. eigenvalues --    3.42034   3.43108   3.48418   3.55572   3.61271
 Alpha virt. eigenvalues --    3.68555   3.72276
          Condensed to atoms (all electrons):
               1          2          3          4          5          6
     1  O    7.656328   0.769498  -0.109777   0.002157  -0.000045   0.000000
     2  C    0.769498   4.703669   0.326894  -0.038460   0.006165  -0.000372
     3  N   -0.109777   0.326894   6.621733   0.325214  -0.087573   0.008344
     4  C    0.002157  -0.038460   0.325214   5.328302   0.195912   0.136253
     5  C   -0.000045   0.006165  -0.087573   0.195912   5.199785   0.278838
     6  C    0.000000  -0.000372   0.008344   0.136253   0.278838   4.972515
     7  C    0.000000   0.000198  -0.000194  -0.207109   0.114654   0.308439
     8  Cl   0.000000  -0.000000   0.000001   0.001219   0.002784  -0.062498
     9  C   -0.000002   0.000867   0.008696   0.155120  -0.157526   0.085415
    10  C    0.000000  -0.000086  -0.000123   0.019030  -0.002506   0.013577
    11  C    0.000000  -0.000001   0.000001  -0.000707  -0.000021  -0.000269
    12  C   -0.000000  -0.000000   0.000000   0.000009   0.000001  -0.000007
    13  C   -0.000000  -0.000000   0.000000  -0.000000  -0.000000  -0.000002
    14  C   -0.000000  -0.000001  -0.000000   0.000010   0.000002   0.000004
    15  N   -0.000000  -0.000177   0.000020   0.000213  -0.000061  -0.000019
    16  C   -0.000090  -0.019709  -0.080404   0.159864   0.074045  -0.123765
    17  C   -0.089614   0.116947  -0.169682   0.010026   0.001688  -0.000162
    18  C   -0.001808  -0.051333  -0.001073   0.003225  -0.000334   0.000032
    19  Cl  -0.001885   0.011211  -0.001679  -0.000308  -0.000000  -0.000000
    20  C    0.000102   0.006262  -0.000040  -0.000227   0.000001  -0.000000
    21  C   -0.004690  -0.044873  -0.007080   0.000388  -0.002726   0.000431
    22  C    0.000006   0.004959   0.000998  -0.002158   0.000036  -0.000018
    23  C   -0.000054   0.000553  -0.000111   0.000309  -0.000023   0.000007
    24  S   -0.000000   0.000013   0.000000  -0.000001   0.000000  -0.000000
    25  N    0.000000  -0.000000  -0.000000  -0.000000   0.000000  -0.000000
    26  C   -0.000000  -0.000001   0.000000  -0.000000   0.000000   0.000000
    27  N    0.000000   0.000000  -0.000000   0.000000  -0.000000   0.000000
    28  H    0.008490  -0.010107   0.329479  -0.018468  -0.014305   0.000615
    29  H   -0.000054  -0.000544  -0.008632  -0.085655   0.452037  -0.058796
    30  H   -0.000000   0.000001  -0.000143   0.015918  -0.061278   0.443428
    31  H    0.000000   0.000000  -0.000000   0.000039  -0.000015  -0.000002
    32  H   -0.000000  -0.000000   0.000000  -0.000000  -0.000000  -0.000000
    33  H    0.000000   0.000000  -0.000000   0.000000   0.000000   0.000000
    34  H    0.000000   0.000001  -0.000000  -0.000006   0.000000  -0.000000
    35  H   -0.000170   0.001936  -0.007822  -0.099942   0.017026  -0.003587
    36  H    0.000004  -0.000106   0.000006   0.000004   0.000000  -0.000000
    37  H   -0.000122  -0.010221   0.002457   0.005511  -0.000676   0.000316
    38  H    0.000002  -0.000143  -0.000002  -0.000017   0.000006  -0.000004
    39  H   -0.000000  -0.000000   0.000000  -0.000000   0.000000  -0.000000
    40  H    0.000000   0.000000  -0.000000  -0.000000   0.000000  -0.000000
    41  H    0.000000   0.000000  -0.000000   0.000000   0.000000  -0.000000
    42  H   -0.000000  -0.000000  -0.000000   0.000000  -0.000000  -0.000000
    43  H   -0.000000  -0.000000   0.000000  -0.000000  -0.000000   0.000000
               7          8          9         10         11         12
     1  O    0.000000   0.000000  -0.000002   0.000000   0.000000  -0.000000
     2  C    0.000198  -0.000000   0.000867  -0.000086  -0.000001  -0.000000
     3  N   -0.000194   0.000001   0.008696  -0.000123   0.000001   0.000000
     4  C   -0.207109   0.001219   0.155120   0.019030  -0.000707   0.000009
     5  C    0.114654   0.002784  -0.157526  -0.002506  -0.000021   0.000001
     6  C    0.308439  -0.062498   0.085415   0.013577  -0.000269  -0.000007
     7  C    5.349129   0.251329   0.256108  -0.105171  -0.019588   0.000619
     8  Cl   0.251329  16.946093  -0.062384  -0.005721  -0.003279  -0.001244
     9  C    0.256108  -0.062384   5.412218   0.228151  -0.114229   0.009399
    10  C   -0.105171  -0.005721   0.228151   5.158968   0.412325  -0.002584
    11  C   -0.019588  -0.003279  -0.114229   0.412325   5.042431   0.420011
    12  C    0.000619  -0.001244   0.009399  -0.002584   0.420011   4.853725
    13  C   -0.000161  -0.000034   0.001772  -0.077072   0.018640   0.393502
    14  C   -0.000190   0.000015   0.009403  -0.051236  -0.085978  -0.001416
    15  N   -0.000513  -0.000350  -0.118661   0.559555  -0.052827  -0.045434
    16  C    0.072179   0.002108   0.305985  -0.069258   0.011406  -0.000468
    17  C    0.000224   0.000000  -0.002491  -0.000981  -0.000013   0.000001
    18  C   -0.000128   0.000000  -0.000138   0.000883  -0.000000  -0.000000
    19  Cl   0.000001   0.000000   0.000079  -0.000023   0.000000   0.000000
    20  C   -0.000005  -0.000000  -0.000630   0.000208   0.000029  -0.000000
    21  C   -0.000457   0.000001   0.002298   0.000080  -0.000020   0.000000
    22  C    0.000074  -0.000001  -0.000897  -0.000203   0.000046   0.000001
    23  C   -0.000028  -0.000000   0.000500   0.000077  -0.000010  -0.000008
    24  S    0.000000   0.000000   0.000015   0.000018  -0.000005   0.000000
    25  N   -0.000000  -0.000000  -0.000000  -0.000020   0.000001  -0.000011
    26  C   -0.000000  -0.000000  -0.000000  -0.000000  -0.000000   0.000000
    27  N   -0.000000  -0.000000  -0.000002   0.000006  -0.000001   0.000002
    28  H   -0.000015  -0.000000  -0.000160   0.000010  -0.000000   0.000000
    29  H    0.016438  -0.000165  -0.002237   0.000065   0.000002  -0.000000
    30  H   -0.074575   0.002152   0.018264  -0.000268   0.000013  -0.000000
    31  H   -0.002967   0.015474  -0.015062  -0.040667   0.416755  -0.048636
    32  H   -0.000002  -0.000010  -0.000476   0.012837  -0.059601   0.441148
    33  H    0.000001   0.000000   0.000105   0.000655   0.011787  -0.060323
    34  H    0.000030   0.000000   0.000066   0.005847   0.000250   0.007004
    35  H    0.022670  -0.000119  -0.057613  -0.032272   0.001343   0.000064
    36  H    0.000000  -0.000000  -0.000009  -0.000010  -0.000000   0.000000
    37  H   -0.000115  -0.000000  -0.000295   0.000049   0.000000   0.000000
    38  H    0.000004   0.000000  -0.000013  -0.000002   0.000000  -0.000000
    39  H    0.000000   0.000000   0.000000   0.000002   0.000000  -0.000002
    40  H    0.000000   0.000000  -0.000000   0.000000   0.000000  -0.000000
    41  H    0.000000   0.000000   0.000000   0.000000   0.000000  -0.000000
    42  H    0.000000   0.000000  -0.000000   0.000000  -0.000000   0.000000
    43  H    0.000000   0.000000  -0.000005  -0.000016  -0.000008   0.000003
              13         14         15         16         17         18
     1  O   -0.000000  -0.000000  -0.000000  -0.000090  -0.089614  -0.001808
     2  C   -0.000000  -0.000001  -0.000177  -0.019709   0.116947  -0.051333
     3  N    0.000000  -0.000000   0.000020  -0.080404  -0.169682  -0.001073
     4  C   -0.000000   0.000010   0.000213   0.159864   0.010026   0.003225
     5  C   -0.000000   0.000002  -0.000061   0.074045   0.001688  -0.000334
     6  C   -0.000002   0.000004  -0.000019  -0.123765  -0.000162   0.000032
     7  C   -0.000161  -0.000190  -0.000513   0.072179   0.000224  -0.000128
     8  Cl  -0.000034   0.000015  -0.000350   0.002108   0.000000   0.000000
     9  C    0.001772   0.009403  -0.118661   0.305985  -0.002491  -0.000138
    10  C   -0.077072  -0.051236   0.559555  -0.069258  -0.000981   0.000883
    11  C    0.018640  -0.085978  -0.052827   0.011406  -0.000013  -0.000000
    12  C    0.393502  -0.001416  -0.045434  -0.000468   0.000001  -0.000000
    13  C    5.029355   0.402617  -0.035888   0.000293  -0.000004  -0.000016
    14  C    0.402617   4.837056   0.508236   0.001155  -0.000114   0.000079
    15  N   -0.035888   0.508236   6.372263   0.000274  -0.000712  -0.001614
    16  C    0.000293   0.001155   0.000274   5.165460   0.016476  -0.011108
    17  C   -0.000004  -0.000114  -0.000712   0.016476   6.032657   0.171258
    18  C   -0.000016   0.000079  -0.001614  -0.011108   0.171258   5.291200
    19  Cl   0.000000   0.000004  -0.000030  -0.001068  -0.086649   0.282137
    20  C    0.000016   0.000973   0.006997   0.001728   0.094268   0.225526
    21  C   -0.000009   0.000071  -0.002597  -0.024578   0.228988   0.117936
    22  C    0.000059  -0.000276   0.009046   0.001660   0.123795  -0.171093
    23  C   -0.000090   0.001074  -0.006842  -0.001148  -0.224704   0.161047
    24  S   -0.000300   0.000852  -0.000878  -0.000009   0.000224   0.004369
    25  N    0.000766  -0.024771   0.000114   0.000000  -0.000032   0.002303
    26  C    0.000002  -0.000130   0.000001   0.000000  -0.000227  -0.000137
    27  N   -0.000038   0.000164  -0.000139  -0.000000  -0.000022   0.000020
    28  H   -0.000000   0.000000  -0.000000   0.007149   0.018075  -0.000391
    29  H    0.000000  -0.000000   0.000000   0.017766  -0.000199   0.000006
    30  H    0.000000  -0.000000   0.000005  -0.001832   0.000001  -0.000000
    31  H    0.011064   0.000068   0.005603  -0.000162  -0.000001   0.000000
    32  H   -0.063830   0.010679  -0.000106   0.000002  -0.000000  -0.000000
    33  H    0.425453  -0.045955   0.005853  -0.000002   0.000000   0.000000
    34  H   -0.060541   0.382754  -0.046711  -0.000137  -0.000100   0.000775
    35  H    0.000207  -0.000300   0.016364   0.469740   0.003756  -0.025408
    36  H    0.000012  -0.000371   0.000000  -0.000021   0.019184  -0.065766
    37  H   -0.000000  -0.000001   0.000032  -0.003253  -0.079823   0.016329
    38  H    0.000003   0.000033   0.000039   0.000162   0.015999  -0.002020
    39  H   -0.000237   0.001240   0.000035   0.000000   0.000007  -0.000048
    40  H   -0.000000   0.000004   0.000000  -0.000000   0.000004  -0.000002
    41  H   -0.000000   0.000003   0.000001  -0.000000   0.000043   0.000116
    42  H   -0.000000   0.000009  -0.000000   0.000000   0.000023  -0.000023
    43  H    0.000153   0.000789   0.000304   0.000000  -0.000004  -0.000031
              19         20         21         22         23         24
     1  O   -0.001885   0.000102  -0.004690   0.000006  -0.000054  -0.000000
     2  C    0.011211   0.006262  -0.044873   0.004959   0.000553   0.000013
     3  N   -0.001679  -0.000040  -0.007080   0.000998  -0.000111   0.000000
     4  C   -0.000308  -0.000227   0.000388  -0.002158   0.000309  -0.000001
     5  C   -0.000000   0.000001  -0.002726   0.000036  -0.000023   0.000000
     6  C   -0.000000  -0.000000   0.000431  -0.000018   0.000007  -0.000000
     7  C    0.000001  -0.000005  -0.000457   0.000074  -0.000028   0.000000
     8  Cl   0.000000  -0.000000   0.000001  -0.000001  -0.000000   0.000000
     9  C    0.000079  -0.000630   0.002298  -0.000897   0.000500   0.000015
    10  C   -0.000023   0.000208   0.000080  -0.000203   0.000077   0.000018
    11  C    0.000000   0.000029  -0.000020   0.000046  -0.000010  -0.000005
    12  C    0.000000  -0.000000   0.000000   0.000001  -0.000008   0.000000
    13  C    0.000000   0.000016  -0.000009   0.000059  -0.000090  -0.000300
    14  C    0.000004   0.000973   0.000071  -0.000276   0.001074   0.000852
    15  N   -0.000030   0.006997  -0.002597   0.009046  -0.006842  -0.000878
    16  C   -0.001068   0.001728  -0.024578   0.001660  -0.001148  -0.000009
    17  C   -0.086649   0.094268   0.228988   0.123795  -0.224704   0.000224
    18  C    0.282137   0.225526   0.117936  -0.171093   0.161047   0.004369
    19  Cl  16.904844  -0.065821   0.003823   0.000479   0.004493  -0.000030
    20  C   -0.065821   5.111973  -0.118994   0.075439   0.193183  -0.037269
    21  C    0.003823  -0.118994   5.021348   0.240858   0.130123   0.002679
    22  C    0.000479   0.075439   0.240858   5.170624   0.164067  -0.055341
    23  C    0.004493   0.193183   0.130123   0.164067   5.948304   0.123497
    24  S   -0.000030  -0.037269   0.002679  -0.055341   0.123497  14.631955
    25  N   -0.000005   0.000982  -0.000038   0.007283  -0.102424   0.355854
    26  C    0.000004  -0.008101  -0.000577  -0.000998  -0.109689   0.284997
    27  N    0.000000   0.004389   0.001616   0.008468  -0.070394   0.358167
    28  H   -0.000011   0.000003   0.000037   0.000017   0.000007   0.000000
    29  H    0.000000   0.000000   0.000030   0.000004  -0.000000   0.000000
    30  H   -0.000000   0.000000  -0.000004  -0.000000  -0.000000  -0.000000
    31  H   -0.000000  -0.000000   0.000001  -0.000001   0.000001   0.000000
    32  H   -0.000000   0.000000  -0.000000   0.000000   0.000000  -0.000000
    33  H   -0.000000  -0.000002   0.000000  -0.000001   0.000007   0.000018
    34  H    0.000019  -0.004210   0.000004  -0.000685  -0.007989   0.000221
    35  H    0.008677   0.000811  -0.009514   0.002832  -0.002678  -0.000006
    36  H    0.002040   0.442233  -0.002571   0.013818  -0.061881  -0.011955
    37  H   -0.000110  -0.002082   0.462218  -0.068826   0.016586  -0.000173
    38  H    0.000011   0.013092  -0.052445   0.443828  -0.082205  -0.007903
    39  H   -0.000001  -0.000326  -0.000007  -0.000351   0.012070  -0.014844
    40  H   -0.000000   0.000045  -0.000003   0.000018   0.007308  -0.008315
    41  H   -0.000007   0.003095   0.000002  -0.001161   0.004269  -0.014728
    42  H    0.000000   0.000221   0.000222   0.002701   0.001183  -0.005683
    43  H    0.000000  -0.000166  -0.000130  -0.000333  -0.001692  -0.013799
              25         26         27         28         29         30
     1  O    0.000000  -0.000000   0.000000   0.008490  -0.000054  -0.000000
     2  C   -0.000000  -0.000001   0.000000  -0.010107  -0.000544   0.000001
     3  N   -0.000000   0.000000  -0.000000   0.329479  -0.008632  -0.000143
     4  C   -0.000000  -0.000000   0.000000  -0.018468  -0.085655   0.015918
     5  C    0.000000   0.000000  -0.000000  -0.014305   0.452037  -0.061278
     6  C   -0.000000   0.000000   0.000000   0.000615  -0.058796   0.443428
     7  C   -0.000000  -0.000000  -0.000000  -0.000015   0.016438  -0.074575
     8  Cl  -0.000000  -0.000000  -0.000000  -0.000000  -0.000165   0.002152
     9  C   -0.000000  -0.000000  -0.000002  -0.000160  -0.002237   0.018264
    10  C   -0.000020  -0.000000   0.000006   0.000010   0.000065  -0.000268
    11  C    0.000001  -0.000000  -0.000001  -0.000000   0.000002   0.000013
    12  C   -0.000011   0.000000   0.000002   0.000000  -0.000000  -0.000000
    13  C    0.000766   0.000002  -0.000038  -0.000000   0.000000   0.000000
    14  C   -0.024771  -0.000130   0.000164   0.000000  -0.000000  -0.000000
    15  N    0.000114   0.000001  -0.000139  -0.000000   0.000000   0.000005
    16  C    0.000000   0.000000  -0.000000   0.007149   0.017766  -0.001832
    17  C   -0.000032  -0.000227  -0.000022   0.018075  -0.000199   0.000001
    18  C    0.002303  -0.000137   0.000020  -0.000391   0.000006  -0.000000
    19  Cl  -0.000005   0.000004   0.000000  -0.000011   0.000000  -0.000000
    20  C    0.000982  -0.008101   0.004389   0.000003   0.000000   0.000000
    21  C   -0.000038  -0.000577   0.001616   0.000037   0.000030  -0.000004
    22  C    0.007283  -0.000998   0.008468   0.000017   0.000004  -0.000000
    23  C   -0.102424  -0.109689  -0.070394   0.000007  -0.000000  -0.000000
    24  S    0.355854   0.284997   0.358167   0.000000   0.000000  -0.000000
    25  N    6.844257  -0.043211  -0.041935   0.000000   0.000000  -0.000000
    26  C   -0.043211   4.921686  -0.093631  -0.000000  -0.000000   0.000000
    27  N   -0.041935  -0.093631   6.883806   0.000000   0.000000   0.000000
    28  H    0.000000  -0.000000   0.000000   0.527193   0.004372  -0.000026
    29  H    0.000000  -0.000000   0.000000   0.004372   0.675727  -0.013488
    30  H   -0.000000   0.000000   0.000000  -0.000026  -0.013488   0.657095
    31  H   -0.000000  -0.000000   0.000000  -0.000000   0.000000   0.000008
    32  H    0.000000   0.000000  -0.000000  -0.000000  -0.000000   0.000000
    33  H    0.000037  -0.000000  -0.000004   0.000000  -0.000000  -0.000000
    34  H    0.062000   0.001039  -0.000355   0.000000  -0.000000  -0.000000
    35  H    0.000003   0.000001  -0.000002  -0.000503  -0.000232   0.000025
    36  H    0.026434   0.000389   0.000404  -0.000000   0.000000   0.000000
    37  H    0.000001   0.000017  -0.000008  -0.000341   0.000056   0.000000
    38  H    0.000765  -0.000188   0.024183  -0.000001   0.000000   0.000000
    39  H    0.327529  -0.006669  -0.000024  -0.000000  -0.000000  -0.000000
    40  H    0.000054   0.365852   0.006907   0.000000   0.000000   0.000000
    41  H    0.003229   0.366264   0.005851  -0.000000  -0.000000   0.000000
    42  H    0.003289   0.359377   0.004011  -0.000000  -0.000000   0.000000
    43  H   -0.001959   0.007744   0.334344  -0.000000   0.000000   0.000000
              31         32         33         34         35         36
     1  O    0.000000  -0.000000   0.000000   0.000000  -0.000170   0.000004
     2  C    0.000000  -0.000000   0.000000   0.000001   0.001936  -0.000106
     3  N   -0.000000   0.000000  -0.000000  -0.000000  -0.007822   0.000006
     4  C    0.000039  -0.000000   0.000000  -0.000006  -0.099942   0.000004
     5  C   -0.000015  -0.000000   0.000000   0.000000   0.017026   0.000000
     6  C   -0.000002  -0.000000   0.000000  -0.000000  -0.003587  -0.000000
     7  C   -0.002967  -0.000002   0.000001   0.000030   0.022670   0.000000
     8  Cl   0.015474  -0.000010   0.000000   0.000000  -0.000119  -0.000000
     9  C   -0.015062  -0.000476   0.000105   0.000066  -0.057613  -0.000009
    10  C   -0.040667   0.012837   0.000655   0.005847  -0.032272  -0.000010
    11  C    0.416755  -0.059601   0.011787   0.000250   0.001343  -0.000000
    12  C   -0.048636   0.441148  -0.060323   0.007004   0.000064   0.000000
    13  C    0.011064  -0.063830   0.425453  -0.060541   0.000207   0.000012
    14  C    0.000068   0.010679  -0.045955   0.382754  -0.000300  -0.000371
    15  N    0.005603  -0.000106   0.005853  -0.046711   0.016364   0.000000
    16  C   -0.000162   0.000002  -0.000002  -0.000137   0.469740  -0.000021
    17  C   -0.000001  -0.000000   0.000000  -0.000100   0.003756   0.019184
    18  C    0.000000  -0.000000   0.000000   0.000775  -0.025408  -0.065766
    19  Cl  -0.000000  -0.000000  -0.000000   0.000019   0.008677   0.002040
    20  C   -0.000000   0.000000  -0.000002  -0.004210   0.000811   0.442233
    21  C    0.000001  -0.000000   0.000000   0.000004  -0.009514  -0.002571
    22  C   -0.000001   0.000000  -0.000001  -0.000685   0.002832   0.013818
    23  C    0.000001   0.000000   0.000007  -0.007989  -0.002678  -0.061881
    24  S    0.000000  -0.000000   0.000018   0.000221  -0.000006  -0.011955
    25  N   -0.000000   0.000000   0.000037   0.062000   0.000003   0.026434
    26  C   -0.000000   0.000000  -0.000000   0.001039   0.000001   0.000389
    27  N    0.000000  -0.000000  -0.000004  -0.000355  -0.000002   0.000404
    28  H   -0.000000  -0.000000   0.000000   0.000000  -0.000503  -0.000000
    29  H    0.000000  -0.000000  -0.000000  -0.000000  -0.000232   0.000000
    30  H    0.000008   0.000000  -0.000000  -0.000000   0.000025   0.000000
    31  H    0.652613  -0.010998  -0.000157   0.000070  -0.000140  -0.000000
    32  H   -0.010998   0.656193  -0.011181  -0.000255   0.000003   0.000000
    33  H   -0.000157  -0.011181   0.658492  -0.007263  -0.000009  -0.000002
    34  H    0.000070  -0.000255  -0.007263   0.650929  -0.000241   0.001099
    35  H   -0.000140   0.000003  -0.000009  -0.000241   0.679195   0.000122
    36  H   -0.000000   0.000000  -0.000002   0.001099   0.000122   0.606750
    37  H    0.000000  -0.000000  -0.000000   0.000003  -0.000165   0.000020
    38  H   -0.000000   0.000000   0.000000  -0.000068  -0.000001  -0.000314
    39  H    0.000000  -0.000000   0.000045  -0.002990   0.000000  -0.000940
    40  H   -0.000000  -0.000000   0.000000  -0.000045  -0.000000  -0.000070
    41  H   -0.000000  -0.000000   0.000000  -0.000042   0.000000   0.000492
    42  H    0.000000  -0.000000  -0.000000  -0.000051  -0.000000  -0.000013
    43  H   -0.000000   0.000000  -0.000008   0.002105   0.000002  -0.000029
              37         38         39         40         41         42
     1  O   -0.000122   0.000002  -0.000000   0.000000   0.000000  -0.000000
     2  C   -0.010221  -0.000143  -0.000000   0.000000   0.000000  -0.000000
     3  N    0.002457  -0.000002   0.000000  -0.000000  -0.000000  -0.000000
     4  C    0.005511  -0.000017  -0.000000  -0.000000   0.000000   0.000000
     5  C   -0.000676   0.000006   0.000000   0.000000   0.000000  -0.000000
     6  C    0.000316  -0.000004  -0.000000  -0.000000  -0.000000  -0.000000
     7  C   -0.000115   0.000004   0.000000   0.000000   0.000000   0.000000
[...]
    25  N   -0.000000   0.000002   0.000310   0.013030   0.000051   0.021740
    26  C   -0.000000   0.000000   0.000000   0.000497   0.000005   0.001565
    27  N    0.000000  -0.000000  -0.000002   0.001001  -0.000046   0.000754
    28  H   -0.000000  -0.000000   0.000000  -0.000000  -0.000307  -0.000001
    29  H    0.000000  -0.000000   0.000000  -0.000000  -0.000216  -0.000000
    30  H    0.000044   0.000000  -0.000000   0.000000   0.000047  -0.000000
    31  H    0.526495  -0.007987   0.000028   0.000125  -0.000203  -0.000000
    32  H   -0.007987   0.541551  -0.007966  -0.000262   0.000019   0.000000
    33  H    0.000028  -0.007966   0.546272  -0.001474  -0.000020  -0.000003
    34  H    0.000125  -0.000262  -0.001474   0.495690  -0.000221   0.000676
    35  H   -0.000203   0.000019  -0.000020  -0.000221   0.539357   0.000186
    36  H   -0.000000   0.000000  -0.000003   0.000676   0.000186   0.475991
    37  H    0.000000  -0.000000  -0.000000   0.000001  -0.000173   0.000055
    38  H   -0.000000   0.000000   0.000000  -0.000064   0.000186  -0.000168
    39  H    0.000000  -0.000000   0.000036  -0.001042   0.000000  -0.001385
    40  H   -0.000000  -0.000000   0.000000  -0.000025   0.000000  -0.000116
    41  H    0.000000  -0.000000   0.000000  -0.000016   0.000001   0.000231
    42  H    0.000000  -0.000000  -0.000000  -0.000011  -0.000002  -0.000173
    43  H   -0.000002   0.000002  -0.000019  -0.000108   0.000004   0.000009
              37         38         39         40         41         42
     1  O   -0.000504   0.000006  -0.000000   0.000000   0.000000  -0.000000
     2  C   -0.005823   0.000159  -0.000000   0.000000  -0.000001   0.000004
     3  N    0.005749  -0.000013   0.000000  -0.000000  -0.000000   0.000000
     4  C    0.001917  -0.000201  -0.000000  -0.000000   0.000000   0.000001
     5  C    0.000079   0.000016   0.000000   0.000000   0.000000  -0.000000
     6  C    0.000842  -0.000018  -0.000000  -0.000000  -0.000000   0.000000
     7  C   -0.000236   0.000097   0.000000   0.000000   0.000000  -0.000000
     8  Cl  -0.000001  -0.000000   0.000000  -0.000000  -0.000000   0.000000
     9  C   -0.000633   0.000078   0.000002   0.000000   0.000000  -0.000000
    10  C    0.000079   0.000039  -0.000003  -0.000000  -0.000001  -0.000000
    11  C    0.000004  -0.000006   0.000003   0.000000   0.000000   0.000000
    12  C   -0.000000   0.000002  -0.000018  -0.000000  -0.000000  -0.000000
    13  C   -0.000000  -0.000002  -0.000156   0.000001   0.000001   0.000001
    14  C    0.000016  -0.000304   0.000614   0.000003  -0.000008   0.000028
    15  N   -0.000004  -0.000056   0.000010   0.000001   0.000002  -0.000010
    16  C   -0.005630   0.000083  -0.000000   0.000000  -0.000001   0.000001
    17  C   -0.054762   0.016795  -0.000024  -0.000012   0.000020  -0.000299
    18  C    0.009318  -0.004801  -0.000128   0.000066  -0.000472   0.000283
    19  Cl  -0.000181   0.000026  -0.000005  -0.000000  -0.000010   0.000001
    20  C   -0.000767   0.008166  -0.002517  -0.000643  -0.005502   0.001539
    21  C    0.431222  -0.066068   0.000070   0.000034  -0.000164   0.001084
    22  C   -0.055354   0.453560  -0.001154  -0.000256   0.003835  -0.012189
    23  C    0.011780  -0.077042   0.018020   0.007447   0.006862   0.013699
    24  S   -0.000289  -0.002164  -0.014801  -0.015299  -0.025180  -0.015784
    25  N   -0.000004   0.002395   0.308090   0.000220   0.002750   0.004026
    26  C    0.000017  -0.001851  -0.008032   0.374898   0.382956   0.365242
    27  N    0.000037   0.020126  -0.000883   0.004913   0.005491   0.002844
    28  H   -0.000123  -0.000003   0.000000  -0.000000  -0.000000   0.000000
    29  H    0.000105  -0.000000   0.000000   0.000000   0.000000  -0.000000
    30  H   -0.000007   0.000000  -0.000000   0.000000  -0.000000   0.000000
    31  H    0.000000  -0.000000   0.000000  -0.000000   0.000000   0.000000
    32  H   -0.000000   0.000000  -0.000000  -0.000000  -0.000000  -0.000000
    33  H   -0.000000   0.000000   0.000036   0.000000   0.000000  -0.000000
    34  H    0.000001  -0.000064  -0.001042  -0.000025  -0.000016  -0.000011
    35  H   -0.000173   0.000186   0.000000   0.000000   0.000001  -0.000002
    36  H    0.000055  -0.000168  -0.001385  -0.000116   0.000231  -0.000173
    37  H    0.532779  -0.006982  -0.000001  -0.000001  -0.000002   0.000017
    38  H   -0.006982   0.501268  -0.000065  -0.000116   0.000318  -0.001129
    39  H   -0.000001  -0.000065   0.482913   0.001883  -0.000074   0.000183
    40  H   -0.000001  -0.000116   0.001883   0.499881  -0.014780  -0.011376
    41  H   -0.000002   0.000318  -0.000074  -0.014780   0.502402  -0.016709
    42  H    0.000017  -0.001129   0.000183  -0.011376  -0.016709   0.512496
    43  H    0.000007  -0.002610   0.000126  -0.000429  -0.000454  -0.000547
              43
     1  O   -0.000000
     2  C    0.000001
     3  N   -0.000000
     4  C   -0.000003
     5  C    0.000001
     6  C   -0.000002
     7  C    0.000005
     8  Cl   0.000001
     9  C   -0.000024
    10  C    0.000158
    11  C   -0.000117
    12  C    0.000120
    13  C   -0.000659
    14  C    0.002835
    15  N    0.001728
    16  C    0.000017
    17  C    0.000022
    18  C    0.000036
    19  Cl   0.000000
    20  C    0.001701
    21  C   -0.000246
    22  C   -0.002952
    23  C   -0.000338
    24  S   -0.024576
    25  N   -0.001802
    26  C    0.010245
    27  N    0.327735
    28  H   -0.000000
    29  H    0.000000
    30  H   -0.000000
    31  H   -0.000002
    32  H    0.000002
    33  H   -0.000019
    34  H   -0.000108
    35  H    0.000004
    36  H    0.000009
    37  H    0.000007
    38  H   -0.002610
    39  H    0.000126
    40  H   -0.000429
    41  H   -0.000454
    42  H   -0.000547
    43  H    0.465162
 Mulliken charges:
               1
     1  O   -0.303287
     2  C    0.185549
     3  N   -0.229458
     4  C    0.272849
     5  C   -0.243989
     6  C   -0.189110
     7  C    0.048843
     8  Cl  -0.100232
     9  C    0.132517
    10  C    0.189784
    11  C   -0.189426
    12  C   -0.128349
    13  C   -0.081307
    14  C   -0.097756
    15  N   -0.254340
    16  C   -0.254625
    17  C   -0.029107
    18  C    0.192798
    19  Cl  -0.079904
    20  C   -0.316860
    21  C   -0.028863
    22  C   -0.252020
    23  C    0.185228
    24  S    0.472261
    25  N   -0.586573
    26  C   -0.341012
    27  N   -0.554349
    28  H    0.238001
    29  H    0.122698
    30  H    0.130718
    31  H    0.143332
    32  H    0.129284
    33  H    0.129321
    34  H    0.160902
    35  H    0.148563
    36  H    0.167823
    37  H    0.137454
    38  H    0.160344
    39  H    0.218337
    40  H    0.153706
    41  H    0.158506
    42  H    0.156780
    43  H    0.224970
 Sum of Mulliken charges =  -0.00000
 Mulliken charges with hydrogens summed into heavy atoms:
               1
     1  O   -0.303287
     2  C    0.185549
     3  N    0.008542
     4  C    0.272849
     5  C   -0.121291
     6  C   -0.058392
     7  C    0.048843
     8  Cl  -0.100232
     9  C    0.132517
    10  C    0.189784
    11  C   -0.046094
    12  C    0.000935
    13  C    0.048014
    14  C    0.063146
    15  N   -0.254340
    16  C   -0.106061
    17  C   -0.029107
    18  C    0.192798
    19  Cl  -0.079904
    20  C   -0.149037
    21  C    0.108591
    22  C   -0.091675
    23  C    0.185228
    24  S    0.472261
    25  N   -0.368236
    26  C    0.127980
    27  N   -0.329379
 Electronic spatial extent (au):  <R**2>=          10907.7620
 Charge=             -0.0000 electrons
 Dipole moment (field-independent basis, Debye):
    X=             -1.2648    Y=             -1.7966    Z=             -0.9889  Tot=              2.4095
 Quadrupole moment (field-independent basis, Debye-Ang):
   XX=           -158.8114   YY=           -181.1852   ZZ=           -176.7128
   XY=            -11.8930   XZ=             -3.7690   YZ=            -15.4334
 Traceless Quadrupole moment (field-independent basis, Debye-Ang):
   XX=             13.4250   YY=             -8.9487   ZZ=             -4.4763
   XY=            -11.8930   XZ=             -3.7690   YZ=            -15.4334
 Octapole moment (field-independent basis, Debye-Ang**2):
  XXX=             71.7284  YYY=           -111.5616  ZZZ=              7.0485  XYY=            -70.8010
  XXY=              1.4714  XXZ=            -30.1197  XZZ=             -8.7146  YZZ=             15.8151
  YYZ=             25.6989  XYZ=             13.1642
 Hexadecapole moment (field-independent basis, Debye-Ang**3):
 XXXX=          -6887.3648 YYYY=          -5539.3867 ZZZZ=          -1900.8634 XXXY=           -162.4592
 XXXZ=            -84.2850 YYYX=           -224.9694 YYYZ=           -199.1112 ZZZX=             53.1359
 ZZZY=            -11.1388 XXYY=          -1969.5404 XXZZ=          -1515.3133 YYZZ=          -1174.6012
 XXYZ=            -64.8971 YYXZ=             36.4234 ZZXY=             54.9614
 N-N= 2.984866174486D+03 E-N=-1.149422033211D+04  KE= 2.338139017858D+03
 Breneman (CHELPG) radii used.
 Read replacement radii for each type of atom:
 Atom Element Radius
    1     8    1.70
    2     6    1.50
    3     7    1.70
    4     6    1.50
    5     6    1.50
    6     6    1.50
    7     6    1.50
    8    17    2.00
    9     6    1.50
   10     6    1.50
   11     6    1.50
   12     6    1.50
   13     6    1.50
   14     6    1.50
   15     7    1.70
   16     6    1.50
   17     6    1.50
   18     6    1.50
   19    17    2.00
   20     6    1.50
   21     6    1.50
   22     6    1.50
   23     6    1.50
   24    16    2.00
   25     7    1.70
   26     6    1.50
   27     7    1.70
   28     1    1.45
   29     1    1.45
   30     1    1.45
   31     1    1.45
   32     1    1.45
   33     1    1.45
   34     1    1.45
   35     1    1.45
   36     1    1.45
   37     1    1.45
   38     1    1.45
   39     1    1.45
   40     1    1.45
   41     1    1.45
   42     1    1.45
   43     1    1.45
 Generate Potential Derived Charges using the Breneman model, NDens= 1.
 Grid spacing= 0.300 Box extension= 2.800
 NStep X,Y,Z=   54     50     37   Total possible points=       99900
 Number of Points to Fit=   23462

 **********************************************************************

            Electrostatic Properties Using The SCF Density.

 **********************************************************************

       Atomic Center    1 is at   0.581868  4.570158  0.198005
       Atomic Center    2 is at   0.091688  3.480736  0.008292
       Atomic Center    3 is at  -1.269142  3.315650 -0.096129
       Atomic Center    4 is at  -2.024997  2.144597 -0.258007
       Atomic Center    5 is at  -3.190254  2.182502 -1.033562
       Atomic Center    6 is at  -3.927705  1.024467 -1.236590
       Atomic Center    7 is at  -3.508073 -0.189338 -0.690650
       Atomic Center    8 is at  -4.428882 -1.604111 -1.098829
       Atomic Center    9 is at  -2.356056 -0.251228  0.108711
       Atomic Center   10 is at  -1.784706 -1.481409  0.718557
       Atomic Center   11 is at  -2.570939 -2.477811  1.311282
       Atomic Center   12 is at  -1.935470 -3.568906  1.895804
       Atomic Center   13 is at  -0.545525 -3.634339  1.875611
       Atomic Center   14 is at   0.155489 -2.586475  1.277429
       Atomic Center   15 is at  -0.448258 -1.542801  0.716971
       Atomic Center   16 is at  -1.651209  0.936815  0.329408
       Atomic Center   17 is at   0.928405  2.247824 -0.195906
       Atomic Center   18 is at   1.710602  1.719697  0.837675
       Atomic Center   19 is at   1.666999  2.436125  2.410935
       Atomic Center   20 is at   2.457496  0.559643  0.651055
       Atomic Center   21 is at   0.918660  1.604942 -1.436398
       Atomic Center   22 is at   1.656296  0.446257 -1.642558
       Atomic Center   23 is at   2.414528 -0.058299 -0.591542
       Atomic Center   24 is at   3.256161 -1.621394 -0.885381
       Atomic Center   25 is at   3.521063 -2.098762  0.570334
       Atomic Center   26 is at   4.749980 -1.077657 -1.717009
       Atomic Center   27 is at   2.591890 -2.461571 -2.003932
       Atomic Center   28 is at  -1.769481  4.199310 -0.093461
       Atomic Center   29 is at  -3.508894  3.118889 -1.497851
       Atomic Center   30 is at  -4.825603  1.043020 -1.855950
       Atomic Center   31 is at  -3.657095 -2.392218  1.322393
       Atomic Center   32 is at  -2.525390 -4.357235  2.369877
       Atomic Center   33 is at  -0.008153 -4.473358  2.322244
       Atomic Center   34 is at   1.253338 -2.581446  1.244371
       Atomic Center   35 is at  -0.776064  0.877585  0.972329
       Atomic Center   36 is at   3.027028  0.109511  1.464454
       Atomic Center   37 is at   0.290647  2.002350 -2.236967
       Atomic Center   38 is at   1.618248 -0.099503 -2.588385
       Atomic Center   39 is at   3.965891 -3.018695  0.517506
       Atomic Center   40 is at   5.319651 -1.990374 -1.937124
       Atomic Center   41 is at   5.295442 -0.424126 -1.025754
       Atomic Center   42 is at   4.488539 -0.561315 -2.648335
       Atomic Center   43 is at   1.712245 -2.835321 -1.633421
   23462 points will be used for fitting atomic charges
 Fitting point charges to electrostatic potential
 Charges from ESP fit, RMS=   0.00396 RRMS=   0.26441:
 ESP charges:
               1
     1  O   -0.549787
     2  C    0.634085
     3  N   -0.555092
     4  C    0.325215
     5  C   -0.254102
     6  C   -0.070052
     7  C    0.040035
     8  Cl  -0.110894
     9  C   -0.008364
    10  C    0.377182
    11  C   -0.283694
    12  C    0.084080
    13  C   -0.300657
    14  C    0.302181
    15  N   -0.435485
    16  C   -0.198390
    17  C    0.007979
    18  C    0.010569
    19  Cl  -0.067699
    20  C   -0.022107
    21  C   -0.077055
    22  C   -0.183411
    23  C    0.064769
    24  S    0.685678
    25  N   -0.698378
    26  C   -0.350084
    27  N   -0.738442
    28  H    0.328910
    29  H    0.147030
    30  H    0.106460
    31  H    0.118360
    32  H    0.085442
    33  H    0.131234
    34  H    0.008256
    35  H    0.091147
    36  H    0.087357
    37  H    0.092232
    38  H    0.151771
    39  H    0.311610
    40  H    0.167269
    41  H    0.104482
    42  H    0.138192
    43  H    0.302169
 Sum of ESP charges =  -0.00000
 ESP charges with hydrogens summed into heavy atoms:
               1
     1  O   -0.549787
     2  C    0.634085
     3  N   -0.226182
     4  C    0.325215
     5  C   -0.107072
     6  C    0.036407
     7  C    0.040035
     8  Cl  -0.110894
     9  C   -0.008364
    10  C    0.377182
    11  C   -0.165334
    12  C    0.169522
    13  C   -0.169423
    14  C    0.310436
    15  N   -0.435485
    16  C   -0.107244
    17  C    0.007979
    18  C    0.010569
    19  Cl  -0.067699
    20  C    0.065251
    21  C    0.015177
    22  C   -0.031640
    23  C    0.064769
    24  S    0.685678
    25  N   -0.386768
    26  C    0.059859
    27  N   -0.436273
 Charge=  -0.00000 Dipole=    -1.2670    -1.7717    -0.9436 Tot=     2.3738
 -----------------------------------------------------------------

              Electrostatic Properties (Atomic Units)

 -----------------------------------------------------------------
    Center     Electric         -------- Electric Field --------
               Potential          X             Y             Z
 -----------------------------------------------------------------
    1 Atom    -22.370534
    2 Atom    -14.644559
    3 Atom    -18.321769
    4 Atom    -14.696159
    5 Atom    -14.738730
    6 Atom    -14.738666
    7 Atom    -14.687684
    8 Atom    -64.412947
    9 Atom    -14.728243
   10 Atom    -14.710275
   11 Atom    -14.749372
   12 Atom    -14.740798
   13 Atom    -14.751519
   14 Atom    -14.732782
   15 Atom    -18.383829
   16 Atom    -14.747246
   17 Atom    -14.722131
   18 Atom    -14.680884
   19 Atom    -64.413993
   20 Atom    -14.735324
   21 Atom    -14.733022
   22 Atom    -14.737208
   23 Atom    -14.719287
   24 Atom    -59.066370
   25 Atom    -18.416844
   26 Atom    -14.729329
   27 Atom    -18.419396
   28 Atom     -0.995740
   29 Atom     -1.073490
   30 Atom     -1.078737
   31 Atom     -1.088848
   32 Atom     -1.084662
   33 Atom     -1.088089
   34 Atom     -1.105660
   35 Atom     -1.089034
   36 Atom     -1.079553
   37 Atom     -1.077369
   38 Atom     -1.079121
   39 Atom     -1.040980
   40 Atom     -1.068379
   41 Atom     -1.071913
   42 Atom     -1.071097
   43 Atom     -1.045705
 -----------------------------------------------------------------
 Unable to Open any file for archive entry.
 1\1\GINC-NOTCH156\SP\RPBE1PBE\def2TZVP\C19H16Cl2N4O1S1\U1414944\14-Oct
 -2025\0\\#N Guess=Read Geom=Check Integral(Ultrafine) Density Pop=(Che
 lpG,ReadRadii) NMR pbe1pbe EmpiricalDispersion=GD3BJ def2TZVP\\SDI-dru
 g_9\\0,1\O,0,0.5229736238,-4.5013770538,0.7189893883\C,0,0.6986338266,
 -3.369698961,0.3296863024\N,0,1.9362176433,-2.9389642037,-0.0860897444
 \C,0,2.3513338063,-1.6687871957,-0.5141261091\C,0,3.3194548992,-1.5670
 694272,-1.5206751819\C,0,3.7120744086,-0.3189630962,-1.9834710037\C,0,
 3.1350149062,0.8428115407,-1.4689368685\Cl,0,3.6024522029,2.3499554872
 ,-2.1942647588\C,0,2.1785364766,0.7703374328,-0.4443155847\C,0,1.46554
 42036,1.9248923242,0.1642429368\C,0,2.0971749992,3.1352003493,0.478087
 7277\C,0,1.3506530946,4.1381974186,1.0885598825\C,0,0.0072565832,3.907
 5746002,1.3691554425\C,0,-0.5322306298,2.6645495746,1.0358324215\N,0,0
 .1776757617,1.7041026609,0.4514938064\C,0,1.8274242011,-0.4975842342,0
 .0311393984\C,0,-0.4261568165,-2.3790761765,0.2056846169\C,0,-1.093637
 5086,-1.8906993626,1.3348433766\Cl,0,-0.5787498,-2.3607698383,2.917323
 0108\C,0,-2.1124198975,-0.949404478,1.2146326208\C,0,-0.8083142656,-1.
 9236740417,-1.0587423321\C,0,-1.8217581296,-0.9844302567,-1.1998503706
 \C,0,-2.4575102309,-0.5114768697,-0.0569321166\S,0,-3.6815335235,0.785
 5957932,-0.2963529543\N,0,-3.7622239644,1.3907596078,1.1334807596\C,0,
 -5.1394634822,-0.1672420985,-0.7268075916\N,0,-3.4624868226,1.58579241
 26,-1.604028151\H,0,2.6197770678,-3.689374621,-0.1149117865\H,0,3.7513
 940791,-2.4702624655,-1.9583830452\H,0,4.451348004,-0.2332325378,-2.78
 11530088\H,0,3.154096733,3.2814138008,0.2573566329\H,0,1.8207727096,5.
 0897307934,1.3489184345\H,0,-0.61376153,4.6682545052,1.8465512573\H,0,
 -1.5833970549,2.4251490013,1.2458955267\H,0,1.1049101306,-0.5359505974
 ,0.8430729224\H,0,-2.6019109737,-0.5220048679,2.0900359842\H,0,-0.2729
 258572,-2.2860213361,-1.9392583631\H,0,-2.0969501087,-0.5769655087,-2.
 1756231367\H,0,-4.4111272955,2.1810845206,1.0981230372\H,0,-5.93815911
 09,0.5671336375,-0.8965327189\H,0,-5.3720296003,-0.8200759959,0.123007
 4981\H,0,-4.9509642027,-0.7393788568,-1.6430254515\H,0,-2.6396722603,2
 .1824931098,-1.4711131647\\Version=ES64L-G16RevC.01\State=1-A\HF=-2345
 .2470856\RMSD=7.193e-09\Dipole=0.2333094,0.7356332,-0.5504929\Quadrupo
 le=12.5010074,-6.2594544,-6.241553,-2.0412211,-2.8937902,12.8620378\PG
 =C01 [X(C19H16Cl2N4O1S1)]\\@
 The archive entry for this job was punched.


 IF I AM NOT FOR MYSELF, WHO WILL BE?
 BUT IF I AM ONLY FOR MYSELF, WHAT AM I?
 THOUGH A SEEKER SINCE MY BIRTH,
 HERE IS ALL I'VE LEARNED ON EARTH,
 THIS IS THE GIST OF WHAT I KNOW:
 GIVE ADVICE AND BUY A FOE.

 PRESSED FOR RULES AND VERITIES,
 ALL I RECOLLECT ARE THESE:
 FEED A COLD TO STARVE A FEVER,
 ARGUE WITH NO TRUE-BELIEVER.
 THINK-TOO-LONG IS NEVER-ACT,
 SCRATCH A MYTH AND FIND A FACT.

 STITCH IN TIME SAVES TWENTY STITCHES,
 GIVE THE RICH TO PLEASE THEM, RICHES.
 GIVE TO LOVE YOU HEARTH AND HALL,
 BUT DO NOT GIVE ADVICE AT ALL.

                                  -- HILLEL
 Job cpu time:       0 days  4 hours 41 minutes 45.0 seconds.
 Elapsed time:       0 days  0 hours 19 minutes  2.5 seconds.
 File lengths (MBytes):  RWF=    525 Int=      0 D2E=      0 Chk=     83 Scr=      2
 Normal termination of Gaussian 16 at Tue Oct 14 00:35:55 2025.
