 Entering Gaussian System, Link 0=g16
 Input=Py1_1.com
 Output=Py1_1.log
 Initial command:
 /uufs/chpc.utah.edu/sys/installdir/gaussian16/C01/AVX/g16/l1.exe "/scratch/general/vast/u1112142/9381334-notchpeak.peaks/Gau-102957.inp" -scrdir="/scratch/general/vast/u1112142/9381334-notchpeak.peaks/"
 Entering Link 1 = /uufs/chpc.utah.edu/sys/installdir/gaussian16/C01/AVX/g16/l1.exe PID=    102958.
  
 Copyright (c) 1988-2019, Gaussian, Inc.  All Rights Reserved.
  
 This is part of the Gaussian(R) 16 program.  It is based on
 the Gaussian(R) 09 system (copyright 2009, Gaussian, Inc.),
 the Gaussian(R) 03 system (copyright 2003, Gaussian, Inc.),
 the Gaussian(R) 98 system (copyright 1998, Gaussian, Inc.),
 the Gaussian(R) 94 system (copyright 1995, Gaussian, Inc.),
 the Gaussian 92(TM) system (copyright 1992, Gaussian, Inc.),
 the Gaussian 90(TM) system (copyright 1990, Gaussian, Inc.),
 the Gaussian 88(TM) system (copyright 1988, Gaussian, Inc.),
 the Gaussian 86(TM) system (copyright 1986, Carnegie Mellon
 University), and the Gaussian 82(TM) system (copyright 1983,
 Carnegie Mellon University). Gaussian is a federally registered
 trademark of Gaussian, Inc.
  
 This software contains proprietary and confidential information,
 including trade secrets, belonging to Gaussian, Inc.
  
 This software is provided under written license and may be
 used, copied, transmitted, or stored only in accord with that
 written license.
  
 The following legend is applicable only to US Government
 contracts under FAR:
  
                    RESTRICTED RIGHTS LEGEND
  
 Use, reproduction and disclosure by the US Government is
 subject to restrictions as set forth in subparagraphs (a)
 and (c) of the Commercial Computer Software - Restricted
 Rights clause in FAR 52.227-19.
  
 Gaussian, Inc.
 340 Quinnipiac St., Bldg. 40, Wallingford CT 06492
  
  
 ---------------------------------------------------------------
 Warning -- This program may not be used in any manner that
 competes with the business of Gaussian, Inc. or will provide
 assistance to any competitor of Gaussian, Inc.  The licensee
 of this program is prohibited from giving any competitor of
 Gaussian, Inc. access to this program.  By using this program,
 the user acknowledges that Gaussian, Inc. is engaged in the
 business of creating and licensing software in the field of
 computational chemistry and represents and warrants to the
 licensee that it is not a competitor of Gaussian, Inc. and that
 it will not use this program in any manner prohibited above.
 ---------------------------------------------------------------
  

 Cite this work as:
 Gaussian 16, Revision C.01,
 M. J. Frisch, G. W. Trucks, H. B. Schlegel, G. E. Scuseria, 
 M. A. Robb, J. R. Cheeseman, G. Scalmani, V. Barone, 
 G. A. Petersson, H. Nakatsuji, X. Li, M. Caricato, A. V. Marenich, 
 J. Bloino, B. G. Janesko, R. Gomperts, B. Mennucci, H. P. Hratchian, 
 J. V. Ortiz, A. F. Izmaylov, J. L. Sonnenberg, D. Williams-Young, 
 F. Ding, F. Lipparini, F. Egidi, J. Goings, B. Peng, A. Petrone, 
 T. Henderson, D. Ranasinghe, V. G. Zakrzewski, J. Gao, N. Rega, 
 G. Zheng, W. Liang, M. Hada, M. Ehara, K. Toyota, R. Fukuda, 
 J. Hasegawa, M. Ishida, T. Nakajima, Y. Honda, O. Kitao, H. Nakai, 
 T. Vreven, K. Throssell, J. A. Montgomery, Jr., J. E. Peralta, 
 F. Ogliaro, M. J. Bearpark, J. J. Heyd, E. N. Brothers, K. N. Kudin, 
 V. N. Staroverov, T. A. Keith, R. Kobayashi, J. Normand, 
 K. Raghavachari, A. P. Rendell, J. C. Burant, S. S. Iyengar, 
 J. Tomasi, M. Cossi, J. M. Millam, M. Klene, C. Adamo, R. Cammi, 
 J. W. Ochterski, R. L. Martin, K. Morokuma, O. Farkas, 
 J. B. Foresman, and D. J. Fox, Gaussian, Inc., Wallingford CT, 2019.
 
 ******************************************
 Gaussian 16:  ES64L-G16RevC.01  3-Jul-2019
                18-Dec-2025 
 ******************************************
 %NProcShared=16
 Will use up to   16 processors via shared memory.
 %Mem=40GB
 %chk=Py1_1.chk
 ------------------------------------------------------
 #N OPT FREQ=NORAMAN Integral(Ultrafine) wB97XD def2SVP
 ------------------------------------------------------
 1/18=20,19=15,26=4,38=1/1,3;
 2/9=110,12=2,17=6,18=5,40=1/2;
 3/5=43,7=101,11=2,25=1,30=1,71=1,74=-58,75=-5/1,2,3;
 4//1;
 5/5=2,38=5/2;
 6/7=2,8=2,9=2,10=2,28=1/1;
 7//1,2,3,16;
 1/18=20,19=15,26=4/3(2);
 2/9=110/2;
 99//99;
 2/9=110/2;
 3/5=43,7=101,11=2,25=1,30=1,71=1,74=-58,75=-5/1,2,3;
 4/5=5,16=3,69=1/1;
 5/5=2,38=5/2;
 7//1,2,3,16;
 1/18=20,19=15,26=4/3(-5);
 2/9=110/2;
 6/7=2,8=2,9=2,10=2,19=2,28=1/1;
 99/9=1/99;
 -----
 Py1_1
 -----
 Symbolic Z-matrix:
 Charge =  0 Multiplicity = 1
 C                     0.6949   -1.1917    0.00003 
 C                     1.40073   0.00094   0. 
 C                     0.69323   1.19258  -0.00002 
 C                    -0.69245   1.13291   0.00004 
 N                    -1.37162  -0.00093   0. 
 C                    -0.69086  -1.13379  -0.00002 
 H                     1.20601  -2.14222   0.00001 
 H                     2.48157   0.00186  -0.00001 
 H                     1.20332   2.14369  -0.00023 
 H                    -1.29104   2.03482  -0.00005 
 H                    -1.28827  -2.0365   -0.00031 
 

 GradGradGradGradGradGradGradGradGradGradGradGradGradGradGradGradGradGrad
 Berny optimization.
 Initialization pass.
                           ----------------------------
                           !    Initial Parameters    !
                           ! (Angstroms and Degrees)  !
 --------------------------                            --------------------------
 ! Name  Definition              Value          Derivative Info.                !
 --------------------------------------------------------------------------------
 ! R1    R(1,2)                  1.3859         estimate D2E/DX2                !
 ! R2    R(1,6)                  1.387          estimate D2E/DX2                !
 ! R3    R(1,7)                  1.0792         estimate D2E/DX2                !
 ! R4    R(2,3)                  1.3858         estimate D2E/DX2                !
 ! R5    R(2,8)                  1.0808         estimate D2E/DX2                !
 ! R6    R(3,4)                  1.387          estimate D2E/DX2                !
 ! R7    R(3,9)                  1.0793         estimate D2E/DX2                !
 ! R8    R(4,5)                  1.3217         estimate D2E/DX2                !
 ! R9    R(4,10)                 1.0825         estimate D2E/DX2                !
 ! R10   R(5,6)                  1.3217         estimate D2E/DX2                !
 ! R11   R(6,11)                 1.0825         estimate D2E/DX2                !
 ! A1    A(2,1,6)              118.225          estimate D2E/DX2                !
 ! A2    A(2,1,7)              121.1144         estimate D2E/DX2                !
 ! A3    A(6,1,7)              120.6606         estimate D2E/DX2                !
 ! A4    A(1,2,3)              118.6836         estimate D2E/DX2                !
 ! A5    A(1,2,8)              120.6667         estimate D2E/DX2                !
 ! A6    A(3,2,8)              120.6497         estimate D2E/DX2                !
 ! A7    A(2,3,4)              118.2327         estimate D2E/DX2                !
 ! A8    A(2,3,9)              121.0965         estimate D2E/DX2                !
 ! A9    A(4,3,9)              120.6709         estimate D2E/DX2                !
 ! A10   A(3,4,5)              123.3873         estimate D2E/DX2                !
 ! A11   A(3,4,10)             121.1061         estimate D2E/DX2                !
 ! A12   A(5,4,10)             115.5065         estimate D2E/DX2                !
 ! A13   A(4,5,6)              118.0758         estimate D2E/DX2                !
 ! A14   A(1,6,5)              123.3955         estimate D2E/DX2                !
 ! A15   A(1,6,11)             121.1035         estimate D2E/DX2                !
 ! A16   A(5,6,11)             115.501          estimate D2E/DX2                !
 ! D1    D(6,1,2,3)              0.0027         estimate D2E/DX2                !
 ! D2    D(6,1,2,8)           -179.9971         estimate D2E/DX2                !
 ! D3    D(7,1,2,3)            179.9977         estimate D2E/DX2                !
 ! D4    D(7,1,2,8)             -0.0021         estimate D2E/DX2                !
 ! D5    D(2,1,6,5)             -0.0049         estimate D2E/DX2                !
 ! D6    D(2,1,6,11)           179.9808         estimate D2E/DX2                !
 ! D7    D(7,1,6,5)           -179.9999         estimate D2E/DX2                !
 ! D8    D(7,1,6,11)            -0.0142         estimate D2E/DX2                !
 ! D9    D(1,2,3,4)              0.0023         estimate D2E/DX2                !
 ! D10   D(1,2,3,9)           -179.9884         estimate D2E/DX2                !
 ! D11   D(8,2,3,4)           -179.9978         estimate D2E/DX2                !
 ! D12   D(8,2,3,9)              0.0114         estimate D2E/DX2                !
 ! D13   D(2,3,4,5)             -0.006          estimate D2E/DX2                !
 ! D14   D(2,3,4,10)          -179.9952         estimate D2E/DX2                !
 ! D15   D(9,3,4,5)            179.9848         estimate D2E/DX2                !
 ! D16   D(9,3,4,10)            -0.0044         estimate D2E/DX2                !
 ! D17   D(3,4,5,6)              0.0041         estimate D2E/DX2                !
 ! D18   D(10,4,5,6)           179.9938         estimate D2E/DX2                !
 ! D19   D(4,5,6,1)              0.0015         estimate D2E/DX2                !
 ! D20   D(4,5,6,11)          -179.9849         estimate D2E/DX2                !
 --------------------------------------------------------------------------------
 Trust Radius=3.00D-01 FncErr=1.00D-07 GrdErr=1.00D-06 EigMax=2.50D+02 EigMin=1.00D-04
 Number of steps in this run=     57 maximum allowed number of steps=    100.
 GradGradGradGradGradGradGradGradGradGradGradGradGradGradGradGradGradGrad

                          Input orientation:                          
 ---------------------------------------------------------------------
 Center     Atomic      Atomic             Coordinates (Angstroms)
 Number     Number       Type             X           Y           Z
 ---------------------------------------------------------------------
      1          6           0        0.694900   -1.191700    0.000030
      2          6           0        1.400730    0.000940    0.000000
      3          6           0        0.693230    1.192580   -0.000020
      4          6           0       -0.692450    1.132910    0.000040
      5          7           0       -1.371620   -0.000930    0.000000
      6          6           0       -0.690860   -1.133790   -0.000020
      7          1           0        1.206010   -2.142220    0.000010
      8          1           0        2.481570    0.001860   -0.000010
      9          1           0        1.203320    2.143690   -0.000230
     10          1           0       -1.291040    2.034820   -0.000050
     11          1           0       -1.288270   -2.036500   -0.000310
 ---------------------------------------------------------------------
                    Distance matrix (angstroms):
                    1          2          3          4          5
     1  C    0.000000
     2  C    1.385852   0.000000
     3  C    2.384281   1.385843   0.000000
     4  C    2.707130   2.379655   1.386964   0.000000
     5  N    2.385045   2.772351   2.384968   1.321690   0.000000
     6  C    1.386969   2.379572   2.706973   2.266701   1.321668
     7  H    1.079223   2.151988   3.373994   3.785581   3.351015
     8  H    2.148668   1.080840   2.148482   3.369522   3.853191
     9  H    3.373917   2.151824   1.079260   2.148399   3.351076
    10  H    3.788719   3.373765   2.155620   1.082475   2.037344
    11  H    2.155609   3.373705   3.788575   3.224928   2.037276
                    6          7          8          9         10
     6  C    0.000000
     7  H    2.148266   0.000000
     8  H    3.369572   2.494821   0.000000
     9  H    3.785471   4.285911   2.494265   0.000000
    10  H    3.224950   4.866510   4.285500   2.496735   0.000000
    11  H    1.082490   2.496519   4.285628   4.866416   4.071321
                   11
    11  H    0.000000
 Stoichiometry    C5H5N
 Framework group  C1[X(C5H5N)]
 Deg. of freedom    27
 Full point group                 C1      NOp   1
 Largest Abelian subgroup         C1      NOp   1
 Largest concise Abelian subgroup C1      NOp   1
                         Standard orientation:                         
 ---------------------------------------------------------------------
 Center     Atomic      Atomic             Coordinates (Angstroms)
 Number     Number       Type             X           Y           Z
 ---------------------------------------------------------------------
      1          6           0       -1.192600    0.666096   -0.000040
      2          6           0       -0.000894    1.373503   -0.000010
      3          6           0        1.191680    0.667579    0.000010
      4          6           0        1.133842   -0.718179   -0.000050
      5          7           0        0.000901   -1.398847   -0.000010
      6          6           0       -1.132858   -0.719586    0.000010
      7          1           0       -2.143795    1.175949   -0.000020
      8          1           0       -0.001403    2.454343    0.000000
      9          1           0        2.142115    1.178926    0.000220
     10          1           0        2.036542   -1.315576    0.000040
     11          1           0       -2.034778   -1.318189    0.000300
 ---------------------------------------------------------------------
 Rotational constants (GHZ):           6.1224358           5.9166910           3.0089027
 Standard basis: def2SVP (5D, 7F)
 There are   115 symmetry adapted cartesian basis functions of A   symmetry.
 There are   109 symmetry adapted basis functions of A   symmetry.
   109 basis functions,   185 primitive gaussians,   115 cartesian basis functions
    21 alpha electrons       21 beta electrons
       nuclear repulsion energy       207.5723023711 Hartrees.
 NAtoms=   11 NActive=   11 NUniq=   11 SFac= 1.00D+00 NAtFMM=   60 NAOKFM=F Big=F
 Integral buffers will be    131072 words long.
 Raffenetti 2 integral format.
 Two-electron integral symmetry is turned on.
 Nuclear repulsion after empirical dispersion term =      207.5688776018 Hartrees.
 One-electron integrals computed using PRISM.
   1 Symmetry operations used in ECPInt.
 ECPInt:  NShTT=    1326 NPrTT=    4846 LenC2=    1326 LenP2D=    4136.
 LDataN:  DoStor=T MaxTD1= 4 Len=   56
 NBasis=   109 RedAO= T EigKep=  7.24D-04  NBF=   109
 NBsUse=   109 1.00D-06 EigRej= -1.00D+00 NBFU=   109
 ExpMin= 1.22D-01 ExpMax= 1.71D+03 ExpMxC= 2.58D+02 IAcc=3 IRadAn=         5 AccDes= 0.00D+00
 Harris functional with IExCor= 4639 and IRadAn=       5 diagonalized for initial guess.
 HarFok:  IExCor= 4639 AccDes= 0.00D+00 IRadAn=         5 IDoV= 1 UseB2=F ITyADJ=14
 ICtDFT=  3500011 ScaDFX=  1.000000  1.000000  1.000000  1.000000
 FoFCou: FMM=F IPFlag=           0 FMFlag=      100000 FMFlg1=           0
         NFxFlg=           0 DoJE=T BraDBF=F KetDBF=T FulRan=T
         wScrn=  0.000000 ICntrl=       500 IOpCl=  0 I1Cent=   200000004 NGrid=           0
         NMat0=    1 NMatS0=      1 NMatT0=    0 NMatD0=    1 NMtDS0=    0 NMtDT0=    0
 Petite list used in FoFCou.
 Keep R1 ints in memory in canonical form, NReq=51641367.
 Requested convergence on RMS density matrix=1.00D-08 within 128 cycles.
 Requested convergence on MAX density matrix=1.00D-06.
 Requested convergence on             energy=1.00D-06.
 No special actions if energy rises.
 Integral accuracy reduced to 1.0D-05 until final iterations.
 Initial convergence to 1.0D-05 achieved.  Increase integral accuracy.
 SCF Done:  E(RwB97XD) =  -248.015426170     A.U. after   13 cycles
            NFock= 13  Conv=0.65D-08     -V/T= 2.0100

 **********************************************************************

            Population analysis using the SCF Density.

 **********************************************************************

 Orbital symmetries:
       Occupied  (A) (A) (A) (A) (A) (A) (A) (A) (A) (A) (A) (A)
                 (A) (A) (A) (A) (A) (A) (A) (A) (A)
       Virtual   (A) (A) (A) (A) (A) (A) (A) (A) (A) (A) (A) (A)
                 (A) (A) (A) (A) (A) (A) (A) (A) (A) (A) (A) (A)
                 (A) (A) (A) (A) (A) (A) (A) (A) (A) (A) (A) (A)
                 (A) (A) (A) (A) (A) (A) (A) (A) (A) (A) (A) (A)
                 (A) (A) (A) (A) (A) (A) (A) (A) (A) (A) (A) (A)
                 (A) (A) (A) (A) (A) (A) (A) (A) (A) (A) (A) (A)
                 (A) (A) (A) (A) (A) (A) (A) (A) (A) (A) (A) (A)
                 (A) (A) (A) (A)
 The electronic state is 1-A.
 Alpha  occ. eigenvalues --  -14.43697 -10.33314 -10.33313 -10.32191 -10.31069
 Alpha  occ. eigenvalues --  -10.31068  -1.04570  -0.90344  -0.85966  -0.72614
 Alpha  occ. eigenvalues --   -0.72053  -0.62621  -0.57611  -0.55771  -0.52003
 Alpha  occ. eigenvalues --   -0.49781  -0.49346  -0.45058  -0.37395  -0.34686
 Alpha  occ. eigenvalues --   -0.33615
 Alpha virt. eigenvalues --    0.04238   0.05277   0.14353   0.18033   0.19856
 Alpha virt. eigenvalues --    0.22189   0.22541   0.22856   0.29814   0.36105
 Alpha virt. eigenvalues --    0.37694   0.38615   0.42033   0.47261   0.47741
 Alpha virt. eigenvalues --    0.49195   0.54341   0.55530   0.55688   0.57279
 Alpha virt. eigenvalues --    0.61102   0.61933   0.68387   0.68547   0.68846
 Alpha virt. eigenvalues --    0.71323   0.73118   0.73418   0.75785   0.79296
 Alpha virt. eigenvalues --    0.81852   0.82501   0.83331   0.86151   0.90164
 Alpha virt. eigenvalues --    0.98250   0.98593   1.08911   1.09773   1.23448
 Alpha virt. eigenvalues --    1.23472   1.27430   1.31742   1.33923   1.34823
 Alpha virt. eigenvalues --    1.40888   1.41568   1.44089   1.59515   1.73312
 Alpha virt. eigenvalues --    1.74229   1.79163   1.81600   1.82654   1.85815
 Alpha virt. eigenvalues --    1.86245   1.87868   1.88862   1.93453   2.00595
 Alpha virt. eigenvalues --    2.00729   2.05135   2.07109   2.07657   2.12417
 Alpha virt. eigenvalues --    2.20515   2.22414   2.28449   2.33995   2.38288
 Alpha virt. eigenvalues --    2.43859   2.49607   2.53855   2.54967   2.59329
 Alpha virt. eigenvalues --    2.68887   2.72549   2.80824   2.81810   2.82227
 Alpha virt. eigenvalues --    2.92866   2.99225   3.05371   3.12690   3.23799
 Alpha virt. eigenvalues --    3.25315   3.44612   3.78486
          Condensed to atoms (all electrons):
               1          2          3          4          5          6
     1  C    4.969329   0.429148   0.004810  -0.068184  -0.037559   0.441970
     2  C    0.429148   4.844116   0.429273  -0.011522  -0.050574  -0.011523
     3  C    0.004810   0.429273   4.969293   0.441944  -0.037560  -0.068178
     4  C   -0.068184  -0.011522   0.441944   4.734843   0.533048  -0.060680
     5  N   -0.037559  -0.050574  -0.037560   0.533048   6.269628   0.533076
     6  C    0.441970  -0.011523  -0.068178  -0.060680   0.533076   4.734853
     7  H    0.424315  -0.055733   0.011047  -0.000115   0.005706  -0.043886
     8  H   -0.057000   0.442390  -0.056973   0.009674  -0.000358   0.009670
     9  H    0.011051  -0.055710   0.424293  -0.043902   0.005706  -0.000114
    10  H    0.000693   0.006694  -0.070469   0.427415  -0.039884   0.005075
    11  H   -0.070476   0.006695   0.000693   0.005076  -0.039890   0.427411
               7          8          9         10         11
     1  C    0.424315  -0.057000   0.011051   0.000693  -0.070476
     2  C   -0.055733   0.442390  -0.055710   0.006694   0.006695
     3  C    0.011047  -0.056973   0.424293  -0.070469   0.000693
     4  C   -0.000115   0.009674  -0.043902   0.427415   0.005076
     5  N    0.005706  -0.000358   0.005706  -0.039884  -0.039890
     6  C   -0.043886   0.009670  -0.000114   0.005075   0.427411
     7  H    0.649353  -0.011002  -0.000114   0.000072  -0.006314
     8  H   -0.011002   0.645222  -0.011015  -0.000243  -0.000243
     9  H   -0.000114  -0.011015   0.649364  -0.006310   0.000072
    10  H    0.000072  -0.000243  -0.006310   0.645797  -0.000289
    11  H   -0.006314  -0.000243   0.000072  -0.000289   0.645813
 Mulliken charges:
               1
     1  C   -0.048095
     2  C    0.026745
     3  C   -0.048172
     4  C    0.032401
     5  N   -0.141338
     6  C    0.032326
     7  H    0.026670
     8  H    0.029879
     9  H    0.026680
    10  H    0.031452
    11  H    0.031452
 Sum of Mulliken charges =  -0.00000
 Mulliken charges with hydrogens summed into heavy atoms:
               1
     1  C   -0.021425
     2  C    0.056624
     3  C   -0.021492
     4  C    0.063853
     5  N   -0.141338
     6  C    0.063778
 Electronic spatial extent (au):  <R**2>=            428.8499
 Charge=             -0.0000 electrons
 Dipole moment (field-independent basis, Debye):
    X=             -0.0013    Y=              2.1691    Z=              0.0003  Tot=              2.1691
 Quadrupole moment (field-independent basis, Debye-Ang):
   XX=            -29.4361   YY=            -35.8646   ZZ=            -37.1552
   XY=              0.0042   XZ=              0.0000   YZ=             -0.0000
 Traceless Quadrupole moment (field-independent basis, Debye-Ang):
   XX=              4.7158   YY=             -1.7126   ZZ=             -3.0032
   XY=              0.0042   XZ=              0.0000   YZ=             -0.0000
 Octapole moment (field-independent basis, Debye-Ang**2):
  XXX=              0.0021  YYY=             13.7149  ZZZ=              0.0005  XYY=             -0.0090
  XXY=             -1.8544  XXZ=              0.0022  XZZ=              0.0010  YZZ=             -1.5660
  YYZ=              0.0007  XYZ=              0.0010
 Hexadecapole moment (field-independent basis, Debye-Ang**3):
 XXXX=           -247.1247 YYYY=           -273.2721 ZZZZ=            -38.7456 XXXY=             -0.0089
 XXXZ=              0.0006 YYYX=              0.0297 YYYZ=              0.0002 ZZZX=              0.0002
 ZZZY=              0.0004 XXYY=            -78.5172 XXZZ=            -56.2378 YYZZ=            -54.1321
 XXYZ=             -0.0005 YYXZ=             -0.0001 ZZXY=             -0.0008
 N-N= 2.075688776018D+02 E-N=-9.898582117405D+02  KE= 2.455718560646D+02
   1 Symmetry operations used in ECPInt.
 ECPInt:  NShTT=    1326 NPrTT=    4846 LenC2=    1326 LenP2D=    4136.
 LDataN:  DoStor=T MaxTD1= 5 Len=  102
 Calling FoFJK, ICntrl=      2127 FMM=F ISym2X=0 I1Cent= 0 IOpClX= 0 NMat=1 NMatS=1 NMatT=0.
 ***** Axes restored to original set *****
 -------------------------------------------------------------------
 Center     Atomic                   Forces (Hartrees/Bohr)
 Number     Number              X              Y              Z
 -------------------------------------------------------------------
      1        6           0.000554167    0.000973291   -0.000000080
      2        6          -0.000610126   -0.000005977    0.000006711
      3        6           0.000583262   -0.000924505   -0.000005328
      4        6           0.000267294    0.001308660   -0.000010458
      5        7          -0.010662155    0.000015929    0.000003413
      6        6           0.000250912   -0.001351917   -0.000013739
      7        1           0.003866040   -0.008019124   -0.000000209
      8        1           0.008359559   -0.000008829   -0.000002156
      9        1           0.003822749    0.008013218    0.000006528
     10        1          -0.003226704    0.009346657    0.000004884
     11        1          -0.003204998   -0.009347404    0.000010436
 -------------------------------------------------------------------
 Cartesian Forces:  Max     0.010662155 RMS     0.004058497

 GradGradGradGradGradGradGradGradGradGradGradGradGradGradGradGradGradGrad
 Berny optimization.
 FormGI is forming the generalized inverse of G from B-inverse, IUseBI=4.
 Internal  Forces:  Max     0.012169246 RMS     0.004605562
 Search for a local minimum.
 Step number   1 out of a maximum of   57
 All quantities printed in internal units (Hartrees-Bohrs-Radians)
 Mixed Optimization -- RFO/linear search
 Second derivative matrix not updated -- first step.
 ITU=  0
     Eigenvalues ---    0.02267   0.02269   0.02272   0.02276   0.02322
     Eigenvalues ---    0.02391   0.02425   0.02628   0.16000   0.16000
     Eigenvalues ---    0.16000   0.16000   0.16000   0.22000   0.22000
     Eigenvalues ---    0.23204   0.35695   0.35697   0.35893   0.36084
     Eigenvalues ---    0.36088   0.43479   0.45620   0.47851   0.48009
     Eigenvalues ---    0.58966   0.60523
 RFO step:  Lambda=-2.32829149D-03 EMin= 2.26738168D-02
 Linear search not attempted -- first point.
 Iteration  1 RMS(Cart)=  0.01660994 RMS(Int)=  0.00008370
 Iteration  2 RMS(Cart)=  0.00009832 RMS(Int)=  0.00000224
 Iteration  3 RMS(Cart)=  0.00000002 RMS(Int)=  0.00000224
 Variable       Old X    -DE/DX   Delta X   Delta X   Delta X     New X
                                 (Linear)    (Quad)   (Total)
    R1        2.61888   0.00778   0.00000   0.01544   0.01544   2.63432
    R2        2.62099   0.00829   0.00000   0.01729   0.01729   2.63828
    R3        2.03944   0.00889   0.00000   0.02449   0.02449   2.06392
    R4        2.61886   0.00780   0.00000   0.01548   0.01547   2.63434
    R5        2.04249   0.00836   0.00000   0.02314   0.02314   2.06563
    R6        2.62098   0.00829   0.00000   0.01728   0.01728   2.63826
    R7        2.03951   0.00887   0.00000   0.02442   0.02442   2.06393
    R8        2.49763   0.01215   0.00000   0.02021   0.02021   2.51785
    R9        2.04558   0.00957   0.00000   0.02664   0.02664   2.07222
   R10        2.49759   0.01217   0.00000   0.02024   0.02024   2.51783
   R11        2.04561   0.00956   0.00000   0.02662   0.02662   2.07223
    A1        2.06342   0.00081   0.00000   0.00191   0.00191   2.06532
    A2        2.11385  -0.00000   0.00000   0.00152   0.00152   2.11536
    A3        2.10592  -0.00080   0.00000  -0.00342  -0.00342   2.10250
    A4        2.07142   0.00072   0.00000  -0.00002  -0.00002   2.07140
    A5        2.10603  -0.00038   0.00000  -0.00009  -0.00009   2.10594
    A6        2.10573  -0.00034   0.00000   0.00011   0.00011   2.10585
    A7        2.06355   0.00078   0.00000   0.00180   0.00180   2.06535
    A8        2.11353   0.00004   0.00000   0.00173   0.00173   2.11526
    A9        2.10610  -0.00082   0.00000  -0.00353  -0.00352   2.10258
   A10        2.15352  -0.00069   0.00000  -0.00182  -0.00182   2.15169
   A11        2.11370  -0.00219   0.00000  -0.01472  -0.01472   2.09898
   A12        2.01597   0.00288   0.00000   0.01654   0.01654   2.03251
   A13        2.06081  -0.00090   0.00000   0.00007   0.00008   2.06089
   A14        2.15366  -0.00072   0.00000  -0.00194  -0.00194   2.15172
   A15        2.11365  -0.00218   0.00000  -0.01469  -0.01469   2.09896
   A16        2.01587   0.00290   0.00000   0.01663   0.01663   2.03250
    D1        0.00005  -0.00000   0.00000  -0.00003  -0.00003   0.00002
    D2       -3.14154  -0.00000   0.00000  -0.00006  -0.00006   3.14158
    D3        3.14155   0.00000   0.00000   0.00009   0.00009  -3.14154
    D4       -0.00004   0.00000   0.00000   0.00006   0.00006   0.00002
    D5       -0.00009   0.00000   0.00000   0.00003   0.00003  -0.00006
    D6        3.14126   0.00001   0.00000   0.00036   0.00036  -3.14157
    D7       -3.14159  -0.00000   0.00000  -0.00009  -0.00009   3.14150
    D8       -0.00025   0.00001   0.00000   0.00024   0.00024  -0.00001
    D9        0.00004  -0.00000   0.00000  -0.00003  -0.00003   0.00001
   D10       -3.14139  -0.00000   0.00000  -0.00019  -0.00019  -3.14158
   D11       -3.14156   0.00000   0.00000   0.00000   0.00000  -3.14155
   D12        0.00020  -0.00000   0.00000  -0.00016  -0.00016   0.00004
   D13       -0.00010   0.00000   0.00000   0.00010   0.00010   0.00000
   D14       -3.14151  -0.00001   0.00000  -0.00019  -0.00019   3.14149
   D15        3.14133   0.00001   0.00000   0.00026   0.00026   3.14159
   D16       -0.00008  -0.00000   0.00000  -0.00003  -0.00003  -0.00011
   D17        0.00007  -0.00000   0.00000  -0.00011  -0.00011  -0.00004
   D18        3.14149   0.00000   0.00000   0.00016   0.00017  -3.14153
   D19        0.00003   0.00000   0.00000   0.00004   0.00004   0.00007
   D20       -3.14133  -0.00001   0.00000  -0.00027  -0.00028   3.14158
         Item               Value     Threshold  Converged?
 Maximum Force            0.012169     0.000450     NO 
 RMS     Force            0.004606     0.000300     NO 
 Maximum Displacement     0.058332     0.001800     NO 
 RMS     Displacement     0.016613     0.001200     NO 
 Predicted change in Energy=-1.171187D-03
 GradGradGradGradGradGradGradGradGradGradGradGradGradGradGradGradGradGrad

                          Input orientation:                          
 ---------------------------------------------------------------------
 Center     Atomic      Atomic             Coordinates (Angstroms)
 Number     Number       Type             X           Y           Z
 ---------------------------------------------------------------------
      1          6           0        0.695528   -1.198697   -0.000052
      2          6           0        1.405561    0.000948   -0.000042
      3          6           0        0.693898    1.199638   -0.000063
      4          6           0       -0.701023    1.142099   -0.000081
      5          7           0       -1.385676   -0.000926   -0.000078
      6          6           0       -0.699478   -1.143014   -0.000104
      7          1           0        1.211281   -2.161431    0.000009
      8          1           0        2.498647    0.001740    0.000010
      9          1           0        1.208443    2.163021   -0.000069
     10          1           0       -1.292227    2.065651   -0.000001
     11          1           0       -1.289434   -2.067368   -0.000090
 ---------------------------------------------------------------------
                    Distance matrix (angstroms):
                    1          2          3          4          5
     1  C    0.000000
     2  C    1.394022   0.000000
     3  C    2.398337   1.394032   0.000000
     4  C    2.725745   2.395814   1.396107   0.000000
     5  N    2.401264   2.791238   2.401246   1.332387   0.000000
     6  C    1.396117   2.395796   2.725713   2.285113   1.332379
     7  H    1.092180   2.171089   3.400658   3.817096   3.378161
     8  H    2.166169   1.093086   2.166121   3.396808   3.884324
     9  H    3.400622   2.171040   1.092182   2.165259   3.378183
    10  H    3.821929   3.397214   2.166719   1.096572   2.068689
    11  H    2.166717   3.397194   3.821902   3.262960   2.068682
                    6          7          8          9         10
     6  C    0.000000
     7  H    2.165219   0.000000
     8  H    3.396831   2.517264   0.000000
     9  H    3.817070   4.324453   2.517093   0.000000
    10  H    3.262956   4.912818   4.316301   2.502566   0.000000
    11  H    1.096576   2.502483   4.316336   4.912797   4.133020
                   11
    11  H    0.000000
 Stoichiometry    C5H5N
 Framework group  C1[X(C5H5N)]
 Deg. of freedom    27
 Full point group                 C1      NOp   1
 Largest Abelian subgroup         C1      NOp   1
 Largest concise Abelian subgroup C1      NOp   1
                         Standard orientation:                         
 ---------------------------------------------------------------------
 Center     Atomic      Atomic             Coordinates (Angstroms)
 Number     Number       Type             X           Y           Z
 ---------------------------------------------------------------------
      1          6           0       -1.199229    0.670718   -0.000013
      2          6           0       -0.000121    1.381659   -0.000023
      3          6           0        1.199108    0.670903   -0.000002
      4          6           0        1.142624   -0.724061    0.000015
      5          7           0        0.000118   -1.409579    0.000013
      6          6           0       -1.142489   -0.724245    0.000039
      7          1           0       -2.162353    1.185742   -0.000075
      8          1           0       -0.000157    2.474745   -0.000075
      9          1           0        2.162100    1.186179    0.000004
     10          1           0        2.066624   -1.314565   -0.000064
     11          1           0       -2.066396   -1.314901    0.000024
 ---------------------------------------------------------------------
 Rotational constants (GHZ):           6.0254592           5.8394379           2.9654951
 Standard basis: def2SVP (5D, 7F)
 There are   115 symmetry adapted cartesian basis functions of A   symmetry.
 There are   109 symmetry adapted basis functions of A   symmetry.
   109 basis functions,   185 primitive gaussians,   115 cartesian basis functions
    21 alpha electrons       21 beta electrons
       nuclear repulsion energy       206.0085290313 Hartrees.
 NAtoms=   11 NActive=   11 NUniq=   11 SFac= 1.00D+00 NAtFMM=   60 NAOKFM=F Big=F
 Integral buffers will be    131072 words long.
 Raffenetti 2 integral format.
 Two-electron integral symmetry is turned on.
 Nuclear repulsion after empirical dispersion term =      206.0051158344 Hartrees.
 One-electron integrals computed using PRISM.
   1 Symmetry operations used in ECPInt.
 ECPInt:  NShTT=    1326 NPrTT=    4846 LenC2=    1326 LenP2D=    4125.
 LDataN:  DoStor=T MaxTD1= 4 Len=   56
 NBasis=   109 RedAO= T EigKep=  7.57D-04  NBF=   109
 NBsUse=   109 1.00D-06 EigRej= -1.00D+00 NBFU=   109
 Initial guess from the checkpoint file:  "Py1_1.chk"
 B after Tr=    -0.000000   -0.000000   -0.000000
         Rot=    1.000000    0.000007   -0.000000    0.000280 Ang=   0.03 deg.
 ExpMin= 1.22D-01 ExpMax= 1.71D+03 ExpMxC= 2.58D+02 IAcc=3 IRadAn=         5 AccDes= 0.00D+00
 Harris functional with IExCor= 4639 and IRadAn=       5 diagonalized for initial guess.
 HarFok:  IExCor= 4639 AccDes= 0.00D+00 IRadAn=         5 IDoV= 1 UseB2=F ITyADJ=14
 ICtDFT=  3500011 ScaDFX=  1.000000  1.000000  1.000000  1.000000
 FoFCou: FMM=F IPFlag=           0 FMFlag=      100000 FMFlg1=           0
         NFxFlg=           0 DoJE=T BraDBF=F KetDBF=T FulRan=T
         wScrn=  0.000000 ICntrl=       500 IOpCl=  0 I1Cent=   200000004 NGrid=           0
         NMat0=    1 NMatS0=      1 NMatT0=    0 NMatD0=    1 NMtDS0=    0 NMtDT0=    0
 Petite list used in FoFCou.
 Keep R1 ints in memory in canonical form, NReq=51641367.
 Requested convergence on RMS density matrix=1.00D-08 within 128 cycles.
 Requested convergence on MAX density matrix=1.00D-06.
 Requested convergence on             energy=1.00D-06.
 No special actions if energy rises.
 Integral accuracy reduced to 1.0D-05 until final iterations.
 Initial convergence to 1.0D-05 achieved.  Increase integral accuracy.
 SCF Done:  E(RwB97XD) =  -248.016483024     A.U. after   11 cycles
            NFock= 11  Conv=0.84D-08     -V/T= 2.0109
   1 Symmetry operations used in ECPInt.
 ECPInt:  NShTT=    1326 NPrTT=    4846 LenC2=    1326 LenP2D=    4125.
 LDataN:  DoStor=T MaxTD1= 5 Len=  102
 Calling FoFJK, ICntrl=      2127 FMM=F ISym2X=0 I1Cent= 0 IOpClX= 0 NMat=1 NMatS=1 NMatT=0.
 ***** Axes restored to original set *****
 -------------------------------------------------------------------
 Center     Atomic                   Forces (Hartrees/Bohr)
 Number     Number              X              Y              Z
 -------------------------------------------------------------------
      1        6           0.000026397    0.000698065   -0.000000590
      2        6          -0.000394788    0.000005704    0.000001223
      3        6           0.000041041   -0.000701118   -0.000003359
      4        6           0.000567944   -0.001624292    0.000008234
      5        7          -0.000528682    0.000003791   -0.000005438
      6        6           0.000567413    0.001617876    0.000007323
      7        1          -0.000295506    0.000303598   -0.000002005
      8        1          -0.000401228   -0.000005053   -0.000000780
      9        1          -0.000303630   -0.000300802    0.000001104
     10        1           0.000360500   -0.000542992   -0.000003946
     11        1           0.000360539    0.000545224   -0.000001765
 -------------------------------------------------------------------
 Cartesian Forces:  Max     0.001624292 RMS     0.000513232

 GradGradGradGradGradGradGradGradGradGradGradGradGradGradGradGradGradGrad
 Berny optimization.
 Using GEDIIS/GDIIS optimizer.
 FormGI is forming the generalized inverse of G from B-inverse, IUseBI=4.
 Internal  Forces:  Max     0.001468102 RMS     0.000572648
 Search for a local minimum.
 Step number   2 out of a maximum of   57
 All quantities printed in internal units (Hartrees-Bohrs-Radians)
 Mixed Optimization -- En-DIIS/RFO-DIIS
 Update second derivatives using D2CorX and points    1    2
 DE= -1.06D-03 DEPred=-1.17D-03 R= 9.02D-01
 TightC=F SS=  1.41D+00  RLast= 7.79D-02 DXNew= 5.0454D-01 2.3372D-01
 Trust test= 9.02D-01 RLast= 7.79D-02 DXMaxT set to 3.00D-01
 ITU=  1  0
 Use linear search instead of GDIIS.
     Eigenvalues ---    0.02267   0.02269   0.02272   0.02276   0.02321
     Eigenvalues ---    0.02394   0.02429   0.02628   0.15865   0.16000
     Eigenvalues ---    0.16000   0.16000   0.16017   0.21979   0.22000
     Eigenvalues ---    0.23131   0.35696   0.35816   0.35974   0.36086
     Eigenvalues ---    0.36533   0.43530   0.46143   0.48009   0.48640
     Eigenvalues ---    0.60531   0.62038
 RFO step:  Lambda=-2.39169121D-05 EMin= 2.26740673D-02
 Quartic linear search produced a step of -0.07708.
 Iteration  1 RMS(Cart)=  0.00228376 RMS(Int)=  0.00000263
 Iteration  2 RMS(Cart)=  0.00000303 RMS(Int)=  0.00000034
 Iteration  3 RMS(Cart)=  0.00000000 RMS(Int)=  0.00000034
 Variable       Old X    -DE/DX   Delta X   Delta X   Delta X     New X
                                 (Linear)    (Quad)   (Total)
    R1        2.63432  -0.00141  -0.00119  -0.00131  -0.00250   2.63182
    R2        2.63828  -0.00065  -0.00133   0.00023  -0.00110   2.63717
    R3        2.06392  -0.00041  -0.00189   0.00105  -0.00084   2.06308
    R4        2.63434  -0.00141  -0.00119  -0.00131  -0.00250   2.63184
    R5        2.06563  -0.00040  -0.00178   0.00094  -0.00084   2.06479
    R6        2.63826  -0.00065  -0.00133   0.00023  -0.00110   2.63716
    R7        2.06393  -0.00041  -0.00188   0.00104  -0.00084   2.06308
    R8        2.51785  -0.00138  -0.00156  -0.00038  -0.00194   2.51591
    R9        2.07222  -0.00065  -0.00205   0.00059  -0.00147   2.07075
   R10        2.51783  -0.00138  -0.00156  -0.00038  -0.00194   2.51589
   R11        2.07223  -0.00065  -0.00205   0.00058  -0.00147   2.07076
    A1        2.06532   0.00011  -0.00015   0.00068   0.00054   2.06586
    A2        2.11536   0.00006  -0.00012   0.00056   0.00044   2.11580
    A3        2.10250  -0.00018   0.00026  -0.00124  -0.00098   2.10152
    A4        2.07140  -0.00062   0.00000  -0.00242  -0.00242   2.06898
    A5        2.10594   0.00031   0.00001   0.00117   0.00118   2.10712
    A6        2.10585   0.00032  -0.00001   0.00125   0.00124   2.10708
    A7        2.06535   0.00011  -0.00014   0.00066   0.00052   2.06587
    A8        2.11526   0.00008  -0.00013   0.00064   0.00050   2.11577
    A9        2.10258  -0.00018   0.00027  -0.00130  -0.00103   2.10155
   A10        2.15169   0.00094   0.00014   0.00352   0.00366   2.15536
   A11        2.09898  -0.00048   0.00113  -0.00312  -0.00199   2.09700
   A12        2.03251  -0.00046  -0.00127  -0.00040  -0.00168   2.03083
   A13        2.06089  -0.00147  -0.00001  -0.00594  -0.00595   2.05494
   A14        2.15172   0.00093   0.00015   0.00350   0.00365   2.15537
   A15        2.09896  -0.00048   0.00113  -0.00311  -0.00197   2.09699
   A16        2.03250  -0.00046  -0.00128  -0.00039  -0.00167   2.03083
    D1        0.00002  -0.00000   0.00000  -0.00002  -0.00002  -0.00000
    D2        3.14158   0.00000   0.00000   0.00001   0.00002  -3.14159
    D3       -3.14154  -0.00000  -0.00001  -0.00005  -0.00006   3.14159
    D4        0.00002  -0.00000  -0.00000  -0.00001  -0.00002   0.00000
    D5       -0.00006   0.00000  -0.00000   0.00007   0.00006   0.00001
    D6       -3.14157  -0.00000  -0.00003  -0.00004  -0.00007   3.14155
    D7        3.14150   0.00000   0.00001   0.00009   0.00010  -3.14158
    D8       -0.00001  -0.00000  -0.00002  -0.00001  -0.00003  -0.00004
    D9        0.00001   0.00000   0.00000   0.00000   0.00000   0.00001
   D10       -3.14158   0.00000   0.00001   0.00000   0.00002  -3.14156
   D11       -3.14155  -0.00000  -0.00000  -0.00003  -0.00003  -3.14159
   D12        0.00004  -0.00000   0.00001  -0.00003  -0.00002   0.00002
   D13        0.00000  -0.00000  -0.00001  -0.00002  -0.00003  -0.00003
   D14        3.14149   0.00000   0.00001   0.00010   0.00011  -3.14158
   D15        3.14159  -0.00000  -0.00002  -0.00002  -0.00004   3.14155
   D16       -0.00011   0.00000   0.00000   0.00010   0.00010  -0.00000
   D17       -0.00004   0.00000   0.00001   0.00006   0.00007   0.00003
   D18       -3.14153  -0.00000  -0.00001  -0.00005  -0.00007   3.14158
   D19        0.00007  -0.00000  -0.00000  -0.00008  -0.00009  -0.00002
   D20        3.14158   0.00000   0.00002   0.00002   0.00004  -3.14156
         Item               Value     Threshold  Converged?
 Maximum Force            0.001468     0.000450     NO 
 RMS     Force            0.000573     0.000300     NO 
 Maximum Displacement     0.005526     0.001800     NO 
 RMS     Displacement     0.002285     0.001200     NO 
 Predicted change in Energy=-1.912902D-05
 GradGradGradGradGradGradGradGradGradGradGradGradGradGradGradGradGradGrad

                          Input orientation:                          
 ---------------------------------------------------------------------
 Center     Atomic      Atomic             Coordinates (Angstroms)
 Number     Number       Type             X           Y           Z
 ---------------------------------------------------------------------
      1          6           0        0.695438   -1.196697   -0.000037
      2          6           0        1.406251    0.000949   -0.000026
      3          6           0        0.693821    1.197644   -0.000040
      4          6           0       -0.700479    1.139175   -0.000047
      5          7           0       -1.388004   -0.000926   -0.000073
      6          6           0       -0.698947   -1.140094   -0.000057
      7          1           0        1.209386   -2.159891   -0.000033
      8          1           0        2.498891    0.001704   -0.000013
      9          1           0        1.206510    2.161510   -0.000059
     10          1           0       -1.290063    2.062841   -0.000069
     11          1           0       -1.287284   -2.064556   -0.000107
 ---------------------------------------------------------------------
                    Distance matrix (angstroms):
                    1          2          3          4          5
     1  C    0.000000
     2  C    1.392700   0.000000
     3  C    2.394341   1.392708   0.000000
     4  C    2.721191   2.394550   1.395526   0.000000
     5  N    2.402207   2.794256   2.402200   1.331360   0.000000
     6  C    1.395533   2.394543   2.721180   2.279269   1.331354
     7  H    1.091736   2.169790   3.396888   3.812010   3.377509
     8  H    2.165320   1.092640   2.165306   3.395557   3.886896
     9  H    3.396873   2.169774   1.091736   2.163741   3.377518
    10  H    3.816648   3.394335   2.164339   1.095796   2.066090
    11  H    2.164339   3.394325   3.816638   3.257028   2.066087
                    6          7          8          9         10
     6  C    0.000000
     7  H    2.163729   0.000000
     8  H    3.395566   2.517006   0.000000
     9  H    3.812001   4.321402   2.516944   0.000000
    10  H    3.257025   4.907007   4.313289   2.498522   0.000000
    11  H    1.095797   2.498490   4.313300   4.906999   4.127398
                   11
    11  H    0.000000
 Stoichiometry    C5H5N
 Framework group  C1[X(C5H5N)]
 Deg. of freedom    27
 Full point group                 C1      NOp   1
 Largest Abelian subgroup         C1      NOp   1
 Largest concise Abelian subgroup C1      NOp   1
                         Standard orientation:                         
 ---------------------------------------------------------------------
 Center     Atomic      Atomic             Coordinates (Angstroms)
 Number     Number       Type             X           Y           Z
 ---------------------------------------------------------------------
      1          6           0       -1.197200    0.670822   -0.000011
      2          6           0       -0.000063    1.382492   -0.000023
      3          6           0        1.197141    0.670918   -0.000009
      4          6           0        1.139669   -0.723424   -0.000001
      5          7           0        0.000060   -1.411764    0.000024
      6          6           0       -1.139600   -0.723522    0.000009
      7          1           0       -2.160762    1.184082   -0.000016
      8          1           0       -0.000089    2.475132   -0.000036
      9          1           0        2.160640    1.184295    0.000011
     10          1           0        2.063757   -1.312348    0.000021
     11          1           0       -2.063642   -1.312520    0.000058
 ---------------------------------------------------------------------
 Rotational constants (GHZ):           6.0479309           5.8344874           2.9696460
 Standard basis: def2SVP (5D, 7F)
 There are   115 symmetry adapted cartesian basis functions of A   symmetry.
 There are   109 symmetry adapted basis functions of A   symmetry.
   109 basis functions,   185 primitive gaussians,   115 cartesian basis functions
    21 alpha electrons       21 beta electrons
       nuclear repulsion energy       206.1558954245 Hartrees.
 NAtoms=   11 NActive=   11 NUniq=   11 SFac= 1.00D+00 NAtFMM=   60 NAOKFM=F Big=F
 Integral buffers will be    131072 words long.
 Raffenetti 2 integral format.
 Two-electron integral symmetry is turned on.
 Nuclear repulsion after empirical dispersion term =      206.1524800519 Hartrees.
 One-electron integrals computed using PRISM.
   1 Symmetry operations used in ECPInt.
 ECPInt:  NShTT=    1326 NPrTT=    4846 LenC2=    1326 LenP2D=    4125.
 LDataN:  DoStor=T MaxTD1= 4 Len=   56
 NBasis=   109 RedAO= T EigKep=  7.53D-04  NBF=   109
 NBsUse=   109 1.00D-06 EigRej= -1.00D+00 NBFU=   109
 Initial guess from the checkpoint file:  "Py1_1.chk"
 B after Tr=     0.000000   -0.000000    0.000000
         Rot=    1.000000   -0.000001    0.000000    0.000021 Ang=  -0.00 deg.
 Keep R1 ints in memory in canonical form, NReq=51641367.
 Requested convergence on RMS density matrix=1.00D-08 within 128 cycles.
 Requested convergence on MAX density matrix=1.00D-06.
 Requested convergence on             energy=1.00D-06.
 No special actions if energy rises.
 SCF Done:  E(RwB97XD) =  -248.016502594     A.U. after    9 cycles
            NFock=  9  Conv=0.66D-08     -V/T= 2.0108
   1 Symmetry operations used in ECPInt.
 ECPInt:  NShTT=    1326 NPrTT=    4846 LenC2=    1326 LenP2D=    4125.
 LDataN:  DoStor=T MaxTD1= 5 Len=  102
 Calling FoFJK, ICntrl=      2127 FMM=F ISym2X=0 I1Cent= 0 IOpClX= 0 NMat=1 NMatS=1 NMatT=0.
 ***** Axes restored to original set *****
 -------------------------------------------------------------------
 Center     Atomic                   Forces (Hartrees/Bohr)
 Number     Number              X              Y              Z
 -------------------------------------------------------------------
      1        6          -0.000062092   -0.000068891    0.000001424
      2        6           0.000184170    0.000004415   -0.000000233
      3        6          -0.000054448    0.000065096    0.000000438
      4        6           0.000099402    0.000159085   -0.000003617
      5        7          -0.000048895    0.000002210    0.000002712
      6        6           0.000102989   -0.000162185   -0.000004179
      7        1          -0.000178849    0.000026885    0.000000025
      8        1          -0.000107150   -0.000001791   -0.000000306
      9        1          -0.000181835   -0.000025547    0.000001150
     10        1           0.000123399    0.000026543    0.000000834
     11        1           0.000123310   -0.000025822    0.000001750
 -------------------------------------------------------------------
 Cartesian Forces:  Max     0.000184170 RMS     0.000084207

 GradGradGradGradGradGradGradGradGradGradGradGradGradGradGradGradGradGrad
 Berny optimization.
 Using GEDIIS/GDIIS optimizer.
 FormGI is forming the generalized inverse of G from B-inverse, IUseBI=4.
 Internal  Forces:  Max     0.000203167 RMS     0.000084093
 Search for a local minimum.
 Step number   3 out of a maximum of   57
 All quantities printed in internal units (Hartrees-Bohrs-Radians)
 Mixed Optimization -- En-DIIS/RFO-DIIS
 Swapping is turned off.
 Update second derivatives using D2CorX and points    1    2    3
 DE= -1.96D-05 DEPred=-1.91D-05 R= 1.02D+00
 TightC=F SS=  1.41D+00  RLast= 1.08D-02 DXNew= 5.0454D-01 3.2355D-02
 Trust test= 1.02D+00 RLast= 1.08D-02 DXMaxT set to 3.00D-01
 ITU=  1  1  0
     Eigenvalues ---    0.02267   0.02269   0.02272   0.02276   0.02321
     Eigenvalues ---    0.02394   0.02429   0.02627   0.14833   0.15996
     Eigenvalues ---    0.16000   0.16000   0.16000   0.21837   0.22000
     Eigenvalues ---    0.24069   0.35576   0.35696   0.35897   0.36009
     Eigenvalues ---    0.36086   0.43510   0.46930   0.47389   0.48009
     Eigenvalues ---    0.60520   0.64937
 En-DIIS/RFO-DIIS/Sim-DIIS IScMMF=       -3 using points:     3    2
 RFO step:  Lambda=-1.39507494D-06.
 DidBck=F Rises=F RFO-DIIS coefs:    1.07206   -0.07206
 Iteration  1 RMS(Cart)=  0.00064561 RMS(Int)=  0.00000029
 Iteration  2 RMS(Cart)=  0.00000031 RMS(Int)=  0.00000003
 Variable       Old X    -DE/DX   Delta X   Delta X   Delta X     New X
                                 (Linear)    (Quad)   (Total)
    R1        2.63182   0.00010  -0.00018   0.00030   0.00012   2.63194
    R2        2.63717  -0.00020  -0.00008  -0.00038  -0.00046   2.63672
    R3        2.06308  -0.00011  -0.00006  -0.00026  -0.00032   2.06277
    R4        2.63184   0.00009  -0.00018   0.00029   0.00011   2.63195
    R5        2.06479  -0.00011  -0.00006  -0.00026  -0.00032   2.06447
    R6        2.63716  -0.00020  -0.00008  -0.00037  -0.00045   2.63671
    R7        2.06308  -0.00011  -0.00006  -0.00026  -0.00032   2.06277
    R8        2.51591   0.00013  -0.00014   0.00030   0.00016   2.51607
    R9        2.07075  -0.00004  -0.00011  -0.00005  -0.00016   2.07059
   R10        2.51589   0.00013  -0.00014   0.00031   0.00017   2.51606
   R11        2.07076  -0.00004  -0.00011  -0.00006  -0.00016   2.07060
    A1        2.06586   0.00004   0.00004   0.00015   0.00019   2.06604
    A2        2.11580   0.00013   0.00003   0.00085   0.00089   2.11669
    A3        2.10152  -0.00017  -0.00007  -0.00100  -0.00107   2.10045
    A4        2.06898  -0.00004  -0.00017  -0.00014  -0.00031   2.06867
    A5        2.10712   0.00002   0.00009   0.00006   0.00014   2.10726
    A6        2.10708   0.00002   0.00009   0.00008   0.00017   2.10725
    A7        2.06587   0.00004   0.00004   0.00014   0.00018   2.06605
    A8        2.11577   0.00013   0.00004   0.00088   0.00091   2.11668
    A9        2.10155  -0.00017  -0.00007  -0.00102  -0.00109   2.10046
   A10        2.15536  -0.00001   0.00026  -0.00017   0.00010   2.15546
   A11        2.09700  -0.00012  -0.00014  -0.00070  -0.00084   2.09615
   A12        2.03083   0.00013  -0.00012   0.00087   0.00075   2.03158
   A13        2.05494  -0.00001  -0.00043   0.00018  -0.00025   2.05470
   A14        2.15537  -0.00001   0.00026  -0.00017   0.00009   2.15546
   A15        2.09699  -0.00012  -0.00014  -0.00070  -0.00084   2.09615
   A16        2.03083   0.00013  -0.00012   0.00087   0.00075   2.03158
    D1       -0.00000   0.00000  -0.00000   0.00001   0.00001   0.00001
    D2       -3.14159  -0.00000   0.00000  -0.00000  -0.00000  -3.14159
    D3        3.14159   0.00000  -0.00000   0.00002   0.00002  -3.14158
    D4        0.00000   0.00000  -0.00000   0.00000   0.00000   0.00000
    D5        0.00001  -0.00000   0.00000  -0.00002  -0.00002  -0.00001
    D6        3.14155   0.00000  -0.00000   0.00006   0.00005  -3.14158
    D7       -3.14158  -0.00000   0.00001  -0.00003  -0.00002   3.14158
    D8       -0.00004   0.00000  -0.00000   0.00005   0.00005   0.00001
    D9        0.00001  -0.00000   0.00000  -0.00002  -0.00002  -0.00000
   D10       -3.14156  -0.00000   0.00000  -0.00003  -0.00003   3.14159
   D11       -3.14159  -0.00000  -0.00000  -0.00000  -0.00001  -3.14159
   D12        0.00002  -0.00000  -0.00000  -0.00002  -0.00002   0.00000
   D13       -0.00003   0.00000  -0.00000   0.00004   0.00004   0.00001
   D14       -3.14158  -0.00000   0.00001  -0.00003  -0.00003   3.14158
   D15        3.14155   0.00000  -0.00000   0.00005   0.00005  -3.14159
   D16       -0.00000  -0.00000   0.00001  -0.00002  -0.00001  -0.00001
   D17        0.00003  -0.00000   0.00000  -0.00005  -0.00004  -0.00001
   D18        3.14158   0.00000  -0.00000   0.00002   0.00002  -3.14158
   D19       -0.00002   0.00000  -0.00001   0.00004   0.00003   0.00001
   D20       -3.14156  -0.00000   0.00000  -0.00004  -0.00003   3.14159
         Item               Value     Threshold  Converged?
 Maximum Force            0.000203     0.000450     YES
 RMS     Force            0.000084     0.000300     YES
 Maximum Displacement     0.002223     0.001800     NO 
 RMS     Displacement     0.000646     0.001200     YES
 Predicted change in Energy=-6.975422D-07
 GradGradGradGradGradGradGradGradGradGradGradGradGradGradGradGradGradGrad

                          Input orientation:                          
 ---------------------------------------------------------------------
 Center     Atomic      Atomic             Coordinates (Angstroms)
 Number     Number       Type             X           Y           Z
 ---------------------------------------------------------------------
      1          6           0        0.695363   -1.196637   -0.000046
      2          6           0        1.406397    0.000951   -0.000035
      3          6           0        0.693753    1.197586   -0.000044
      4          6           0       -0.700309    1.139163   -0.000069
      5          7           0       -1.388021   -0.000925   -0.000077
      6          6           0       -0.698780   -1.140085   -0.000074
      7          1           0        1.208228   -2.160220   -0.000031
      8          1           0        2.498869    0.001690   -0.000013
      9          1           0        1.205334    2.161850   -0.000032
     10          1           0       -1.289043    2.063271   -0.000064
     11          1           0       -1.286270   -2.064985   -0.000076
 ---------------------------------------------------------------------
                    Distance matrix (angstroms):
                    1          2          3          4          5
     1  C    0.000000
     2  C    1.392762   0.000000
     3  C    2.394223   1.392766   0.000000
     4  C    2.721004   2.394523   1.395286   0.000000
     5  N    2.402127   2.794418   2.402126   1.331446   0.000000
     6  C    1.395290   2.394521   2.721002   2.279248   1.331442
     7  H    1.091568   2.170237   3.396990   3.811619   3.376842
     8  H    2.165322   1.092473   2.165320   3.395377   3.886891
     9  H    3.396985   2.170234   1.091568   2.162722   3.376845
    10  H    3.816395   3.393901   2.163537   1.095712   2.066568
    11  H    2.163538   3.393898   3.816393   3.257286   2.066567
                    6          7          8          9         10
     6  C    0.000000
     7  H    2.162719   0.000000
     8  H    3.395381   2.517858   0.000000
     9  H    3.811617   4.322071   2.517842   0.000000
    10  H    3.257284   4.906551   4.312586   2.496324   0.000000
    11  H    1.095712   2.496315   4.312589   4.906549   4.128257
                   11
    11  H    0.000000
 Stoichiometry    C5H5N
 Framework group  C1[X(C5H5N)]
 Deg. of freedom    27
 Full point group                 C1      NOp   1
 Largest Abelian subgroup         C1      NOp   1
 Largest concise Abelian subgroup C1      NOp   1
                         Standard orientation:                         
 ---------------------------------------------------------------------
 Center     Atomic      Atomic             Coordinates (Angstroms)
 Number     Number       Type             X           Y           Z
 ---------------------------------------------------------------------
      1          6           0       -1.197118    0.670751   -0.000011
      2          6           0       -0.000014    1.382599   -0.000022
      3          6           0        1.197106    0.670770   -0.000012
      4          6           0        1.139632   -0.723332    0.000013
      5          7           0        0.000012   -1.411819    0.000021
      6          6           0       -1.139616   -0.723354    0.000018
      7          1           0       -2.161049    1.182960   -0.000026
      8          1           0       -0.000018    2.475072   -0.000043
      9          1           0        2.161022    1.183007   -0.000024
     10          1           0        2.064141   -1.311437    0.000008
     11          1           0       -2.064117   -1.311473    0.000019
 ---------------------------------------------------------------------
 Rotational constants (GHZ):           6.0477476           5.8353976           2.9698376
 Standard basis: def2SVP (5D, 7F)
 There are   115 symmetry adapted cartesian basis functions of A   symmetry.
 There are   109 symmetry adapted basis functions of A   symmetry.
   109 basis functions,   185 primitive gaussians,   115 cartesian basis functions
    21 alpha electrons       21 beta electrons
       nuclear repulsion energy       206.1628363187 Hartrees.
 NAtoms=   11 NActive=   11 NUniq=   11 SFac= 1.00D+00 NAtFMM=   60 NAOKFM=F Big=F
 Integral buffers will be    131072 words long.
 Raffenetti 2 integral format.
 Two-electron integral symmetry is turned on.
 Nuclear repulsion after empirical dispersion term =      206.1594206045 Hartrees.
 One-electron integrals computed using PRISM.
   1 Symmetry operations used in ECPInt.
 ECPInt:  NShTT=    1326 NPrTT=    4846 LenC2=    1326 LenP2D=    4125.
 LDataN:  DoStor=T MaxTD1= 4 Len=   56
 NBasis=   109 RedAO= T EigKep=  7.53D-04  NBF=   109
 NBsUse=   109 1.00D-06 EigRej= -1.00D+00 NBFU=   109
 Initial guess from the checkpoint file:  "Py1_1.chk"
 B after Tr=    -0.000000    0.000000    0.000000
         Rot=    1.000000    0.000001    0.000000    0.000017 Ang=   0.00 deg.
 Keep R1 ints in memory in canonical form, NReq=51641367.
 Requested convergence on RMS density matrix=1.00D-08 within 128 cycles.
 Requested convergence on MAX density matrix=1.00D-06.
 Requested convergence on             energy=1.00D-06.
 No special actions if energy rises.
 SCF Done:  E(RwB97XD) =  -248.016503352     A.U. after    7 cycles
            NFock=  7  Conv=0.56D-08     -V/T= 2.0108
   1 Symmetry operations used in ECPInt.
 ECPInt:  NShTT=    1326 NPrTT=    4846 LenC2=    1326 LenP2D=    4125.
 LDataN:  DoStor=T MaxTD1= 5 Len=  102
 Calling FoFJK, ICntrl=      2127 FMM=F ISym2X=0 I1Cent= 0 IOpClX= 0 NMat=1 NMatS=1 NMatT=0.
 ***** Axes restored to original set *****
 -------------------------------------------------------------------
 Center     Atomic                   Forces (Hartrees/Bohr)
 Number     Number              X              Y              Z
 -------------------------------------------------------------------
      1        6           0.000049652    0.000029591   -0.000000623
      2        6           0.000047964    0.000002044    0.000000479
      3        6           0.000053194   -0.000031501   -0.000000826
      4        6          -0.000040574    0.000013524    0.000001966
      5        7          -0.000029022    0.000001482   -0.000001487
      6        6          -0.000037913   -0.000015311    0.000001952
      7        1          -0.000021119   -0.000023647   -0.000000298
      8        1           0.000005041   -0.000000458    0.000000012
      9        1          -0.000021992    0.000024101   -0.000000057
     10        1          -0.000002544    0.000015871   -0.000000630
     11        1          -0.000002688   -0.000015694   -0.000000488
 -------------------------------------------------------------------
 Cartesian Forces:  Max     0.000053194 RMS     0.000022315

 GradGradGradGradGradGradGradGradGradGradGradGradGradGradGradGradGradGrad
 Berny optimization.
 Using GEDIIS/GDIIS optimizer.
 FormGI is forming the generalized inverse of G from B-inverse, IUseBI=4.
 Internal  Forces:  Max     0.000056453 RMS     0.000018248
 Search for a local minimum.
 Step number   4 out of a maximum of   57
 All quantities printed in internal units (Hartrees-Bohrs-Radians)
 Mixed Optimization -- En-DIIS/RFO-DIIS
 Swapping is turned off.
 Update second derivatives using D2CorX and points    1    2    3    4
 DE= -7.59D-07 DEPred=-6.98D-07 R= 1.09D+00
 Trust test= 1.09D+00 RLast= 2.77D-03 DXMaxT set to 3.00D-01
 ITU=  0  1  1  0
     Eigenvalues ---    0.02267   0.02269   0.02272   0.02276   0.02321
     Eigenvalues ---    0.02395   0.02429   0.02627   0.12035   0.16000
     Eigenvalues ---    0.16000   0.16000   0.16178   0.21708   0.22000
     Eigenvalues ---    0.24325   0.35696   0.35869   0.35946   0.36086
     Eigenvalues ---    0.36441   0.43509   0.46973   0.48008   0.52297
     Eigenvalues ---    0.60519   0.63853
 En-DIIS/RFO-DIIS/Sim-DIIS IScMMF=       -3 using points:     4    3    2
 RFO step:  Lambda=-6.91718491D-08.
 DidBck=F Rises=F RFO-DIIS coefs:    1.17257   -0.16472   -0.00785
 Iteration  1 RMS(Cart)=  0.00013519 RMS(Int)=  0.00000002
 Iteration  2 RMS(Cart)=  0.00000002 RMS(Int)=  0.00000000
 Variable       Old X    -DE/DX   Delta X   Delta X   Delta X     New X
                                 (Linear)    (Quad)   (Total)
    R1        2.63194   0.00002   0.00000   0.00004   0.00004   2.63198
    R2        2.63672   0.00005  -0.00009   0.00019   0.00010   2.63682
    R3        2.06277   0.00001  -0.00006   0.00008   0.00002   2.06278
    R4        2.63195   0.00002  -0.00000   0.00004   0.00004   2.63199
    R5        2.06447   0.00001  -0.00006   0.00006   0.00000   2.06448
    R6        2.63671   0.00006  -0.00009   0.00019   0.00011   2.63681
    R7        2.06277   0.00001  -0.00006   0.00008   0.00002   2.06278
    R8        2.51607   0.00002   0.00001   0.00002   0.00003   2.51610
    R9        2.07059   0.00001  -0.00004   0.00007   0.00003   2.07063
   R10        2.51606   0.00002   0.00001   0.00002   0.00003   2.51610
   R11        2.07060   0.00001  -0.00004   0.00007   0.00003   2.07063
    A1        2.06604   0.00002   0.00004   0.00007   0.00011   2.06616
    A2        2.11669   0.00002   0.00016   0.00005   0.00020   2.11689
    A3        2.10045  -0.00004  -0.00019  -0.00012  -0.00031   2.10014
    A4        2.06867  -0.00003  -0.00007  -0.00011  -0.00019   2.06848
    A5        2.10726   0.00002   0.00003   0.00006   0.00009   2.10735
    A6        2.10725   0.00002   0.00004   0.00006   0.00010   2.10735
    A7        2.06605   0.00002   0.00004   0.00007   0.00011   2.06616
    A8        2.11668   0.00002   0.00016   0.00005   0.00021   2.11689
    A9        2.10046  -0.00004  -0.00020  -0.00012  -0.00032   2.10014
   A10        2.15546   0.00000   0.00005  -0.00000   0.00004   2.15550
   A11        2.09615  -0.00001  -0.00016   0.00006  -0.00011   2.09605
   A12        2.03158   0.00000   0.00012  -0.00005   0.00006   2.03164
   A13        2.05470  -0.00002  -0.00009  -0.00003  -0.00012   2.05458
   A14        2.15546   0.00000   0.00004  -0.00000   0.00004   2.15550
   A15        2.09615  -0.00001  -0.00016   0.00006  -0.00010   2.09605
   A16        2.03158   0.00000   0.00012  -0.00005   0.00006   2.03164
    D1        0.00001  -0.00000   0.00000  -0.00001  -0.00001  -0.00000
    D2       -3.14159  -0.00000  -0.00000   0.00000  -0.00000  -3.14159
    D3       -3.14158  -0.00000   0.00000  -0.00002  -0.00001   3.14159
    D4        0.00000  -0.00000   0.00000  -0.00000  -0.00000  -0.00000
    D5       -0.00001   0.00000  -0.00000   0.00002   0.00002   0.00001
    D6       -3.14158  -0.00000   0.00001  -0.00002  -0.00001   3.14159
    D7        3.14158   0.00000  -0.00000   0.00002   0.00002  -3.14159
    D8        0.00001  -0.00000   0.00001  -0.00002  -0.00001  -0.00001
    D9       -0.00000   0.00000  -0.00000   0.00001   0.00001   0.00000
   D10        3.14159   0.00000  -0.00001   0.00001   0.00001  -3.14159
   D11       -3.14159  -0.00000  -0.00000  -0.00000  -0.00000   3.14159
   D12        0.00000  -0.00000  -0.00000   0.00000  -0.00000   0.00000
   D13        0.00001  -0.00000   0.00001  -0.00002  -0.00001  -0.00001
   D14        3.14158   0.00000  -0.00000   0.00002   0.00002  -3.14159
   D15       -3.14159  -0.00000   0.00001  -0.00002  -0.00001   3.14159
   D16       -0.00001   0.00000  -0.00000   0.00002   0.00002   0.00001
   D17       -0.00001   0.00000  -0.00001   0.00003   0.00002   0.00001
   D18       -3.14158  -0.00000   0.00000  -0.00001  -0.00001   3.14159
   D19        0.00001  -0.00000   0.00000  -0.00003  -0.00002  -0.00001
   D20        3.14159   0.00000  -0.00001   0.00001   0.00001  -3.14159
         Item               Value     Threshold  Converged?
 Maximum Force            0.000056     0.000450     YES
 RMS     Force            0.000018     0.000300     YES
 Maximum Displacement     0.000461     0.001800     YES
 RMS     Displacement     0.000135     0.001200     YES
 Predicted change in Energy=-3.458418D-08
 Optimization completed.
    -- Stationary point found.
                           ----------------------------
                           !   Optimized Parameters   !
                           ! (Angstroms and Degrees)  !
 --------------------------                            --------------------------
 ! Name  Definition              Value          Derivative Info.                !
 --------------------------------------------------------------------------------
 ! R1    R(1,2)                  1.3928         -DE/DX =    0.0                 !
 ! R2    R(1,6)                  1.3953         -DE/DX =    0.0001              !
 ! R3    R(1,7)                  1.0916         -DE/DX =    0.0                 !
 ! R4    R(2,3)                  1.3928         -DE/DX =    0.0                 !
 ! R5    R(2,8)                  1.0925         -DE/DX =    0.0                 !
 ! R6    R(3,4)                  1.3953         -DE/DX =    0.0001              !
 ! R7    R(3,9)                  1.0916         -DE/DX =    0.0                 !
 ! R8    R(4,5)                  1.3314         -DE/DX =    0.0                 !
 ! R9    R(4,10)                 1.0957         -DE/DX =    0.0                 !
 ! R10   R(5,6)                  1.3314         -DE/DX =    0.0                 !
 ! R11   R(6,11)                 1.0957         -DE/DX =    0.0                 !
 ! A1    A(2,1,6)              118.3756         -DE/DX =    0.0                 !
 ! A2    A(2,1,7)              121.2774         -DE/DX =    0.0                 !
 ! A3    A(6,1,7)              120.3469         -DE/DX =    0.0                 !
 ! A4    A(1,2,3)              118.526          -DE/DX =    0.0                 !
 ! A5    A(1,2,8)              120.7373         -DE/DX =    0.0                 !
 ! A6    A(3,2,8)              120.7367         -DE/DX =    0.0                 !
 ! A7    A(2,3,4)              118.3757         -DE/DX =    0.0                 !
 ! A8    A(2,3,9)              121.2768         -DE/DX =    0.0                 !
 ! A9    A(4,3,9)              120.3475         -DE/DX =    0.0                 !
 ! A10   A(3,4,5)              123.4985         -DE/DX =    0.0                 !
 ! A11   A(3,4,10)             120.1008         -DE/DX =    0.0                 !
 ! A12   A(5,4,10)             116.4007         -DE/DX =    0.0                 !
 ! A13   A(4,5,6)              117.7255         -DE/DX =    0.0                 !
 ! A14   A(1,6,5)              123.4986         -DE/DX =    0.0                 !
 ! A15   A(1,6,11)             120.1005         -DE/DX =    0.0                 !
 ! A16   A(5,6,11)             116.4009         -DE/DX =    0.0                 !
 ! D1    D(6,1,2,3)              0.0004         -DE/DX =    0.0                 !
 ! D2    D(6,1,2,8)           -180.0            -DE/DX =    0.0                 !
 ! D3    D(7,1,2,3)            180.0005         -DE/DX =    0.0                 !
 ! D4    D(7,1,2,8)              0.0002         -DE/DX =    0.0                 !
 ! D5    D(2,1,6,5)             -0.0007         -DE/DX =    0.0                 !
 ! D6    D(2,1,6,11)           180.0005         -DE/DX =    0.0                 !
 ! D7    D(7,1,6,5)           -180.0008         -DE/DX =    0.0                 !
 ! D8    D(7,1,6,11)             0.0003         -DE/DX =    0.0                 !
 ! D9    D(1,2,3,4)             -0.0002         -DE/DX =    0.0                 !
 ! D10   D(1,2,3,9)           -180.0002         -DE/DX =    0.0                 !
 ! D11   D(8,2,3,4)            180.0001         -DE/DX =    0.0                 !
 ! D12   D(8,2,3,9)              0.0001         -DE/DX =    0.0                 !
 ! D13   D(2,3,4,5)              0.0004         -DE/DX =    0.0                 !
 ! D14   D(2,3,4,10)          -180.0008         -DE/DX =    0.0                 !
 ! D15   D(9,3,4,5)            180.0004         -DE/DX =    0.0                 !
 ! D16   D(9,3,4,10)            -0.0008         -DE/DX =    0.0                 !
 ! D17   D(3,4,5,6)             -0.0007         -DE/DX =    0.0                 !
 ! D18   D(10,4,5,6)           180.0005         -DE/DX =    0.0                 !
 ! D19   D(4,5,6,1)              0.0008         -DE/DX =    0.0                 !
 ! D20   D(4,5,6,11)          -180.0003         -DE/DX =    0.0                 !
 --------------------------------------------------------------------------------
 GradGradGradGradGradGradGradGradGradGradGradGradGradGradGradGradGradGrad

                          Input orientation:                          
 ---------------------------------------------------------------------
 Center     Atomic      Atomic             Coordinates (Angstroms)
 Number     Number       Type             X           Y           Z
 ---------------------------------------------------------------------
      1          6           0        0.695363   -1.196637   -0.000046
      2          6           0        1.406397    0.000951   -0.000035
      3          6           0        0.693753    1.197586   -0.000044
      4          6           0       -0.700309    1.139163   -0.000069
      5          7           0       -1.388021   -0.000925   -0.000077
      6          6           0       -0.698780   -1.140085   -0.000074
      7          1           0        1.208228   -2.160220   -0.000031
      8          1           0        2.498869    0.001690   -0.000013
      9          1           0        1.205334    2.161850   -0.000032
     10          1           0       -1.289043    2.063271   -0.000064
     11          1           0       -1.286270   -2.064985   -0.000076
 ---------------------------------------------------------------------
                    Distance matrix (angstroms):
                    1          2          3          4          5
     1  C    0.000000
     2  C    1.392762   0.000000
     3  C    2.394223   1.392766   0.000000
     4  C    2.721004   2.394523   1.395286   0.000000
     5  N    2.402127   2.794418   2.402126   1.331446   0.000000
     6  C    1.395290   2.394521   2.721002   2.279248   1.331442
     7  H    1.091568   2.170237   3.396990   3.811619   3.376842
     8  H    2.165322   1.092473   2.165320   3.395377   3.886891
     9  H    3.396985   2.170234   1.091568   2.162722   3.376845
    10  H    3.816395   3.393901   2.163537   1.095712   2.066568
    11  H    2.163538   3.393898   3.816393   3.257286   2.066567
                    6          7          8          9         10
     6  C    0.000000
     7  H    2.162719   0.000000
     8  H    3.395381   2.517858   0.000000
     9  H    3.811617   4.322071   2.517842   0.000000
    10  H    3.257284   4.906551   4.312586   2.496324   0.000000
    11  H    1.095712   2.496315   4.312589   4.906549   4.128257
                   11
    11  H    0.000000
 Stoichiometry    C5H5N
 Framework group  C1[X(C5H5N)]
 Deg. of freedom    27
 Full point group                 C1      NOp   1
 Largest Abelian subgroup         C1      NOp   1
 Largest concise Abelian subgroup C1      NOp   1
                         Standard orientation:                         
 ---------------------------------------------------------------------
 Center     Atomic      Atomic             Coordinates (Angstroms)
 Number     Number       Type             X           Y           Z
 ---------------------------------------------------------------------
      1          6           0       -1.197118    0.670751   -0.000011
      2          6           0       -0.000014    1.382599   -0.000022
      3          6           0        1.197106    0.670770   -0.000012
      4          6           0        1.139632   -0.723332    0.000013
      5          7           0        0.000012   -1.411819    0.000021
      6          6           0       -1.139616   -0.723354    0.000018
      7          1           0       -2.161049    1.182960   -0.000026
      8          1           0       -0.000018    2.475072   -0.000043
      9          1           0        2.161022    1.183007   -0.000024
     10          1           0        2.064141   -1.311437    0.000008
     11          1           0       -2.064117   -1.311473    0.000019
 ---------------------------------------------------------------------
 Rotational constants (GHZ):           6.0477476           5.8353976           2.9698376

 **********************************************************************

            Population analysis using the SCF Density.

 **********************************************************************

 Orbital symmetries:
       Occupied  (A) (A) (A) (A) (A) (A) (A) (A) (A) (A) (A) (A)
                 (A) (A) (A) (A) (A) (A) (A) (A) (A)
       Virtual   (A) (A) (A) (A) (A) (A) (A) (A) (A) (A) (A) (A)
                 (A) (A) (A) (A) (A) (A) (A) (A) (A) (A) (A) (A)
                 (A) (A) (A) (A) (A) (A) (A) (A) (A) (A) (A) (A)
                 (A) (A) (A) (A) (A) (A) (A) (A) (A) (A) (A) (A)
                 (A) (A) (A) (A) (A) (A) (A) (A) (A) (A) (A) (A)
                 (A) (A) (A) (A) (A) (A) (A) (A) (A) (A) (A) (A)
                 (A) (A) (A) (A) (A) (A) (A) (A) (A) (A) (A) (A)
                 (A) (A) (A) (A)
 The electronic state is 1-A.
 Alpha  occ. eigenvalues --  -14.44046 -10.33714 -10.33713 -10.32533 -10.31416
 Alpha  occ. eigenvalues --  -10.31415  -1.04099  -0.90104  -0.85691  -0.72257
 Alpha  occ. eigenvalues --   -0.71941  -0.62204  -0.57418  -0.55578  -0.51744
 Alpha  occ. eigenvalues --   -0.49489  -0.49205  -0.44994  -0.37292  -0.34588
 Alpha  occ. eigenvalues --   -0.33765
 Alpha virt. eigenvalues --    0.03990   0.05084   0.14055   0.17752   0.19552
 Alpha virt. eigenvalues --    0.21958   0.22084   0.22548   0.29461   0.35743
 Alpha virt. eigenvalues --    0.37353   0.38160   0.41981   0.47205   0.47473
 Alpha virt. eigenvalues --    0.49389   0.54385   0.55149   0.55368   0.56438
 Alpha virt. eigenvalues --    0.61149   0.61969   0.67708   0.68176   0.68263
 Alpha virt. eigenvalues --    0.71172   0.72200   0.72801   0.75078   0.78704
 Alpha virt. eigenvalues --    0.81283   0.82101   0.82957   0.85323   0.89591
 Alpha virt. eigenvalues --    0.97734   0.98272   1.08181   1.09381   1.23274
 Alpha virt. eigenvalues --    1.23575   1.27270   1.31758   1.33824   1.34719
 Alpha virt. eigenvalues --    1.40701   1.40859   1.43553   1.59068   1.72959
 Alpha virt. eigenvalues --    1.73237   1.78649   1.80764   1.82408   1.84426
 Alpha virt. eigenvalues --    1.85340   1.87367   1.87455   1.91950   2.00021
 Alpha virt. eigenvalues --    2.00185   2.04284   2.06116   2.06169   2.10712
 Alpha virt. eigenvalues --    2.19322   2.21404   2.26892   2.32970   2.37291
 Alpha virt. eigenvalues --    2.42171   2.48659   2.52472   2.53247   2.57144
 Alpha virt. eigenvalues --    2.67261   2.71025   2.79044   2.79256   2.79799
 Alpha virt. eigenvalues --    2.90942   2.97011   3.02921   3.10506   3.20278
 Alpha virt. eigenvalues --    3.22425   3.41765   3.74536
          Condensed to atoms (all electrons):
               1          2          3          4          5          6
     1  C    4.964221   0.435721   0.000116  -0.064401  -0.037611   0.450212
     2  C    0.435721   4.842021   0.435722  -0.015129  -0.047679  -0.015129
     3  C    0.000116   0.435722   4.964219   0.450213  -0.037611  -0.064401
     4  C   -0.064401  -0.015129   0.450213   4.737395   0.525460  -0.060636
     5  N   -0.037611  -0.047679  -0.037611   0.525460   6.289462   0.525464
     6  C    0.450212  -0.015129  -0.064401  -0.060636   0.525464   4.737395
     7  H    0.419443  -0.053539   0.010275  -0.000091   0.005362  -0.040786
     8  H   -0.054135   0.437180  -0.054134   0.008946  -0.000332   0.008946
     9  H    0.010276  -0.053539   0.419443  -0.040787   0.005362  -0.000091
    10  H    0.000542   0.006515  -0.067269   0.423625  -0.038932   0.005011
    11  H   -0.067269   0.006515   0.000542   0.005011  -0.038932   0.423624
               7          8          9         10         11
     1  C    0.419443  -0.054135   0.010276   0.000542  -0.067269
     2  C   -0.053539   0.437180  -0.053539   0.006515   0.006515
     3  C    0.010275  -0.054134   0.419443  -0.067269   0.000542
     4  C   -0.000091   0.008946  -0.040787   0.423625   0.005011
     5  N    0.005362  -0.000332   0.005362  -0.038932  -0.038932
     6  C   -0.040786   0.008946  -0.000091   0.005011   0.423624
     7  H    0.642118  -0.010234  -0.000109   0.000064  -0.006090
     8  H   -0.010234   0.637568  -0.010234  -0.000232  -0.000232
     9  H   -0.000109  -0.010234   0.642118  -0.006090   0.000064
    10  H    0.000064  -0.000232  -0.006090   0.637979  -0.000238
    11  H   -0.006090  -0.000232   0.000064  -0.000238   0.637980
 Mulliken charges:
               1
     1  C   -0.057115
     2  C    0.021342
     3  C   -0.057116
     4  C    0.030394
     5  N   -0.150013
     6  C    0.030392
     7  H    0.033587
     8  H    0.036892
     9  H    0.033587
    10  H    0.039025
    11  H    0.039025
 Sum of Mulliken charges =  -0.00000
 Mulliken charges with hydrogens summed into heavy atoms:
               1
     1  C   -0.023528
     2  C    0.058234
     3  C   -0.023529
     4  C    0.069419
     5  N   -0.150013
     6  C    0.069417
 Electronic spatial extent (au):  <R**2>=            433.8079
 Charge=             -0.0000 electrons
 Dipole moment (field-independent basis, Debye):
    X=             -0.0000    Y=              2.1964    Z=             -0.0000  Tot=              2.1964
 Quadrupole moment (field-independent basis, Debye-Ang):
   XX=            -29.3087   YY=            -35.9988   ZZ=            -37.3408
   XY=              0.0001   XZ=             -0.0000   YZ=             -0.0000
 Traceless Quadrupole moment (field-independent basis, Debye-Ang):
   XX=              4.9074   YY=             -1.7827   ZZ=             -3.1247
   XY=              0.0001   XZ=             -0.0000   YZ=             -0.0000
[...]
      9          1           0        2.161022    1.183007   -0.000024
     10          1           0        2.064141   -1.311437    0.000008
     11          1           0       -2.064117   -1.311473    0.000019
 ---------------------------------------------------------------------
 Rotational constants (GHZ):           6.0477476           5.8353976           2.9698376
 Standard basis: def2TZVP (5D, 7F)
 There are   246 symmetry adapted cartesian basis functions of A   symmetry.
 There are   216 symmetry adapted basis functions of A   symmetry.
   216 basis functions,   346 primitive gaussians,   246 cartesian basis functions
    21 alpha electrons       21 beta electrons
       nuclear repulsion energy       206.1628363187 Hartrees.
 NAtoms=   11 NActive=   11 NUniq=   11 SFac= 1.00D+00 NAtFMM=   60 NAOKFM=F Big=F
 Integral buffers will be    131072 words long.
 Raffenetti 2 integral format.
 Two-electron integral symmetry is turned on.
 Nuclear repulsion after empirical dispersion term =      206.1594206045 Hartrees.
 One-electron integrals computed using PRISM.
   1 Symmetry operations used in ECPInt.
 ECPInt:  NShTT=    3741 NPrTT=   11472 LenC2=    3724 LenP2D=    9656.
 LDataN:  DoStor=T MaxTD1= 6 Len=  172
 NBasis=   216 RedAO= T EigKep=  6.23D-05  NBF=   216
 NBsUse=   216 1.00D-06 EigRej= -1.00D+00 NBFU=   216
 Initial guess from the checkpoint file:  "Py1_1.chk"
 B after Tr=     0.000000    0.000000   -0.000000
         Rot=    1.000000   -0.000000    0.000000    0.000000 Ang=   0.00 deg.
 Keep R1 ints in memory in canonical form, NReq=571596444.
 Requested convergence on RMS density matrix=1.00D-08 within 128 cycles.
 Requested convergence on MAX density matrix=1.00D-06.
 Requested convergence on             energy=1.00D-06.
 No special actions if energy rises.
 SCF Done:  E(RwB97XD) =  -248.282877811     A.U. after    1 cycles
            NFock=  1  Conv=0.66D-09     -V/T= 2.0055
 DoSCS=F DFT=T ScalE2(SS,OS)=  1.000000  1.000000
 Range of M.O.s used for correlation:     1   216
 NBasis=   216 NAE=    21 NBE=    21 NFC=     0 NFV=     0
 NROrb=    216 NOA=    21 NOB=    21 NVA=   195 NVB=   195

 **** Warning!!: The largest alpha MO coefficient is  0.25262546D+02

          Differentiating once with respect to magnetic field using GIAOs.
          Electric field/nuclear overlap derivatives assumed to be zero.
 Keep R3 ints in memory in canonical form, NReq=575052868.
   1 Symmetry operations used in ECPInt.
 ECPInt:  NShTT=    3741 NPrTT=   11472 LenC2=    3742 LenP2D=   11472.
 LDataN:  DoStor=T MaxTD1= 7 Len=  274
 FoFJK:  IHMeth= 1 ICntrl=    6127 DoSepK=T KAlg= 0 I1Cent=           0 FoldK=F
 IRaf=         1 NMat=       1 IRICut=       1 DoRegI=T DoRafI=F ISym2E= 0 IDoP0=0 IntGTp=1.
          There are     3 degrees of freedom in the 1st order CPHF.  IDoFFX=0 NUNeed=     3.
      3 vectors produced by pass  0 Test12= 1.36D-13 3.33D-08 XBig12= 3.06D+00 6.49D-01.
 AX will form     3 AO Fock derivatives at one time.
      3 vectors produced by pass  1 Test12= 1.36D-13 3.33D-08 XBig12= 1.94D-02 9.46D-02.
      3 vectors produced by pass  2 Test12= 1.36D-13 3.33D-08 XBig12= 4.92D-04 1.14D-02.
      3 vectors produced by pass  3 Test12= 1.36D-13 3.33D-08 XBig12= 6.55D-06 7.34D-04.
      3 vectors produced by pass  4 Test12= 1.36D-13 3.33D-08 XBig12= 8.01D-08 9.08D-05.
      3 vectors produced by pass  5 Test12= 1.36D-13 3.33D-08 XBig12= 8.93D-10 1.07D-05.
      3 vectors produced by pass  6 Test12= 1.36D-13 3.33D-08 XBig12= 6.99D-12 1.74D-06.
      3 vectors produced by pass  7 Test12= 1.36D-13 3.33D-08 XBig12= 9.77D-14 1.50D-07.
 InvSVY:  IOpt=1 It=  1 EMax= 2.22D-16
 Solved reduced A of dimension    24 with     3 vectors.
 Calculating GIAO nuclear magnetic shielding tensors.
 SCF GIAO Magnetic shielding tensor (ppm):
      1  C    Isotropic =    57.8555   Anisotropy =   179.6164
   XX=   -24.7584   YX=    43.2864   ZX=    -0.0016
   XY=    62.8072   YY=    20.7251   ZY=     0.0035
   XZ=    -0.0029   YZ=     0.0035   ZZ=   177.5997
   Eigenvalues:   -59.7327    55.6994   177.5997
      2  C    Isotropic =    44.3431   Anisotropy =   207.7015
   XX=    25.4967   YX=     0.0012   ZX=     0.0000
   XY=     0.0007   YY=   -75.2781   ZY=     0.0048
   XZ=     0.0002   YZ=     0.0056   ZZ=   182.8107
   Eigenvalues:   -75.2781    25.4967   182.8107
      3  C    Isotropic =    57.8555   Anisotropy =   179.6165
   XX=   -24.7566   YX=   -43.2877   ZX=     0.0015
   XY=   -62.8076   YY=    20.7232   ZY=     0.0030
   XZ=     0.0037   YZ=     0.0035   ZZ=   177.5998
   Eigenvalues:   -59.7329    55.6995   177.5998
      4  C    Isotropic =    29.6411   Anisotropy =   178.7311
   XX=   -68.5071   YX=    52.2145   ZX=     0.0005
   XY=    29.0792   YY=     8.6352   ZY=     0.0017
   XZ=     0.0011   YZ=     0.0016   ZZ=   148.7952
   Eigenvalues:   -85.9708    26.0989   148.7952
      5  N    Isotropic =   -94.3866   Anisotropy =   591.9820
   XX=  -402.5093   YX=    -0.0024   ZX=     0.0018
   XY=    -0.0020   YY=  -180.9187   ZY=     0.0052
   XZ=     0.0002   YZ=     0.0027   ZZ=   300.2680
   Eigenvalues:  -402.5093  -180.9187   300.2680
      6  C    Isotropic =    29.6408   Anisotropy =   178.7314
   XX=   -68.5058   YX=   -52.2166   ZX=     0.0006
   XY=   -29.0810   YY=     8.6330   ZY=     0.0022
   XZ=    -0.0006   YZ=     0.0016   ZZ=   148.7951
   Eigenvalues:   -85.9714    26.0986   148.7951
      7  H    Isotropic =    24.2232   Anisotropy =     5.5717
   XX=    24.8573   YX=     2.0584   ZX=    -0.0001
   XY=     2.9135   YY=    25.9315   ZY=    -0.0000
   XZ=    -0.0001   YZ=    -0.0001   ZZ=    21.8810
   Eigenvalues:    21.8810    22.8510    27.9377
      8  H    Isotropic =    23.8103   Anisotropy =     5.4277
   XX=    27.4288   YX=     0.0000   ZX=    -0.0000
   XY=    -0.0000   YY=    22.7815   ZY=    -0.0000
   XZ=    -0.0000   YZ=    -0.0001   ZZ=    21.2205
   Eigenvalues:    21.2205    22.7815    27.4288
      9  H    Isotropic =    24.2232   Anisotropy =     5.5718
   XX=    24.8574   YX=    -2.0585   ZX=     0.0000
   XY=    -2.9136   YY=    25.9313   ZY=    -0.0001
   XZ=     0.0001   YZ=    -0.0000   ZZ=    21.8810
   Eigenvalues:    21.8810    22.8510    27.9377
     10  H    Isotropic =    22.6832   Anisotropy =     6.5474
   XX=    22.0079   YX=     0.8429   ZX=     0.0000
   XY=     1.6800   YY=    26.7325   ZY=    -0.0001
   XZ=    -0.0001   YZ=    -0.0001   ZZ=    19.3093
   Eigenvalues:    19.3093    21.6922    27.0482
     11  H    Isotropic =    22.6832   Anisotropy =     6.5474
   XX=    22.0079   YX=    -0.8430   ZX=    -0.0000
   XY=    -1.6801   YY=    26.7324   ZY=    -0.0001
   XZ=     0.0001   YZ=    -0.0001   ZZ=    19.3093
   Eigenvalues:    19.3093    21.6922    27.0482
 End of Minotr F.D. properties file   721 does not exist.
 End of Minotr F.D. properties file   722 does not exist.
 End of Minotr F.D. properties file   788 does not exist.

 **********************************************************************

            Population analysis using the SCF Density.

 **********************************************************************

 Orbital symmetries:
       Occupied  (A) (A) (A) (A) (A) (A) (A) (A) (A) (A) (A) (A)
                 (A) (A) (A) (A) (A) (A) (A) (A) (A)
       Virtual   (A) (A) (A) (A) (A) (A) (A) (A) (A) (A) (A) (A)
                 (A) (A) (A) (A) (A) (A) (A) (A) (A) (A) (A) (A)
                 (A) (A) (A) (A) (A) (A) (A) (A) (A) (A) (A) (A)
                 (A) (A) (A) (A) (A) (A) (A) (A) (A) (A) (A) (A)
                 (A) (A) (A) (A) (A) (A) (A) (A) (A) (A) (A) (A)
                 (A) (A) (A) (A) (A) (A) (A) (A) (A) (A) (A) (A)
                 (A) (A) (A) (A) (A) (A) (A) (A) (A) (A) (A) (A)
                 (A) (A) (A) (A) (A) (A) (A) (A) (A) (A) (A) (A)
                 (A) (A) (A) (A) (A) (A) (A) (A) (A) (A) (A) (A)
                 (A) (A) (A) (A) (A) (A) (A) (A) (A) (A) (A) (A)
                 (A) (A) (A) (A) (A) (A) (A) (A) (A) (A) (A) (A)
                 (A) (A) (A) (A) (A) (A) (A) (A) (A) (A) (A) (A)
                 (A) (A) (A) (A) (A) (A) (A) (A) (A) (A) (A) (A)
                 (A) (A) (A) (A) (A) (A) (A) (A) (A) (A) (A) (A)
                 (A) (A) (A) (A) (A) (A) (A) (A) (A) (A) (A) (A)
                 (A) (A) (A) (A) (A) (A) (A) (A) (A) (A) (A) (A)
                 (A) (A) (A)
 The electronic state is 1-A.
 Alpha  occ. eigenvalues --  -14.43338 -10.32502 -10.32501 -10.31279 -10.30168
 Alpha  occ. eigenvalues --  -10.30165  -1.04869  -0.90849  -0.86428  -0.72770
 Alpha  occ. eigenvalues --   -0.72520  -0.62341  -0.57277  -0.56031  -0.51707
 Alpha  occ. eigenvalues --   -0.49504  -0.49265  -0.44976  -0.37308  -0.34536
 Alpha  occ. eigenvalues --   -0.34250
 Alpha virt. eigenvalues --    0.03426   0.04665   0.12316   0.15162   0.16235
 Alpha virt. eigenvalues --    0.18203   0.18308   0.20121   0.20848   0.25048
 Alpha virt. eigenvalues --    0.27255   0.27852   0.29800   0.30294   0.30441
 Alpha virt. eigenvalues --    0.31986   0.33369   0.34605   0.37088   0.40517
 Alpha virt. eigenvalues --    0.40555   0.41682   0.42909   0.43242   0.46732
 Alpha virt. eigenvalues --    0.47914   0.49131   0.50321   0.50433   0.52255
 Alpha virt. eigenvalues --    0.54026   0.54770   0.56022   0.56749   0.59573
 Alpha virt. eigenvalues --    0.61423   0.64411   0.68118   0.71688   0.73152
 Alpha virt. eigenvalues --    0.73588   0.75053   0.75443   0.82574   0.82782
 Alpha virt. eigenvalues --    0.84019   0.85244   0.88865   0.94270   0.95601
 Alpha virt. eigenvalues --    0.97816   1.01085   1.08029   1.08539   1.13890
 Alpha virt. eigenvalues --    1.17354   1.18439   1.20256   1.22431   1.27795
 Alpha virt. eigenvalues --    1.31505   1.32288   1.32676   1.36676   1.37189
 Alpha virt. eigenvalues --    1.39341   1.43010   1.47546   1.51045   1.52568
 Alpha virt. eigenvalues --    1.53859   1.56448   1.57983   1.60659   1.62686
 Alpha virt. eigenvalues --    1.67102   1.69426   1.70222   1.75284   1.77411
 Alpha virt. eigenvalues --    1.77819   1.78947   1.83011   1.84989   1.85571
 Alpha virt. eigenvalues --    1.87456   1.99269   1.99513   2.02545   2.06810
 Alpha virt. eigenvalues --    2.12638   2.14101   2.16592   2.22763   2.26638
 Alpha virt. eigenvalues --    2.28961   2.30817   2.31707   2.35635   2.41935
 Alpha virt. eigenvalues --    2.47623   2.52172   2.52600   2.58216   2.62714
 Alpha virt. eigenvalues --    2.66137   2.67920   2.68596   2.70271   2.72983
 Alpha virt. eigenvalues --    2.74948   2.75936   2.76857   2.80934   2.84524
 Alpha virt. eigenvalues --    2.84712   2.86466   2.88608   2.89119   2.94044
 Alpha virt. eigenvalues --    2.96379   2.98507   2.98737   3.02623   3.04300
 Alpha virt. eigenvalues --    3.12442   3.14879   3.15461   3.17693   3.19235
 Alpha virt. eigenvalues --    3.22030   3.23216   3.23849   3.24292   3.28436
 Alpha virt. eigenvalues --    3.29159   3.29828   3.32254   3.33030   3.41956
 Alpha virt. eigenvalues --    3.46002   3.46871   3.47767   3.49527   3.51726
 Alpha virt. eigenvalues --    3.53920   3.56458   3.60325   3.63378   3.75465
 Alpha virt. eigenvalues --    3.79403   3.81027   3.84087   3.89988   3.97078
 Alpha virt. eigenvalues --    3.98293   4.02325   4.09597   4.12363   4.12705
 Alpha virt. eigenvalues --    4.17904   4.20583   4.26365   4.32967   4.36187
 Alpha virt. eigenvalues --    4.40589   4.43750   4.48244   4.53320   4.57632
 Alpha virt. eigenvalues --    4.61133   4.76042   4.79577   4.87180   4.94959
 Alpha virt. eigenvalues --    4.99867   5.00398   5.00748   5.12046   5.12647
 Alpha virt. eigenvalues --    5.19076   5.32921   5.37932   5.43876   5.48031
 Alpha virt. eigenvalues --    5.66337   5.70332   5.85704   6.08647  22.30541
 Alpha virt. eigenvalues --   22.62231  22.69266  22.82543  23.04750  32.47369
          Condensed to atoms (all electrons):
               1          2          3          4          5          6
     1  C    4.889413   0.497010  -0.046506  -0.029483  -0.044313   0.509794
     2  C    0.497010   4.890013   0.497006  -0.004344  -0.056259  -0.004344
     3  C   -0.046506   0.497006   4.889413   0.509798  -0.044313  -0.029483
     4  C   -0.029483  -0.004344   0.509798   4.740152   0.507560  -0.094311
     5  N   -0.044313  -0.056259  -0.044313   0.507560   6.440527   0.507564
     6  C    0.509794  -0.004344  -0.029483  -0.094311   0.507564   4.740153
     7  H    0.418280  -0.057633   0.010474  -0.002736   0.007278  -0.035491
     8  H   -0.041874   0.429691  -0.041874   0.004872  -0.001806   0.004872
     9  H    0.010474  -0.057634   0.418280  -0.035490   0.007277  -0.002736
    10  H   -0.000023   0.002356  -0.064073   0.428867  -0.028854   0.004087
    11  H   -0.064074   0.002356  -0.000023   0.004087  -0.028853   0.428867
               7          8          9         10         11
     1  C    0.418280  -0.041874   0.010474  -0.000023  -0.064074
     2  C   -0.057633   0.429691  -0.057634   0.002356   0.002356
     3  C    0.010474  -0.041874   0.418280  -0.064073  -0.000023
     4  C   -0.002736   0.004872  -0.035490   0.428867   0.004087
     5  N    0.007278  -0.001806   0.007277  -0.028854  -0.028853
     6  C   -0.035491   0.004872  -0.002736   0.004087   0.428867
     7  H    0.536532  -0.006403   0.000126   0.000098  -0.001529
     8  H   -0.006403   0.523086  -0.006403  -0.000206  -0.000206
     9  H    0.000126  -0.006403   0.536532  -0.001529   0.000098
    10  H    0.000098  -0.000206  -0.001529   0.528841  -0.000120
    11  H   -0.001529  -0.000206   0.000098  -0.000120   0.528842
 Mulliken charges:
               1
     1  C   -0.098699
     2  C   -0.138217
     3  C   -0.098698
     4  C   -0.028973
     5  N   -0.265808
     6  C   -0.028973
     7  H    0.131005
     8  H    0.136251
     9  H    0.131005
    10  H    0.130554
    11  H    0.130554
 Sum of Mulliken charges =  -0.00000
 Mulliken charges with hydrogens summed into heavy atoms:
               1
     1  C    0.032306
     2  C   -0.001967
     3  C    0.032307
     4  C    0.101581
     5  N   -0.265808
     6  C    0.101581
 Electronic spatial extent (au):  <R**2>=            434.0109
 Charge=             -0.0000 electrons
 Dipole moment (field-independent basis, Debye):
    X=             -0.0000    Y=              2.2439    Z=             -0.0001  Tot=              2.2439
 Quadrupole moment (field-independent basis, Debye-Ang):
   XX=            -29.0510   YY=            -36.0515   ZZ=            -37.8190
   XY=              0.0001   XZ=             -0.0000   YZ=             -0.0000
 Traceless Quadrupole moment (field-independent basis, Debye-Ang):
   XX=              5.2562   YY=             -1.7443   ZZ=             -3.5118
   XY=              0.0001   XZ=             -0.0000   YZ=             -0.0000
 Octapole moment (field-independent basis, Debye-Ang**2):
  XXX=             -0.0000  YYY=             15.4185  ZZZ=              0.0000  XYY=             -0.0001
  XXY=             -2.0724  XXZ=             -0.0001  XZZ=              0.0000  YZZ=             -1.4441
  YYZ=             -0.0003  XYZ=              0.0000
 Hexadecapole moment (field-independent basis, Debye-Ang**3):
 XXXX=           -248.8300 YYYY=           -281.8978 ZZZZ=            -42.3104 XXXY=             -0.0001
 XXXZ=              0.0001 YYYX=              0.0006 YYYZ=              0.0018 ZZZX=              0.0002
 ZZZY=              0.0021 XXYY=            -79.3840 XXZZ=            -58.7583 YYZZ=            -56.8918
 XXYZ=              0.0004 YYXZ=              0.0000 ZZXY=              0.0000
 N-N= 2.061594206045D+02 E-N=-9.889920026595D+02  KE= 2.469363306125D+02
 Breneman (CHELPG) radii used.
 Read replacement radii for each type of atom:
 Atom Element Radius
    1     6    1.50
    2     6    1.50
    3     6    1.50
    4     6    1.50
    5     7    1.70
    6     6    1.50
    7     1    1.45
    8     1    1.45
    9     1    1.45
   10     1    1.45
   11     1    1.45
 Generate Potential Derived Charges using the Breneman model, NDens= 1.
 Grid spacing= 0.300 Box extension= 2.800
 NStep X,Y,Z=   35     32     20   Total possible points=       22400
 Number of Points to Fit=    8858

 **********************************************************************

            Electrostatic Properties Using The SCF Density.

 **********************************************************************

       Atomic Center    1 is at  -1.197118  0.670751 -0.000011
       Atomic Center    2 is at  -0.000014  1.382599 -0.000022
       Atomic Center    3 is at   1.197106  0.670770 -0.000012
       Atomic Center    4 is at   1.139632 -0.723332  0.000013
       Atomic Center    5 is at   0.000012 -1.411819  0.000021
       Atomic Center    6 is at  -1.139616 -0.723354  0.000018
       Atomic Center    7 is at  -2.161049  1.182960 -0.000026
       Atomic Center    8 is at  -0.000018  2.475072 -0.000043
       Atomic Center    9 is at   2.161022  1.183007 -0.000024
       Atomic Center   10 is at   2.064141 -1.311437  0.000008
       Atomic Center   11 is at  -2.064117 -1.311473  0.000019
    8858 points will be used for fitting atomic charges
 Fitting point charges to electrostatic potential
 Charges from ESP fit, RMS=   0.00391 RRMS=   0.28269:
 ESP charges:
               1
     1  C   -0.406168
     2  C    0.208423
     3  C   -0.406167
     4  C    0.448994
     5  N   -0.637914
     6  C    0.449000
     7  H    0.140261
     8  H    0.057320
     9  H    0.140262
    10  H    0.002996
    11  H    0.002994
 Sum of ESP charges =   0.00000
 ESP charges with hydrogens summed into heavy atoms:
               1
     1  C   -0.265907
     2  C    0.265743
     3  C   -0.265905
     4  C    0.451990
     5  N   -0.637914
     6  C    0.451994
 Charge=   0.00000 Dipole=    -0.0000     2.2105    -0.0000 Tot=     2.2105
 -----------------------------------------------------------------

              Electrostatic Properties (Atomic Units)

 -----------------------------------------------------------------
    Center     Electric         -------- Electric Field --------
               Potential          X             Y             Z
 -----------------------------------------------------------------
    1 Atom    -14.757797
    2 Atom    -14.747043
    3 Atom    -14.757798
    4 Atom    -14.734461
    5 Atom    -18.399296
    6 Atom    -14.734461
    7 Atom     -1.091642
    8 Atom     -1.088426
    9 Atom     -1.091642
   10 Atom     -1.105113
   11 Atom     -1.105113
 -----------------------------------------------------------------
 Unable to Open any file for archive entry.
 1\1\GINC-NOTCH079\SP\RwB97XD\def2TZVP\C5H5N1\U1112142\18-Dec-2025\0\\#
 N Guess=Read Geom=Check Integral(Ultrafine) Density Pop=(ChelpG,ReadRa
 dii) NMR wB97XD def2TZVP\\Py1_1\\0,1\C,0,0.6953631631,-1.1966370555,-0
 .0000456934\C,0,1.4063967545,0.0009506227,-0.0000345352\C,0,0.69375281
 34,1.1975855674,-0.0000438867\C,0,-0.7003094771,1.1391630961,-0.000069
 3312\N,0,-1.3880207324,-0.0009248555,-0.0000772795\C,0,-0.6987801153,-
 1.1400846386,-0.0000739062\H,0,1.2082280506,-2.1602195862,-0.000030565
 1\H,0,2.49886901,0.0016900225,-0.0000130602\H,0,1.2053336341,2.1618503
 934,-0.0000319592\H,0,-1.2890434943,2.0632714437,-0.0000641438\H,0,-1.
 2862696065,-2.0649850099,-0.0000756394\\Version=ES64L-G16RevC.01\State
 =1-A\HF=-248.2828778\RMSD=6.570e-10\Dipole=0.8828125,0.000592,0.000020
 1\Quadrupole=-1.2968753,3.9078237,-2.6109485,-0.0034841,0.0000304,0.00
 00062\PG=C01 [X(C5H5N1)]\\@
 The archive entry for this job was punched.


 SOME THINGS ARE EASY, THEY ARE ONLY HARD TO DO.
            -- A. EINSTEIN TO J. O. HIRSCHFELDER
 THE ONLY TROUBLE WITH A SURE THING IS THE UNCERTAINTY.
     -- FROM A TEABAG (BELONGING TO W.H.?)
 Job cpu time:       0 days  0 hours  5 minutes 52.6 seconds.
 Elapsed time:       0 days  0 hours  0 minutes 24.5 seconds.
 File lengths (MBytes):  RWF=     38 Int=      0 D2E=      0 Chk=      6 Scr=      2
 Normal termination of Gaussian 16 at Thu Dec 18 18:29:47 2025.
