 Entering Gaussian System, Link 0=g16
 Input=Py2_1.com
 Output=Py2_1.log
 Initial command:
 /uufs/chpc.utah.edu/sys/installdir/gaussian16/C01/AVX/g16/l1.exe "/scratch/general/vast/u1112142/9381354-notchpeak.peaks/Gau-224632.inp" -scrdir="/scratch/general/vast/u1112142/9381354-notchpeak.peaks/"
 Entering Link 1 = /uufs/chpc.utah.edu/sys/installdir/gaussian16/C01/AVX/g16/l1.exe PID=    224633.
  
 Copyright (c) 1988-2019, Gaussian, Inc.  All Rights Reserved.
  
 This is part of the Gaussian(R) 16 program.  It is based on
 the Gaussian(R) 09 system (copyright 2009, Gaussian, Inc.),
 the Gaussian(R) 03 system (copyright 2003, Gaussian, Inc.),
 the Gaussian(R) 98 system (copyright 1998, Gaussian, Inc.),
 the Gaussian(R) 94 system (copyright 1995, Gaussian, Inc.),
 the Gaussian 92(TM) system (copyright 1992, Gaussian, Inc.),
 the Gaussian 90(TM) system (copyright 1990, Gaussian, Inc.),
 the Gaussian 88(TM) system (copyright 1988, Gaussian, Inc.),
 the Gaussian 86(TM) system (copyright 1986, Carnegie Mellon
 University), and the Gaussian 82(TM) system (copyright 1983,
 Carnegie Mellon University). Gaussian is a federally registered
 trademark of Gaussian, Inc.
  
 This software contains proprietary and confidential information,
 including trade secrets, belonging to Gaussian, Inc.
  
 This software is provided under written license and may be
 used, copied, transmitted, or stored only in accord with that
 written license.
  
 The following legend is applicable only to US Government
 contracts under FAR:
  
                    RESTRICTED RIGHTS LEGEND
  
 Use, reproduction and disclosure by the US Government is
 subject to restrictions as set forth in subparagraphs (a)
 and (c) of the Commercial Computer Software - Restricted
 Rights clause in FAR 52.227-19.
  
 Gaussian, Inc.
 340 Quinnipiac St., Bldg. 40, Wallingford CT 06492
  
  
 ---------------------------------------------------------------
 Warning -- This program may not be used in any manner that
 competes with the business of Gaussian, Inc. or will provide
 assistance to any competitor of Gaussian, Inc.  The licensee
 of this program is prohibited from giving any competitor of
 Gaussian, Inc. access to this program.  By using this program,
 the user acknowledges that Gaussian, Inc. is engaged in the
 business of creating and licensing software in the field of
 computational chemistry and represents and warrants to the
 licensee that it is not a competitor of Gaussian, Inc. and that
 it will not use this program in any manner prohibited above.
 ---------------------------------------------------------------
  

 Cite this work as:
 Gaussian 16, Revision C.01,
 M. J. Frisch, G. W. Trucks, H. B. Schlegel, G. E. Scuseria, 
 M. A. Robb, J. R. Cheeseman, G. Scalmani, V. Barone, 
 G. A. Petersson, H. Nakatsuji, X. Li, M. Caricato, A. V. Marenich, 
 J. Bloino, B. G. Janesko, R. Gomperts, B. Mennucci, H. P. Hratchian, 
 J. V. Ortiz, A. F. Izmaylov, J. L. Sonnenberg, D. Williams-Young, 
 F. Ding, F. Lipparini, F. Egidi, J. Goings, B. Peng, A. Petrone, 
 T. Henderson, D. Ranasinghe, V. G. Zakrzewski, J. Gao, N. Rega, 
 G. Zheng, W. Liang, M. Hada, M. Ehara, K. Toyota, R. Fukuda, 
 J. Hasegawa, M. Ishida, T. Nakajima, Y. Honda, O. Kitao, H. Nakai, 
 T. Vreven, K. Throssell, J. A. Montgomery, Jr., J. E. Peralta, 
 F. Ogliaro, M. J. Bearpark, J. J. Heyd, E. N. Brothers, K. N. Kudin, 
 V. N. Staroverov, T. A. Keith, R. Kobayashi, J. Normand, 
 K. Raghavachari, A. P. Rendell, J. C. Burant, S. S. Iyengar, 
 J. Tomasi, M. Cossi, J. M. Millam, M. Klene, C. Adamo, R. Cammi, 
 J. W. Ochterski, R. L. Martin, K. Morokuma, O. Farkas, 
 J. B. Foresman, and D. J. Fox, Gaussian, Inc., Wallingford CT, 2019.
 
 ******************************************
 Gaussian 16:  ES64L-G16RevC.01  3-Jul-2019
                18-Dec-2025 
 ******************************************
 %NProcShared=16
 Will use up to   16 processors via shared memory.
 %Mem=40GB
 %chk=Py2_1.chk
 ------------------------------------------------------
 #N OPT FREQ=NORAMAN Integral(Ultrafine) wB97XD def2SVP
 ------------------------------------------------------
 1/18=20,19=15,26=4,38=1/1,3;
 2/9=110,12=2,17=6,18=5,40=1/2;
 3/5=43,7=101,11=2,25=1,30=1,71=1,74=-58,75=-5/1,2,3;
 4//1;
 5/5=2,38=5/2;
 6/7=2,8=2,9=2,10=2,28=1/1;
 7//1,2,3,16;
 1/18=20,19=15,26=4/3(2);
 2/9=110/2;
 99//99;
 2/9=110/2;
 3/5=43,7=101,11=2,25=1,30=1,71=1,74=-58,75=-5/1,2,3;
 4/5=5,16=3,69=1/1;
 5/5=2,38=5/2;
 7//1,2,3,16;
 1/18=20,19=15,26=4/3(-5);
 2/9=110/2;
 6/7=2,8=2,9=2,10=2,19=2,28=1/1;
 99/9=1/99;
 -----
 Py2_1
 -----
 Symbolic Z-matrix:
 Charge =  0 Multiplicity = 1
 C                    -2.39427   0.02866   0.00001 
 C                    -0.8974    0.02945   0.00009 
 C                    -0.17577   1.22233   0.00003 
 C                     1.20581   1.16864  -0.00003 
 C                     1.82675  -0.07189  -0.00001 
 C                     1.02241  -1.19926   0. 
 N                    -0.29853  -1.1531   -0.00004 
 H                    -2.77303   0.54787   0.87897 
 H                    -2.77263   0.54048  -0.88346 
 H                    -2.75641  -0.99495   0.00395 
 H                    -0.69507   2.16924  -0.00009 
 H                     1.79117   2.07741  -0.00011 
 H                     2.90211  -0.15915   0.00013 
 H                     1.45103  -2.19355   0.00013 
 

 GradGradGradGradGradGradGradGradGradGradGradGradGradGradGradGradGradGrad
 Berny optimization.
 Initialization pass.
                           ----------------------------
                           !    Initial Parameters    !
                           ! (Angstroms and Degrees)  !
 --------------------------                            --------------------------
 ! Name  Definition              Value          Derivative Info.                !
 --------------------------------------------------------------------------------
 ! R1    R(1,2)                  1.4969         estimate D2E/DX2                !
 ! R2    R(1,8)                  1.0889         estimate D2E/DX2                !
 ! R3    R(1,9)                  1.0889         estimate D2E/DX2                !
 ! R4    R(1,10)                 1.0858         estimate D2E/DX2                !
 ! R5    R(2,3)                  1.3942         estimate D2E/DX2                !
 ! R6    R(2,7)                  1.3255         estimate D2E/DX2                !
 ! R7    R(3,4)                  1.3826         estimate D2E/DX2                !
 ! R8    R(3,11)                 1.08           estimate D2E/DX2                !
 ! R9    R(4,5)                  1.3873         estimate D2E/DX2                !
 ! R10   R(4,12)                 1.081          estimate D2E/DX2                !
 ! R11   R(5,6)                  1.3849         estimate D2E/DX2                !
 ! R12   R(5,13)                 1.0789         estimate D2E/DX2                !
 ! R13   R(6,7)                  1.3217         estimate D2E/DX2                !
 ! R14   R(6,14)                 1.0827         estimate D2E/DX2                !
 ! A1    A(2,1,8)              110.3379         estimate D2E/DX2                !
 ! A2    A(2,1,9)              110.3207         estimate D2E/DX2                !
 ! A3    A(2,1,10)             109.5132         estimate D2E/DX2                !
 ! A4    A(8,1,9)              108.0563         estimate D2E/DX2                !
 ! A5    A(8,1,10)             109.3043         estimate D2E/DX2                !
 ! A6    A(9,1,10)             109.2797         estimate D2E/DX2                !
 ! A7    A(1,2,3)              121.202          estimate D2E/DX2                !
 ! A8    A(1,2,7)              116.8284         estimate D2E/DX2                !
 ! A9    A(3,2,7)              121.9696         estimate D2E/DX2                !
 ! A10   A(2,3,4)              118.9463         estimate D2E/DX2                !
 ! A11   A(2,3,11)             120.0872         estimate D2E/DX2                !
 ! A12   A(4,3,11)             120.9665         estimate D2E/DX2                !
 ! A13   A(3,4,5)              118.8155         estimate D2E/DX2                !
 ! A14   A(3,4,12)             120.5611         estimate D2E/DX2                !
 ! A15   A(5,4,12)             120.6235         estimate D2E/DX2                !
 ! A16   A(4,5,6)              117.9035         estimate D2E/DX2                !
 ! A17   A(4,5,13)             121.2291         estimate D2E/DX2                !
 ! A18   A(6,5,13)             120.8675         estimate D2E/DX2                !
 ! A19   A(5,6,7)              123.5052         estimate D2E/DX2                !
 ! A20   A(5,6,14)             121.1735         estimate D2E/DX2                !
 ! A21   A(7,6,14)             115.3214         estimate D2E/DX2                !
 ! A22   A(2,7,6)              118.8601         estimate D2E/DX2                !
 ! D1    D(8,1,2,3)            -59.4249         estimate D2E/DX2                !
 ! D2    D(8,1,2,7)            120.5877         estimate D2E/DX2                !
 ! D3    D(9,1,2,3)             59.9            estimate D2E/DX2                !
 ! D4    D(9,1,2,7)           -120.0874         estimate D2E/DX2                !
 ! D5    D(10,1,2,3)          -179.7831         estimate D2E/DX2                !
 ! D6    D(10,1,2,7)             0.2295         estimate D2E/DX2                !
 ! D7    D(1,2,3,4)           -179.9934         estimate D2E/DX2                !
 ! D8    D(1,2,3,11)            -0.0009         estimate D2E/DX2                !
 ! D9    D(7,2,3,4)             -0.0067         estimate D2E/DX2                !
 ! D10   D(7,2,3,11)           179.9859         estimate D2E/DX2                !
 ! D11   D(1,2,7,6)            179.9988         estimate D2E/DX2                !
 ! D12   D(3,2,7,6)              0.0115         estimate D2E/DX2                !
 ! D13   D(2,3,4,5)             -0.0009         estimate D2E/DX2                !
 ! D14   D(2,3,4,12)           179.998          estimate D2E/DX2                !
 ! D15   D(11,3,4,5)          -179.9934         estimate D2E/DX2                !
 ! D16   D(11,3,4,12)            0.0055         estimate D2E/DX2                !
 ! D17   D(3,4,5,6)              0.0033         estimate D2E/DX2                !
 ! D18   D(3,4,5,13)          -179.9885         estimate D2E/DX2                !
 ! D19   D(12,4,5,6)          -179.9956         estimate D2E/DX2                !
 ! D20   D(12,4,5,13)            0.0126         estimate D2E/DX2                !
 ! D21   D(4,5,6,7)              0.0016         estimate D2E/DX2                !
 ! D22   D(4,5,6,14)          -179.9929         estimate D2E/DX2                !
 ! D23   D(13,5,6,7)           179.9934         estimate D2E/DX2                !
 ! D24   D(13,5,6,14)           -0.0011         estimate D2E/DX2                !
 ! D25   D(5,6,7,2)             -0.009          estimate D2E/DX2                !
 ! D26   D(14,6,7,2)           179.9858         estimate D2E/DX2                !
 --------------------------------------------------------------------------------
 Trust Radius=3.00D-01 FncErr=1.00D-07 GrdErr=1.00D-06 EigMax=2.50D+02 EigMin=1.00D-04
 Number of steps in this run=     72 maximum allowed number of steps=    100.
 GradGradGradGradGradGradGradGradGradGradGradGradGradGradGradGradGradGrad

                          Input orientation:                          
 ---------------------------------------------------------------------
 Center     Atomic      Atomic             Coordinates (Angstroms)
 Number     Number       Type             X           Y           Z
 ---------------------------------------------------------------------
      1          6           0       -2.394270    0.028660    0.000010
      2          6           0       -0.897400    0.029450    0.000090
      3          6           0       -0.175770    1.222330    0.000030
      4          6           0        1.205810    1.168640   -0.000030
      5          6           0        1.826750   -0.071890   -0.000010
      6          6           0        1.022410   -1.199260    0.000000
      7          7           0       -0.298530   -1.153100   -0.000040
      8          1           0       -2.773030    0.547870    0.878970
      9          1           0       -2.772630    0.540480   -0.883460
     10          1           0       -2.756410   -0.994950    0.003950
     11          1           0       -0.695070    2.169240   -0.000090
     12          1           0        1.791170    2.077410   -0.000110
     13          1           0        2.902110   -0.159150    0.000130
     14          1           0        1.451030   -2.193550    0.000130
 ---------------------------------------------------------------------
                    Distance matrix (angstroms):
                    1          2          3          4          5
     1  C    0.000000
     2  C    1.496870   0.000000
     3  C    2.519244   1.394171   0.000000
     4  C    3.776259   2.391913   1.382623   0.000000
     5  C    4.222217   2.726034   2.384343   1.387257   0.000000
     6  C    3.630632   2.279342   2.701802   2.374992   1.384892
     7  N    2.405968   1.325545   2.378600   2.766499   2.384498
     8  H    1.088857   2.135223   2.823684   4.121791   4.723842
     9  H    1.088869   2.135018   2.826509   4.123472   4.723323
    10  H    1.085789   2.122576   3.402359   4.514457   4.675191
    11  H    2.733014   2.149334   1.079959   2.148149   3.373758
    12  H    4.659966   3.379726   2.144765   1.080976   2.149594
    13  H    5.299709   3.804188   3.373697   2.154173   1.078895
    14  H    4.441233   3.233706   3.783479   3.371121   2.154671
                    6          7          8          9         10
     6  C    0.000000
     7  N    1.321746   0.000000
     8  H    4.269709   3.128755   0.000000
     9  H    4.267262   3.125670   1.762446   0.000000
    10  H    3.784341   2.462966   1.773761   1.773501   0.000000
    11  H    3.781075   3.345921   2.778400   2.783785   3.776405
    12  H    3.365644   3.847472   4.893281   4.895991   5.488160
    13  H    2.148279   3.351423   5.786143   5.785576   5.719915
    14  H    1.082741   2.035558   5.111793   5.108322   4.374838
                   11         12         13         14
    11  H    0.000000
    12  H    2.487935   0.000000
    13  H    4.284986   2.497276   0.000000
    14  H    4.862066   4.284483   2.498883   0.000000
 Stoichiometry    C6H7N
 Framework group  C1[X(C6H7N)]
 Deg. of freedom    36
 Full point group                 C1      NOp   1
 Largest Abelian subgroup         C1      NOp   1
 Largest concise Abelian subgroup C1      NOp   1
                         Standard orientation:                         
 ---------------------------------------------------------------------
 Center     Atomic      Atomic             Coordinates (Angstroms)
 Number     Number       Type             X           Y           Z
 ---------------------------------------------------------------------
      1          6           0        2.365834   -0.022411   -0.000014
      2          6           0        0.869106   -0.001751   -0.000094
      3          6           0        0.163374    1.200603   -0.000034
      4          6           0       -1.218797    1.165256    0.000026
      5          6           0       -1.856149   -0.066922    0.000006
      6          6           0       -1.066845   -1.204869   -0.000004
      7          7           0        0.254592   -1.176248    0.000036
      8          1           0        2.751452    0.491726   -0.878974
      9          1           0        2.750954    0.484342    0.883456
     10          1           0        2.714354   -1.050737   -0.003954
     11          1           0        0.695197    2.140536    0.000086
     12          1           0       -1.792042    2.081716    0.000106
     13          1           0       -2.932573   -0.139900   -0.000134
     14          1           0       -1.508625   -2.193382   -0.000134
 ---------------------------------------------------------------------
 Rotational constants (GHZ):           5.7820874           2.6717130           1.8482743
 Standard basis: def2SVP (5D, 7F)
 There are   140 symmetry adapted cartesian basis functions of A   symmetry.
 There are   133 symmetry adapted basis functions of A   symmetry.
   133 basis functions,   224 primitive gaussians,   140 cartesian basis functions
    25 alpha electrons       25 beta electrons
       nuclear repulsion energy       274.5594228076 Hartrees.
 NAtoms=   14 NActive=   14 NUniq=   14 SFac= 1.00D+00 NAtFMM=   60 NAOKFM=F Big=F
 Integral buffers will be    131072 words long.
 Raffenetti 2 integral format.
 Two-electron integral symmetry is turned on.
 Nuclear repulsion after empirical dispersion term =      274.5539745329 Hartrees.
 One-electron integrals computed using PRISM.
   1 Symmetry operations used in ECPInt.
 ECPInt:  NShTT=    2016 NPrTT=    7252 LenC2=    2012 LenP2D=    6002.
 LDataN:  DoStor=T MaxTD1= 4 Len=   56
 NBasis=   133 RedAO= T EigKep=  6.65D-04  NBF=   133
 NBsUse=   133 1.00D-06 EigRej= -1.00D+00 NBFU=   133
 ExpMin= 1.22D-01 ExpMax= 1.71D+03 ExpMxC= 2.58D+02 IAcc=3 IRadAn=         5 AccDes= 0.00D+00
 Harris functional with IExCor= 4639 and IRadAn=       5 diagonalized for initial guess.
 HarFok:  IExCor= 4639 AccDes= 0.00D+00 IRadAn=         5 IDoV= 1 UseB2=F ITyADJ=14
 ICtDFT=  3500011 ScaDFX=  1.000000  1.000000  1.000000  1.000000
 FoFCou: FMM=F IPFlag=           0 FMFlag=      100000 FMFlg1=           0
         NFxFlg=           0 DoJE=T BraDBF=F KetDBF=T FulRan=T
         wScrn=  0.000000 ICntrl=       500 IOpCl=  0 I1Cent=   200000004 NGrid=           0
         NMat0=    1 NMatS0=      1 NMatT0=    0 NMatD0=    1 NMtDS0=    0 NMtDT0=    0
 Petite list used in FoFCou.
 Requested convergence on RMS density matrix=1.00D-08 within 128 cycles.
 Requested convergence on MAX density matrix=1.00D-06.
 Requested convergence on             energy=1.00D-06.
 No special actions if energy rises.
 Integral accuracy reduced to 1.0D-05 until final iterations.
 Initial convergence to 1.0D-05 achieved.  Increase integral accuracy.
 SCF Done:  E(RwB97XD) =  -287.297080691     A.U. after   14 cycles
            NFock= 14  Conv=0.85D-08     -V/T= 2.0103

 **********************************************************************

            Population analysis using the SCF Density.

 **********************************************************************

 Orbital symmetries:
       Occupied  (A) (A) (A) (A) (A) (A) (A) (A) (A) (A) (A) (A)
                 (A) (A) (A) (A) (A) (A) (A) (A) (A) (A) (A) (A)
                 (A)
       Virtual   (A) (A) (A) (A) (A) (A) (A) (A) (A) (A) (A) (A)
                 (A) (A) (A) (A) (A) (A) (A) (A) (A) (A) (A) (A)
                 (A) (A) (A) (A) (A) (A) (A) (A) (A) (A) (A) (A)
                 (A) (A) (A) (A) (A) (A) (A) (A) (A) (A) (A) (A)
                 (A) (A) (A) (A) (A) (A) (A) (A) (A) (A) (A) (A)
                 (A) (A) (A) (A) (A) (A) (A) (A) (A) (A) (A) (A)
                 (A) (A) (A) (A) (A) (A) (A) (A) (A) (A) (A) (A)
                 (A) (A) (A) (A) (A) (A) (A) (A) (A) (A) (A) (A)
                 (A) (A) (A) (A) (A) (A) (A) (A) (A) (A) (A) (A)
 The electronic state is 1-A.
 Alpha  occ. eigenvalues --  -14.43052 -10.33669 -10.32883 -10.31754 -10.30417
 Alpha  occ. eigenvalues --  -10.30407 -10.28809  -1.04285  -0.89879  -0.87783
 Alpha  occ. eigenvalues --   -0.79236  -0.72252  -0.69452  -0.60845  -0.58039
 Alpha  occ. eigenvalues --   -0.54532  -0.52296  -0.50647  -0.49475  -0.46853
 Alpha  occ. eigenvalues --   -0.46097  -0.44273  -0.36904  -0.33291  -0.33223
 Alpha virt. eigenvalues --    0.04797   0.05608   0.14670   0.16650   0.18926
 Alpha virt. eigenvalues --    0.20501   0.21348   0.22700   0.23147   0.25631
 Alpha virt. eigenvalues --    0.30319   0.32145   0.36774   0.37806   0.38753
 Alpha virt. eigenvalues --    0.43652   0.47165   0.48665   0.52128   0.54702
 Alpha virt. eigenvalues --    0.54741   0.55586   0.55704   0.57033   0.60559
 Alpha virt. eigenvalues --    0.62036   0.65185   0.67762   0.71121   0.71301
 Alpha virt. eigenvalues --    0.73210   0.73636   0.73964   0.75053   0.76700
 Alpha virt. eigenvalues --    0.77131   0.79191   0.80336   0.81873   0.83125
 Alpha virt. eigenvalues --    0.86211   0.88001   0.90900   0.99908   1.00831
 Alpha virt. eigenvalues --    1.05432   1.10776   1.15782   1.22106   1.26525
 Alpha virt. eigenvalues --    1.29294   1.30141   1.33881   1.34372   1.40752
 Alpha virt. eigenvalues --    1.41267   1.44023   1.56825   1.59792   1.62585
 Alpha virt. eigenvalues --    1.67366   1.75089   1.78862   1.79799   1.81700
 Alpha virt. eigenvalues --    1.84242   1.85395   1.87687   1.88431   1.88691
 Alpha virt. eigenvalues --    1.89401   1.90348   1.96522   2.00771   2.02807
 Alpha virt. eigenvalues --    2.06239   2.07897   2.13256   2.13436   2.16502
 Alpha virt. eigenvalues --    2.21536   2.23983   2.29488   2.33166   2.38708
 Alpha virt. eigenvalues --    2.40226   2.46226   2.49674   2.50026   2.53133
 Alpha virt. eigenvalues --    2.57536   2.62352   2.66213   2.72845   2.76918
 Alpha virt. eigenvalues --    2.81801   2.82742   2.84959   2.91979   2.99888
 Alpha virt. eigenvalues --    3.00703   3.04624   3.07120   3.15279   3.21524
 Alpha virt. eigenvalues --    3.25677   3.46196   3.77129
          Condensed to atoms (all electrons):
               1          2          3          4          5          6
     1  C    4.621510   0.378333  -0.105166   0.005715   0.000930   0.007616
     2  C    0.378333   4.965900   0.427460  -0.007215  -0.070538  -0.056782
     3  C   -0.105166   0.427460   5.003449   0.430948   0.012285  -0.078045
     4  C    0.005715  -0.007215   0.430948   4.829893   0.418371  -0.006429
     5  C    0.000930  -0.070538   0.012285   0.418371   4.985727   0.439859
     6  C    0.007616  -0.056782  -0.078045  -0.006429   0.439859   4.733969
     7  N   -0.085946   0.568693  -0.051757  -0.045182  -0.040123   0.528950
     8  H    0.385664  -0.016221  -0.002906   0.000634  -0.000018  -0.000249
     9  H    0.385613  -0.016139  -0.002873   0.000618  -0.000016  -0.000250
    10  H    0.365381  -0.010595   0.011449  -0.000390   0.000246   0.000582
    11  H   -0.006487  -0.047448   0.426810  -0.054577   0.011302  -0.000177
    12  H   -0.000296   0.010883  -0.057801   0.441873  -0.059677   0.009826
    13  H    0.000078   0.000284   0.010916  -0.056233   0.425034  -0.044379
    14  H   -0.000189   0.005495   0.000691   0.006706  -0.071104   0.427325
               7          8          9         10         11         12
     1  C   -0.085946   0.385664   0.385613   0.365381  -0.006487  -0.000296
     2  C    0.568693  -0.016221  -0.016139  -0.010595  -0.047448   0.010883
     3  C   -0.051757  -0.002906  -0.002873   0.011449   0.426810  -0.057801
     4  C   -0.045182   0.000634   0.000618  -0.000390  -0.054577   0.441873
     5  C   -0.040123  -0.000018  -0.000016   0.000246   0.011302  -0.059677
     6  C    0.528950  -0.000249  -0.000250   0.000582  -0.000177   0.009826
     7  N    6.267564   0.001773   0.001724   0.013919   0.005856  -0.000267
     8  H    0.001773   0.618455  -0.019200  -0.014192   0.000972   0.000005
     9  H    0.001724  -0.019200   0.618194  -0.014128   0.000959   0.000005
    10  H    0.013919  -0.014192  -0.014128   0.602775  -0.000188   0.000012
    11  H    0.005856   0.000972   0.000959  -0.000188   0.665250  -0.010896
    12  H   -0.000267   0.000005   0.000005   0.000012  -0.010896   0.652237
    13  H    0.005539  -0.000003  -0.000003  -0.000008  -0.000141  -0.010906
    14  H   -0.039825   0.000010   0.000010  -0.000184   0.000072  -0.000258
              13         14
     1  C    0.000078  -0.000189
     2  C    0.000284   0.005495
     3  C    0.010916   0.000691
     4  C   -0.056233   0.006706
     5  C    0.425034  -0.071104
     6  C   -0.044379   0.427325
     7  N    0.005539  -0.039825
     8  H   -0.000003   0.000010
     9  H   -0.000003   0.000010
    10  H   -0.000008  -0.000184
    11  H   -0.000141   0.000072
    12  H   -0.010906  -0.000258
    13  H    0.653473  -0.006428
    14  H   -0.006428   0.650423
 Mulliken charges:
               1
     1  C    0.047244
     2  C   -0.132111
     3  C   -0.025461
     4  C    0.035268
     5  C   -0.052277
     6  C    0.038185
     7  N   -0.130918
     8  H    0.045275
     9  H    0.045485
    10  H    0.045322
    11  H    0.008692
    12  H    0.025259
    13  H    0.022778
    14  H    0.027258
 Sum of Mulliken charges =  -0.00000
 Mulliken charges with hydrogens summed into heavy atoms:
               1
     1  C    0.183327
     2  C   -0.132111
     3  C   -0.016768
     4  C    0.060528
     5  C   -0.029500
     6  C    0.065442
     7  N   -0.130918
 Electronic spatial extent (au):  <R**2>=            676.2294
 Charge=             -0.0000 electrons
 Dipole moment (field-independent basis, Debye):
    X=             -0.6515    Y=              1.7675    Z=              0.0007  Tot=              1.8838
 Quadrupole moment (field-independent basis, Debye-Ang):
   XX=            -36.2976   YY=            -40.5982   ZZ=            -43.3972
   XY=              1.8347   XZ=              0.0021   YZ=              0.0007
 Traceless Quadrupole moment (field-independent basis, Debye-Ang):
   XX=              3.8000   YY=             -0.5005   ZZ=             -3.2995
   XY=              1.8347   XZ=              0.0021   YZ=              0.0007
 Octapole moment (field-independent basis, Debye-Ang**2):
  XXX=             -3.8545  YYY=              5.9882  ZZZ=              0.0084  XYY=             -5.3606
  XXY=              0.3977  XXZ=              0.0032  XZZ=              3.4689  YZZ=             -0.8276
  YYZ=             -0.0057  XYZ=             -0.0006
 Hexadecapole moment (field-independent basis, Debye-Ang**3):
 XXXX=           -557.9816 YYYY=           -270.3207 ZZZZ=            -51.7049 XXXY=             -1.3183
 XXXZ=              0.0121 YYYX=              6.1994 YYYZ=              0.0035 ZZZX=              0.0219
 ZZZY=              0.0004 XXYY=           -134.1435 XXZZ=           -108.7941 YYZZ=            -59.2152
 XXYZ=              0.0006 YYXZ=             -0.0184 ZZXY=              1.6033
 N-N= 2.745539745329D+02 E-N=-1.214528881448D+03  KE= 2.843793844581D+02
   1 Symmetry operations used in ECPInt.
 ECPInt:  NShTT=    2016 NPrTT=    7252 LenC2=    2012 LenP2D=    6002.
 LDataN:  DoStor=T MaxTD1= 5 Len=  102
 Calling FoFJK, ICntrl=      2127 FMM=F ISym2X=0 I1Cent= 0 IOpClX= 0 NMat=1 NMatS=1 NMatT=0.
 ***** Axes restored to original set *****
 -------------------------------------------------------------------
 Center     Atomic                   Forces (Hartrees/Bohr)
 Number     Number              X              Y              Z
 -------------------------------------------------------------------
      1        6           0.004225238    0.001764876    0.000003723
      2        6          -0.005953794   -0.000389787   -0.000001631
      3        6           0.001926230   -0.001003887   -0.000006442
      4        6          -0.000373991   -0.000685142   -0.000008753
      5        6          -0.000348177    0.000641052    0.000010413
      6        6           0.002293402    0.000116231   -0.000004083
      7        7          -0.005605897   -0.007378440    0.000019252
      8        1          -0.004363271    0.003836213    0.005956549
      9        1          -0.004363355    0.003793700   -0.006001742
     10        1          -0.002651054   -0.006713160    0.000030382
     11        1          -0.004219679    0.007800473    0.000009227
     12        1           0.004467302    0.007021179    0.000002308
     13        1           0.008910209   -0.001165895   -0.000003435
     14        1           0.006056837   -0.007637414   -0.000005767
 -------------------------------------------------------------------
 Cartesian Forces:  Max     0.008910209 RMS     0.003988149

 GradGradGradGradGradGradGradGradGradGradGradGradGradGradGradGradGradGrad
 Berny optimization.
 FormGI is forming the generalized inverse of G from B-inverse, IUseBI=4.
 Internal  Forces:  Max     0.013087947 RMS     0.004328629
 Search for a local minimum.
 Step number   1 out of a maximum of   72
 All quantities printed in internal units (Hartrees-Bohrs-Radians)
 Mixed Optimization -- RFO/linear search
 Second derivative matrix not updated -- first step.
 ITU=  0
     Eigenvalues ---    0.00807   0.01645   0.02229   0.02262   0.02272
     Eigenvalues ---    0.02293   0.02315   0.02424   0.02603   0.07428
     Eigenvalues ---    0.07462   0.16000   0.16000   0.16000   0.16000
     Eigenvalues ---    0.16000   0.16000   0.16000   0.22000   0.22426
     Eigenvalues ---    0.24430   0.25000   0.32708   0.34944   0.34945
     Eigenvalues ---    0.35304   0.35665   0.35877   0.35999   0.36128
     Eigenvalues ---    0.43249   0.45707   0.47366   0.48268   0.58418
     Eigenvalues ---    0.60201
 RFO step:  Lambda=-2.83707541D-03 EMin= 8.07348639D-03
 Linear search not attempted -- first point.
 Iteration  1 RMS(Cart)=  0.02118011 RMS(Int)=  0.00006980
 Iteration  2 RMS(Cart)=  0.00008931 RMS(Int)=  0.00001615
 Iteration  3 RMS(Cart)=  0.00000001 RMS(Int)=  0.00001615
 Variable       Old X    -DE/DX   Delta X   Delta X   Delta X     New X
                                 (Linear)    (Quad)   (Total)
    R1        2.82867   0.00715   0.00000   0.02168   0.02168   2.85035
    R2        2.05764   0.00816   0.00000   0.02315   0.02315   2.08079
    R3        2.05766   0.00817   0.00000   0.02319   0.02319   2.08086
    R4        2.05184   0.00721   0.00000   0.02026   0.02026   2.07211
    R5        2.63460   0.00881   0.00000   0.01876   0.01877   2.65337
    R6        2.50492   0.01153   0.00000   0.01949   0.01949   2.52441
    R7        2.61278   0.00796   0.00000   0.01556   0.01556   2.62834
    R8        2.04083   0.00887   0.00000   0.02444   0.02444   2.06527
    R9        2.62154   0.00734   0.00000   0.01459   0.01458   2.63612
   R10        2.04275   0.00832   0.00000   0.02301   0.02301   2.06576
   R11        2.61707   0.00739   0.00000   0.01533   0.01533   2.63240
   R12        2.03882   0.00898   0.00000   0.02465   0.02465   2.06346
   R13        2.49774   0.01309   0.00000   0.02175   0.02175   2.51949
   R14        2.04608   0.00941   0.00000   0.02618   0.02618   2.07227
    A1        1.92576   0.00196   0.00000   0.01229   0.01225   1.93801
    A2        1.92546   0.00196   0.00000   0.01229   0.01225   1.93771
    A3        1.91137  -0.00038   0.00000  -0.00280  -0.00280   1.90857
    A4        1.88594  -0.00183   0.00000  -0.01026  -0.01035   1.87559
    A5        1.90772  -0.00089   0.00000  -0.00596  -0.00596   1.90176
    A6        1.90729  -0.00089   0.00000  -0.00591  -0.00591   1.90138
    A7        2.11537  -0.00137   0.00000  -0.00588  -0.00588   2.10949
    A8        2.03904   0.00377   0.00000   0.01443   0.01442   2.05346
    A9        2.12877  -0.00240   0.00000  -0.00855  -0.00854   2.12023
   A10        2.07600   0.00165   0.00000   0.00537   0.00537   2.08138
   A11        2.09592  -0.00077   0.00000  -0.00235  -0.00235   2.09357
   A12        2.11126  -0.00088   0.00000  -0.00302  -0.00302   2.10824
   A13        2.07372   0.00101   0.00000   0.00110   0.00109   2.07481
   A14        2.10419  -0.00055   0.00000  -0.00082  -0.00082   2.10337
   A15        2.10528  -0.00046   0.00000  -0.00028  -0.00028   2.10500
   A16        2.05780   0.00013   0.00000  -0.00109  -0.00110   2.05670
   A17        2.11585   0.00039   0.00000   0.00333   0.00334   2.11919
   A18        2.10954  -0.00052   0.00000  -0.00224  -0.00224   2.10730
   A19        2.15557  -0.00045   0.00000  -0.00064  -0.00065   2.15493
   A20        2.11488  -0.00237   0.00000  -0.01561  -0.01560   2.09927
   A21        2.01274   0.00282   0.00000   0.01625   0.01625   2.02899
   A22        2.07450   0.00006   0.00000   0.00381   0.00382   2.07832
    D1       -1.03716  -0.00011   0.00000  -0.00133  -0.00136  -1.03852
    D2        2.10465  -0.00011   0.00000  -0.00130  -0.00134   2.10331
    D3        1.04545   0.00011   0.00000   0.00151   0.00155   1.04700
    D4       -2.09592   0.00011   0.00000   0.00153   0.00157  -2.09435
    D5       -3.13781   0.00000   0.00000   0.00012   0.00012  -3.13769
    D6        0.00401   0.00000   0.00000   0.00014   0.00014   0.00415
    D7       -3.14148   0.00000   0.00000   0.00016   0.00016  -3.14132
    D8       -0.00001   0.00001   0.00000   0.00027   0.00027   0.00026
    D9       -0.00012   0.00000   0.00000   0.00014   0.00014   0.00002
   D10        3.14135   0.00001   0.00000   0.00025   0.00025  -3.14159
   D11        3.14157  -0.00001   0.00000  -0.00024  -0.00024   3.14133
   D12        0.00020  -0.00001   0.00000  -0.00022  -0.00022  -0.00002
   D13       -0.00002  -0.00000   0.00000  -0.00001  -0.00001  -0.00002
   D14        3.14156   0.00000   0.00000   0.00004   0.00003   3.14159
   D15       -3.14148  -0.00000   0.00000  -0.00012  -0.00012   3.14158
   D16        0.00010  -0.00000   0.00000  -0.00008  -0.00008   0.00001
   D17        0.00006  -0.00000   0.00000  -0.00003  -0.00003   0.00003
   D18       -3.14139  -0.00000   0.00000  -0.00013  -0.00013  -3.14152
   D19       -3.14152  -0.00000   0.00000  -0.00007  -0.00007  -3.14159
   D20        0.00022  -0.00000   0.00000  -0.00018  -0.00018   0.00004
   D21        0.00003  -0.00000   0.00000  -0.00005  -0.00005  -0.00002
   D22       -3.14147  -0.00000   0.00000  -0.00014  -0.00014   3.14157
   D23        3.14148   0.00000   0.00000   0.00005   0.00005   3.14153
   D24       -0.00002  -0.00000   0.00000  -0.00004  -0.00004  -0.00006
   D25       -0.00016   0.00001   0.00000   0.00018   0.00018   0.00002
   D26        3.14135   0.00001   0.00000   0.00026   0.00026  -3.14158
         Item               Value     Threshold  Converged?
 Maximum Force            0.013088     0.000450     NO 
 RMS     Force            0.004329     0.000300     NO 
 Maximum Displacement     0.072577     0.001800     NO 
 RMS     Displacement     0.021198     0.001200     NO 
 Predicted change in Energy=-1.429409D-03
 GradGradGradGradGradGradGradGradGradGradGradGradGradGradGradGradGradGrad

                          Input orientation:                          
 ---------------------------------------------------------------------
 Center     Atomic      Atomic             Coordinates (Angstroms)
 Number     Number       Type             X           Y           Z
 ---------------------------------------------------------------------
      1          6           0       -2.413742    0.034678   -0.000050
      2          6           0       -0.905453    0.022156    0.000172
      3          6           0       -0.175146    1.221386    0.000094
      4          6           0        1.214789    1.170746   -0.000023
      5          6           0        1.843567   -0.074481   -0.000030
      6          6           0        1.037257   -1.210405    0.000049
      7          7           0       -0.295267   -1.166201    0.000158
      8          1           0       -2.804846    0.559631    0.885333
      9          1           0       -2.804352    0.551904   -0.890227
     10          1           0       -2.785687   -0.996814    0.004096
     11          1           0       -0.700092    2.179949    0.000112
     12          1           0        1.803762    2.091666   -0.000085
     13          1           0        2.931944   -0.162602   -0.000056
     14          1           0        1.489436   -2.209433    0.000027
 ---------------------------------------------------------------------
                    Distance matrix (angstroms):
                    1          2          3          4          5
     1  C    0.000000
     2  C    1.508341   0.000000
     3  C    2.533691   1.404101   0.000000
     4  C    3.802222   2.411366   1.390857   0.000000
     5  C    4.258709   2.750718   2.398848   1.394974   0.000000
     6  C    3.668737   2.300724   2.717265   2.387760   1.393004
     7  N    2.435169   1.335860   2.390607   2.782372   2.401347
     8  H    1.101109   2.163350   2.852524   4.161104   4.774276
     9  H    1.101142   2.163160   2.855452   4.162803   4.773674
    10  H    1.096511   2.138597   3.425690   4.549961   4.720245
    11  H    2.745685   2.167544   1.092892   2.164547   3.398920
    12  H    4.692392   3.409211   2.161819   1.093153   2.166513
    13  H    5.349325   3.841842   3.401386   2.174037   1.091938
    14  H    4.502314   3.273451   3.813312   3.391318   2.164123
                    6          7          8          9         10
     6  C    0.000000
     7  N    1.333257   0.000000
     8  H    4.321865   3.171753   0.000000
     9  H    4.319293   3.168624   1.775577   0.000000
    10  H    3.828908   2.496177   1.788706   1.788488   0.000000
    11  H    3.809578   3.370550   2.799828   2.805556   3.800204
    12  H    3.389868   3.875516   4.936635   4.939427   5.531887
    13  H    2.165117   3.379660   5.849470   5.848762   5.778169
    14  H    1.096595   2.067244   5.185782   5.182099   4.443775
                   11         12         13         14
    11  H    0.000000
    12  H    2.505410   0.000000
    13  H    4.321948   2.520817   0.000000
    14  H    4.905172   4.312569   2.504066   0.000000
 Stoichiometry    C6H7N
 Framework group  C1[X(C6H7N)]
 Deg. of freedom    36
 Full point group                 C1      NOp   1
 Largest Abelian subgroup         C1      NOp   1
 Largest concise Abelian subgroup C1      NOp   1
                         Standard orientation:                         
 ---------------------------------------------------------------------
 Center     Atomic      Atomic             Coordinates (Angstroms)
 Number     Number       Type             X           Y           Z
 ---------------------------------------------------------------------
      1          6           0        2.387090   -0.025754    0.000082
      2          6           0        0.878824   -0.010649   -0.000140
      3          6           0        0.170604    1.201755   -0.000063
      4          6           0       -1.220026    1.176581    0.000054
      5          6           0       -1.871505   -0.056920    0.000062
      6          6           0       -1.086135   -1.207422   -0.000017
      7          7           0        0.246975   -1.187631   -0.000126
      8          1           0        2.787742    0.491947   -0.885302
      9          1           0        2.787107    0.484231    0.890258
     10          1           0        2.740080   -1.063886   -0.004064
     11          1           0        0.713019    2.150544   -0.000080
     12          1           0       -1.792033    2.108134    0.000117
     13          1           0       -2.961313   -0.125093    0.000088
     14          1           0       -1.556536   -2.198000    0.000004
 ---------------------------------------------------------------------
 Rotational constants (GHZ):           5.7159452           2.6228422           1.8184201
 Standard basis: def2SVP (5D, 7F)
 There are   140 symmetry adapted cartesian basis functions of A   symmetry.
 There are   133 symmetry adapted basis functions of A   symmetry.
   133 basis functions,   224 primitive gaussians,   140 cartesian basis functions
    25 alpha electrons       25 beta electrons
       nuclear repulsion energy       272.3933772054 Hartrees.
 NAtoms=   14 NActive=   14 NUniq=   14 SFac= 1.00D+00 NAtFMM=   60 NAOKFM=F Big=F
 Integral buffers will be    131072 words long.
 Raffenetti 2 integral format.
 Two-electron integral symmetry is turned on.
 Nuclear repulsion after empirical dispersion term =      272.3879567177 Hartrees.
 One-electron integrals computed using PRISM.
   1 Symmetry operations used in ECPInt.
 ECPInt:  NShTT=    2016 NPrTT=    7252 LenC2=    2012 LenP2D=    5981.
 LDataN:  DoStor=T MaxTD1= 4 Len=   56
 NBasis=   133 RedAO= T EigKep=  6.97D-04  NBF=   133
 NBsUse=   133 1.00D-06 EigRej= -1.00D+00 NBFU=   133
 Initial guess from the checkpoint file:  "Py2_1.chk"
 B after Tr=     0.000000   -0.000000   -0.000000
         Rot=    0.999997   -0.000012    0.000001    0.002460 Ang=  -0.28 deg.
 ExpMin= 1.22D-01 ExpMax= 1.71D+03 ExpMxC= 2.58D+02 IAcc=3 IRadAn=         5 AccDes= 0.00D+00
 Harris functional with IExCor= 4639 and IRadAn=       5 diagonalized for initial guess.
 HarFok:  IExCor= 4639 AccDes= 0.00D+00 IRadAn=         5 IDoV= 1 UseB2=F ITyADJ=14
 ICtDFT=  3500011 ScaDFX=  1.000000  1.000000  1.000000  1.000000
 FoFCou: FMM=F IPFlag=           0 FMFlag=      100000 FMFlg1=           0
         NFxFlg=           0 DoJE=T BraDBF=F KetDBF=T FulRan=T
         wScrn=  0.000000 ICntrl=       500 IOpCl=  0 I1Cent=   200000004 NGrid=           0
         NMat0=    1 NMatS0=      1 NMatT0=    0 NMatD0=    1 NMtDS0=    0 NMtDT0=    0
 Petite list used in FoFCou.
 Requested convergence on RMS density matrix=1.00D-08 within 128 cycles.
 Requested convergence on MAX density matrix=1.00D-06.
 Requested convergence on             energy=1.00D-06.
 No special actions if energy rises.
 Integral accuracy reduced to 1.0D-05 until final iterations.
 Initial convergence to 1.0D-05 achieved.  Increase integral accuracy.
 SCF Done:  E(RwB97XD) =  -287.298349161     A.U. after   12 cycles
            NFock= 12  Conv=0.77D-08     -V/T= 2.0113
   1 Symmetry operations used in ECPInt.
 ECPInt:  NShTT=    2016 NPrTT=    7252 LenC2=    2012 LenP2D=    5981.
 LDataN:  DoStor=T MaxTD1= 5 Len=  102
 Calling FoFJK, ICntrl=      2127 FMM=F ISym2X=0 I1Cent= 0 IOpClX= 0 NMat=1 NMatS=1 NMatT=0.
 ***** Axes restored to original set *****
 -------------------------------------------------------------------
 Center     Atomic                   Forces (Hartrees/Bohr)
 Number     Number              X              Y              Z
 -------------------------------------------------------------------
      1        6           0.002007570   -0.000251335   -0.000002351
      2        6           0.001211310   -0.000113468   -0.000000906
      3        6           0.000671485   -0.000395471   -0.000000631
      4        6          -0.000608708   -0.000089195    0.000000180
      5        6          -0.000570088    0.000159484    0.000000094
      6        6          -0.001048589    0.001313946   -0.000001632
      7        7          -0.000827906   -0.000253161   -0.000000327
      8        1           0.000106001   -0.000107397   -0.000106469
      9        1           0.000105623   -0.000107961    0.000106760
     10        1          -0.000194366   -0.000102871    0.000001855
     11        1           0.000225525   -0.000214065    0.000001651
     12        1          -0.000325224   -0.000252201    0.000001055
     13        1          -0.000441051   -0.000103701   -0.000001470
     14        1          -0.000311581    0.000517398    0.000002191
 -------------------------------------------------------------------
 Cartesian Forces:  Max     0.002007570 RMS     0.000521860

 GradGradGradGradGradGradGradGradGradGradGradGradGradGradGradGradGradGrad
 Berny optimization.
 Using GEDIIS/GDIIS optimizer.
 FormGI is forming the generalized inverse of G from B-inverse, IUseBI=4.
 Internal  Forces:  Max     0.002028843 RMS     0.000619547
 Search for a local minimum.
 Step number   2 out of a maximum of   72
 All quantities printed in internal units (Hartrees-Bohrs-Radians)
 Mixed Optimization -- En-DIIS/RFO-DIIS
 Update second derivatives using D2CorX and points    1    2
 DE= -1.27D-03 DEPred=-1.43D-03 R= 8.87D-01
 TightC=F SS=  1.41D+00  RLast= 8.75D-02 DXNew= 5.0454D-01 2.6265D-01
 Trust test= 8.87D-01 RLast= 8.75D-02 DXMaxT set to 3.00D-01
 ITU=  1  0
 Use linear search instead of GDIIS.
     Eigenvalues ---    0.00807   0.01640   0.02229   0.02262   0.02272
     Eigenvalues ---    0.02293   0.02315   0.02428   0.02603   0.07303
     Eigenvalues ---    0.07425   0.15909   0.16000   0.16000   0.16000
     Eigenvalues ---    0.16000   0.16000   0.16051   0.21994   0.22353
     Eigenvalues ---    0.24535   0.25235   0.32901   0.34941   0.34945
     Eigenvalues ---    0.35194   0.35756   0.35934   0.36049   0.36489
     Eigenvalues ---    0.43359   0.46122   0.47445   0.48700   0.60048
     Eigenvalues ---    0.61742
 RFO step:  Lambda=-3.45630779D-05 EMin= 8.07348379D-03
 Quartic linear search produced a step of -0.08918.
 Iteration  1 RMS(Cart)=  0.00333876 RMS(Int)=  0.00000314
 Iteration  2 RMS(Cart)=  0.00000311 RMS(Int)=  0.00000138
 Iteration  3 RMS(Cart)=  0.00000000 RMS(Int)=  0.00000138
 Variable       Old X    -DE/DX   Delta X   Delta X   Delta X     New X
                                 (Linear)    (Quad)   (Total)
    R1        2.85035  -0.00203  -0.00193  -0.00350  -0.00543   2.84492
    R2        2.08079  -0.00017  -0.00206   0.00185  -0.00022   2.08058
    R3        2.08086  -0.00017  -0.00207   0.00185  -0.00022   2.08064
    R4        2.07211   0.00016  -0.00181   0.00243   0.00062   2.07272
    R5        2.65337  -0.00068  -0.00167   0.00054  -0.00114   2.65223
    R6        2.52441  -0.00188  -0.00174  -0.00093  -0.00267   2.52174
    R7        2.62834  -0.00182  -0.00139  -0.00178  -0.00316   2.62517
    R8        2.06527  -0.00030  -0.00218   0.00168  -0.00050   2.06477
    R9        2.63612  -0.00103  -0.00130  -0.00042  -0.00172   2.63439
   R10        2.06576  -0.00039  -0.00205   0.00130  -0.00075   2.06501
   R11        2.63240  -0.00061  -0.00137   0.00037  -0.00100   2.63139
   R12        2.06346  -0.00043  -0.00220   0.00136  -0.00084   2.06263
   R13        2.51949  -0.00153  -0.00194  -0.00016  -0.00210   2.51739
   R14        2.07227  -0.00060  -0.00233   0.00107  -0.00126   2.07100
    A1        1.93801  -0.00010  -0.00109   0.00059  -0.00050   1.93751
    A2        1.93771  -0.00010  -0.00109   0.00060  -0.00049   1.93722
    A3        1.90857   0.00024   0.00025   0.00121   0.00146   1.91002
    A4        1.87559   0.00007   0.00092  -0.00077   0.00016   1.87575
    A5        1.90176  -0.00006   0.00053  -0.00086  -0.00033   1.90143
    A6        1.90138  -0.00006   0.00053  -0.00085  -0.00033   1.90105
    A7        2.10949  -0.00009   0.00052  -0.00084  -0.00031   2.10918
    A8        2.05346  -0.00127  -0.00129  -0.00311  -0.00439   2.04907
    A9        2.12023   0.00136   0.00076   0.00395   0.00471   2.12494
   A10        2.08138  -0.00011  -0.00048   0.00025  -0.00023   2.08114
   A11        2.09357   0.00016   0.00021   0.00048   0.00069   2.09426
   A12        2.10824  -0.00004   0.00027  -0.00073  -0.00046   2.10778
   A13        2.07481  -0.00066  -0.00010  -0.00225  -0.00235   2.07246
   A14        2.10337   0.00019   0.00007   0.00031   0.00038   2.10375
   A15        2.10500   0.00047   0.00002   0.00195   0.00197   2.10697
   A16        2.05670   0.00016   0.00010   0.00075   0.00085   2.05755
   A17        2.11919   0.00007  -0.00030   0.00073   0.00044   2.11962
   A18        2.10730  -0.00023   0.00020  -0.00148  -0.00129   2.10601
   A19        2.15493   0.00080   0.00006   0.00304   0.00310   2.15803
   A20        2.09927  -0.00032   0.00139  -0.00263  -0.00124   2.09804
   A21        2.02899  -0.00047  -0.00145  -0.00041  -0.00186   2.02712
   A22        2.07832  -0.00154  -0.00034  -0.00573  -0.00607   2.07225
    D1       -1.03852   0.00002   0.00012   0.00021   0.00033  -1.03819
    D2        2.10331   0.00002   0.00012   0.00020   0.00032   2.10363
    D3        1.04700  -0.00002  -0.00014   0.00002  -0.00012   1.04688
    D4       -2.09435  -0.00002  -0.00014   0.00001  -0.00013  -2.09448
    D5       -3.13769   0.00000  -0.00001   0.00012   0.00011  -3.13757
    D6        0.00415   0.00000  -0.00001   0.00011   0.00010   0.00425
    D7       -3.14132   0.00000  -0.00001   0.00003   0.00001  -3.14131
    D8        0.00026   0.00000  -0.00002   0.00006   0.00004   0.00029
    D9        0.00002   0.00000  -0.00001   0.00004   0.00002   0.00004
   D10       -3.14159   0.00000  -0.00002   0.00007   0.00005  -3.14154
   D11        3.14133  -0.00000   0.00002  -0.00004  -0.00001   3.14132
   D12       -0.00002  -0.00000   0.00002  -0.00005  -0.00003  -0.00004
   D13       -0.00002   0.00000   0.00000   0.00001   0.00001  -0.00002
   D14        3.14159   0.00000  -0.00000   0.00002   0.00002  -3.14158
   D15        3.14158  -0.00000   0.00001  -0.00003  -0.00002   3.14157
   D16        0.00001  -0.00000   0.00001  -0.00002  -0.00001   0.00001
   D17        0.00003  -0.00000   0.00000  -0.00004  -0.00003  -0.00001
   D18       -3.14152  -0.00000   0.00001  -0.00003  -0.00001  -3.14154
   D19       -3.14159  -0.00000   0.00001  -0.00005  -0.00004   3.14155
   D20        0.00004  -0.00000   0.00002  -0.00004  -0.00002   0.00002
   D21       -0.00002   0.00000   0.00000   0.00003   0.00003   0.00001
   D22        3.14157   0.00000   0.00001   0.00006   0.00007  -3.14154
   D23        3.14153   0.00000  -0.00000   0.00002   0.00001   3.14154
   D24       -0.00006   0.00000   0.00000   0.00005   0.00005  -0.00001
   D25        0.00002   0.00000  -0.00002   0.00001  -0.00000   0.00002
   D26       -3.14158  -0.00000  -0.00002  -0.00001  -0.00004   3.14157
         Item               Value     Threshold  Converged?
 Maximum Force            0.002029     0.000450     NO 
 RMS     Force            0.000620     0.000300     NO 
 Maximum Displacement     0.009599     0.001800     NO 
 RMS     Displacement     0.003340     0.001200     NO 
 Predicted change in Energy=-2.909367D-05
 GradGradGradGradGradGradGradGradGradGradGradGradGradGradGradGradGradGrad

                          Input orientation:                          
 ---------------------------------------------------------------------
 Center     Atomic      Atomic             Coordinates (Angstroms)
 Number     Number       Type             X           Y           Z
 ---------------------------------------------------------------------
      1          6           0       -2.408904    0.033624   -0.000062
      2          6           0       -0.903482    0.022027    0.000167
      3          6           0       -0.174582    1.221410    0.000115
      4          6           0        1.213714    1.171774   -0.000011
      5          6           0        1.839998   -0.073688   -0.000059
      6          6           0        1.033059   -1.208515    0.000029
      7          7           0       -0.298453   -1.167378    0.000149
      8          1           0       -2.799771    0.558663    0.885232
      9          1           0       -2.799273    0.550775   -0.890247
     10          1           0       -2.781844   -0.997857    0.004180
     11          1           0       -0.699612    2.179625    0.000180
     12          1           0        1.802199    2.092535   -0.000040
     13          1           0        2.927746   -0.164068   -0.000106
     14          1           0        1.485373   -2.206747    0.000041
 ---------------------------------------------------------------------
                    Distance matrix (angstroms):
                    1          2          3          4          5
     1  C    0.000000
     2  C    1.505467   0.000000
     3  C    2.530421   1.403500   0.000000
     4  C    3.797203   2.409240   1.389183   0.000000
     5  C    4.250257   2.745150   2.394955   1.394061   0.000000
     6  C    3.659238   2.294434   2.713472   2.387135   1.392474
     7  N    2.428252   1.334446   2.391997   2.785369   2.401902
     8  H    1.100995   2.160378   2.848559   4.155433   4.765613
     9  H    1.101028   2.160193   2.851578   4.157190   4.765000
    10  H    1.096839   2.137387   3.423883   4.546625   4.713335
    11  H    2.743538   2.167208   1.092627   2.162540   3.395149
    12  H    4.687484   3.407009   2.160213   1.092755   2.166552
    13  H    5.340311   3.835745   3.397644   2.173104   1.091496
    14  H    4.492734   3.267119   3.808899   3.389425   2.162337
                    6          7          8          9         10
     6  C    0.000000
     7  N    1.332147   0.000000
     8  H    4.312435   3.165310   0.000000
     9  H    4.309810   3.162113   1.775497   0.000000
    10  H    3.820717   2.489173   1.788667   1.788453   0.000000
    11  H    3.805475   3.370958   2.796696   2.802604   3.798960
    12  H    3.389470   3.878114   4.930984   4.933866   5.528470
    13  H    2.163495   3.378608   5.840430   5.839700   5.770151
    14  H    1.095927   2.064540   5.176246   5.172498   4.435152
                   11         12         13         14
    11  H    0.000000
    12  H    2.503326   0.000000
    13  H    4.318637   2.521728   0.000000
    14  H    4.900451   4.310940   2.500595   0.000000
 Stoichiometry    C6H7N
 Framework group  C1[X(C6H7N)]
 Deg. of freedom    36
 Full point group                 C1      NOp   1
 Largest Abelian subgroup         C1      NOp   1
 Largest concise Abelian subgroup C1      NOp   1
                         Standard orientation:                         
 ---------------------------------------------------------------------
 Center     Atomic      Atomic             Coordinates (Angstroms)
 Number     Number       Type             X           Y           Z
 ---------------------------------------------------------------------
      1          6           0        2.381747   -0.022477    0.000089
      2          6           0        0.876338   -0.009247   -0.000140
      3          6           0        0.167315    1.201992   -0.000087
      4          6           0       -1.221610    1.175257    0.000038
      5          6           0       -1.868348   -0.059707    0.000086
      6          6           0       -1.080232   -1.207687   -0.000002
      7          7           0        0.251777   -1.188513   -0.000122
      8          1           0        2.781219    0.496045   -0.885205
      9          1           0        2.780591    0.488167    0.890274
     10          1           0        2.737626   -1.059967   -0.004153
     11          1           0        0.708076    2.151420   -0.000153
     12          1           0       -1.794831    2.105597    0.000067
     13          1           0       -2.957438   -0.132138    0.000134
     14          1           0       -1.548946   -2.198325   -0.000014
 ---------------------------------------------------------------------
 Rotational constants (GHZ):           5.7157499           2.6326242           1.8230949
 Standard basis: def2SVP (5D, 7F)
 There are   140 symmetry adapted cartesian basis functions of A   symmetry.
 There are   133 symmetry adapted basis functions of A   symmetry.
   133 basis functions,   224 primitive gaussians,   140 cartesian basis functions
    25 alpha electrons       25 beta electrons
       nuclear repulsion energy       272.6577970090 Hartrees.
 NAtoms=   14 NActive=   14 NUniq=   14 SFac= 1.00D+00 NAtFMM=   60 NAOKFM=F Big=F
 Integral buffers will be    131072 words long.
 Raffenetti 2 integral format.
 Two-electron integral symmetry is turned on.
 Nuclear repulsion after empirical dispersion term =      272.6523705952 Hartrees.
 One-electron integrals computed using PRISM.
   1 Symmetry operations used in ECPInt.
 ECPInt:  NShTT=    2016 NPrTT=    7252 LenC2=    2012 LenP2D=    5985.
 LDataN:  DoStor=T MaxTD1= 4 Len=   56
 NBasis=   133 RedAO= T EigKep=  6.92D-04  NBF=   133
 NBsUse=   133 1.00D-06 EigRej= -1.00D+00 NBFU=   133
 Initial guess from the checkpoint file:  "Py2_1.chk"
 B after Tr=    -0.000000   -0.000000    0.000000
         Rot=    1.000000    0.000004   -0.000001   -0.000939 Ang=   0.11 deg.
 Requested convergence on RMS density matrix=1.00D-08 within 128 cycles.
 Requested convergence on MAX density matrix=1.00D-06.
 Requested convergence on             energy=1.00D-06.
 No special actions if energy rises.
 SCF Done:  E(RwB97XD) =  -287.298377268     A.U. after   10 cycles
            NFock= 10  Conv=0.74D-08     -V/T= 2.0112
   1 Symmetry operations used in ECPInt.
 ECPInt:  NShTT=    2016 NPrTT=    7252 LenC2=    2012 LenP2D=    5985.
 LDataN:  DoStor=T MaxTD1= 5 Len=  102
 Calling FoFJK, ICntrl=      2127 FMM=F ISym2X=0 I1Cent= 0 IOpClX= 0 NMat=1 NMatS=1 NMatT=0.
 ***** Axes restored to original set *****
 -------------------------------------------------------------------
 Center     Atomic                   Forces (Hartrees/Bohr)
 Number     Number              X              Y              Z
 -------------------------------------------------------------------
      1        6           0.000212912    0.000032166    0.000000762
      2        6          -0.000192157    0.000206529    0.000000450
      3        6          -0.000052169   -0.000015802    0.000000684
      4        6           0.000035014    0.000157907   -0.000000901
      5        6           0.000036345   -0.000200742    0.000000865
      6        6           0.000353628    0.000076016   -0.000000034
      7        7          -0.000011347   -0.000040718   -0.000001151
      8        1          -0.000086690   -0.000030491   -0.000077584
      9        1          -0.000085914   -0.000032016    0.000076264
     10        1          -0.000038433    0.000117938    0.000000177
     11        1          -0.000018304   -0.000166167    0.000000797
     12        1          -0.000084749   -0.000099130    0.000000306
     13        1          -0.000137891   -0.000122771   -0.000000788
     14        1           0.000069756    0.000117281    0.000000152
 -------------------------------------------------------------------
 Cartesian Forces:  Max     0.000353628 RMS     0.000105904

 GradGradGradGradGradGradGradGradGradGradGradGradGradGradGradGradGradGrad
 Berny optimization.
 Using GEDIIS/GDIIS optimizer.
 FormGI is forming the generalized inverse of G from B-inverse, IUseBI=4.
 Internal  Forces:  Max     0.000327530 RMS     0.000091045
 Search for a local minimum.
 Step number   3 out of a maximum of   72
 All quantities printed in internal units (Hartrees-Bohrs-Radians)
 Mixed Optimization -- En-DIIS/RFO-DIIS
 Swapping is turned off.
 Update second derivatives using D2CorX and points    1    2    3
 DE= -2.81D-05 DEPred=-2.91D-05 R= 9.66D-01
 TightC=F SS=  1.41D+00  RLast= 1.30D-02 DXNew= 5.0454D-01 3.8998D-02
 Trust test= 9.66D-01 RLast= 1.30D-02 DXMaxT set to 3.00D-01
 ITU=  1  1  0
     Eigenvalues ---    0.00807   0.01642   0.02229   0.02262   0.02272
     Eigenvalues ---    0.02293   0.02315   0.02428   0.02603   0.07306
     Eigenvalues ---    0.07417   0.15392   0.15995   0.16000   0.16000
     Eigenvalues ---    0.16000   0.16000   0.16119   0.21973   0.22254
     Eigenvalues ---    0.24619   0.26564   0.33259   0.34709   0.34944
     Eigenvalues ---    0.35258   0.35627   0.35824   0.35960   0.36097
     Eigenvalues ---    0.43352   0.46211   0.47246   0.47994   0.60024
     Eigenvalues ---    0.64477
 En-DIIS/RFO-DIIS/Sim-DIIS IScMMF=       -3 using points:     3    2
 RFO step:  Lambda=-1.68463640D-06.
 DidBck=F Rises=F RFO-DIIS coefs:    0.99594    0.00406
 Iteration  1 RMS(Cart)=  0.00060806 RMS(Int)=  0.00000020
 Iteration  2 RMS(Cart)=  0.00000022 RMS(Int)=  0.00000006
 Variable       Old X    -DE/DX   Delta X   Delta X   Delta X     New X
                                 (Linear)    (Quad)   (Total)
    R1        2.84492  -0.00000   0.00002  -0.00019  -0.00017   2.84475
    R2        2.08058  -0.00004   0.00000  -0.00013  -0.00013   2.08045
    R3        2.08064  -0.00004   0.00000  -0.00013  -0.00013   2.08051
    R4        2.07272  -0.00010  -0.00000  -0.00025  -0.00025   2.07247
    R5        2.65223  -0.00018   0.00000  -0.00040  -0.00039   2.65184
    R6        2.52174   0.00019   0.00001   0.00022   0.00023   2.52197
    R7        2.62517   0.00005   0.00001  -0.00001  -0.00000   2.62517
    R8        2.06477  -0.00014   0.00000  -0.00038  -0.00038   2.06438
    R9        2.63439   0.00011   0.00001   0.00014   0.00015   2.63455
   R10        2.06501  -0.00013   0.00000  -0.00037  -0.00037   2.06464
   R11        2.63139  -0.00033   0.00000  -0.00069  -0.00069   2.63071
   R12        2.06263  -0.00013   0.00000  -0.00037  -0.00036   2.06226
   R13        2.51739   0.00022   0.00001   0.00028   0.00029   2.51768
   R14        2.07100  -0.00008   0.00001  -0.00025  -0.00025   2.07076
    A1        1.93751   0.00012   0.00000   0.00068   0.00068   1.93820
    A2        1.93722   0.00011   0.00000   0.00067   0.00067   1.93789
    A3        1.91002   0.00007  -0.00001   0.00046   0.00046   1.91048
    A4        1.87575  -0.00012  -0.00000  -0.00075  -0.00076   1.87499
    A5        1.90143  -0.00009   0.00000  -0.00056  -0.00056   1.90087
    A6        1.90105  -0.00009   0.00000  -0.00056  -0.00056   1.90049
    A7        2.10918  -0.00006   0.00000  -0.00027  -0.00027   2.10891
    A8        2.04907   0.00018   0.00002   0.00052   0.00054   2.04961
    A9        2.12494  -0.00012  -0.00002  -0.00025  -0.00027   2.12467
   A10        2.08114   0.00006   0.00000   0.00024   0.00024   2.08139
   A11        2.09426  -0.00013  -0.00000  -0.00068  -0.00068   2.09358
   A12        2.10778   0.00006   0.00000   0.00044   0.00044   2.10822
   A13        2.07246   0.00002   0.00001  -0.00008  -0.00007   2.07239
   A14        2.10375  -0.00002  -0.00000  -0.00008  -0.00008   2.10368
   A15        2.10697   0.00001  -0.00001   0.00016   0.00015   2.10712
   A16        2.05755   0.00000  -0.00000  -0.00002  -0.00002   2.05753
   A17        2.11962   0.00014  -0.00000   0.00090   0.00089   2.12052
   A18        2.10601  -0.00014   0.00001  -0.00088  -0.00087   2.10514
   A19        2.15803  -0.00000  -0.00001   0.00010   0.00009   2.15811
   A20        2.09804  -0.00011   0.00001  -0.00072  -0.00071   2.09732
   A21        2.02712   0.00011   0.00001   0.00062   0.00063   2.02775
   A22        2.07225   0.00004   0.00002   0.00001   0.00003   2.07228
    D1       -1.03819   0.00000  -0.00000   0.00016   0.00015  -1.03803
    D2        2.10363   0.00000  -0.00000   0.00018   0.00018   2.10381
    D3        1.04688  -0.00000   0.00000   0.00009   0.00009   1.04698
    D4       -2.09448  -0.00000   0.00000   0.00012   0.00012  -2.09437
    D5       -3.13757   0.00000  -0.00000   0.00012   0.00012  -3.13746
    D6        0.00425   0.00000  -0.00000   0.00014   0.00014   0.00439
    D7       -3.14131   0.00000  -0.00000   0.00004   0.00004  -3.14127
    D8        0.00029   0.00000  -0.00000   0.00004   0.00004   0.00033
    D9        0.00004   0.00000  -0.00000   0.00001   0.00001   0.00006
   D10       -3.14154   0.00000  -0.00000   0.00002   0.00002  -3.14152
   D11        3.14132  -0.00000   0.00000  -0.00003  -0.00003   3.14129
   D12       -0.00004  -0.00000   0.00000  -0.00001  -0.00001  -0.00005
   D13       -0.00002  -0.00000  -0.00000  -0.00001  -0.00001  -0.00002
   D14       -3.14158  -0.00000  -0.00000   0.00000   0.00000  -3.14158
   D15        3.14157  -0.00000   0.00000  -0.00001  -0.00001   3.14156
   D16        0.00001  -0.00000   0.00000  -0.00000  -0.00000   0.00000
   D17       -0.00001  -0.00000   0.00000  -0.00000  -0.00000  -0.00001
   D18       -3.14154  -0.00000   0.00000  -0.00001  -0.00001  -3.14155
   D19        3.14155  -0.00000   0.00000  -0.00001  -0.00001   3.14154
   D20        0.00002  -0.00000   0.00000  -0.00002  -0.00002   0.00000
   D21        0.00001   0.00000  -0.00000   0.00001   0.00001   0.00002
   D22       -3.14154   0.00000  -0.00000   0.00000   0.00000  -3.14154
   D23        3.14154   0.00000  -0.00000   0.00002   0.00002   3.14156
   D24       -0.00001   0.00000  -0.00000   0.00001   0.00001   0.00000
   D25        0.00002  -0.00000   0.00000  -0.00000  -0.00000   0.00001
   D26        3.14157   0.00000   0.00000   0.00000   0.00000   3.14157
         Item               Value     Threshold  Converged?
 Maximum Force            0.000328     0.000450     YES
 RMS     Force            0.000091     0.000300     YES
 Maximum Displacement     0.002411     0.001800     NO 
 RMS     Displacement     0.000608     0.001200     YES
 Predicted change in Energy=-8.423235D-07
 GradGradGradGradGradGradGradGradGradGradGradGradGradGradGradGradGradGrad

                          Input orientation:                          
 ---------------------------------------------------------------------
 Center     Atomic      Atomic             Coordinates (Angstroms)
 Number     Number       Type             X           Y           Z
 ---------------------------------------------------------------------
      1          6           0       -2.408786    0.033960   -0.000069
      2          6           0       -0.903456    0.021895    0.000186
      3          6           0       -0.174609    1.221065    0.000150
      4          6           0        1.213696    1.171705    0.000005
      5          6           0        1.840176   -0.073748   -0.000072
      6          6           0        1.033571   -1.208366    0.000014
      7          7           0       -0.298102   -1.167483    0.000147
      8          1           0       -2.800182    0.559089    0.884853
      9          1           0       -2.799644    0.550993   -0.890023
     10          1           0       -2.782472   -0.997107    0.004281
     11          1           0       -0.700153    2.178768    0.000249
     12          1           0        1.801820    2.092463   -0.000010
     13          1           0        2.927662   -0.164945   -0.000147
     14          1           0        1.486649   -2.206108    0.000008
 ---------------------------------------------------------------------
                    Distance matrix (angstroms):
                    1          2          3          4          5
     1  C    0.000000
     2  C    1.505378   0.000000
     3  C    2.529974   1.403292   0.000000
     4  C    3.796952   2.409232   1.389183   0.000000
     5  C    4.250327   2.745299   2.394974   1.394141   0.000000
     6  C    3.659671   2.294693   2.713269   2.386877   1.392109
     7  N    2.428674   1.334569   2.391738   2.785199   2.401767
     8  H    1.100927   2.160737   2.848604   4.155656   4.766183
     9  H    1.100960   2.160543   2.851704   4.157444   4.765527
    10  H    1.096704   2.137541   3.423632   4.546771   4.713967
    11  H    2.742194   2.166433   1.092425   2.162636   3.395158
    12  H    4.686859   3.406725   2.160002   1.092559   2.166551
    13  H    5.340154   3.835672   3.397809   2.173548   1.091304
    14  H    4.493587   3.267507   3.808582   3.388824   2.161467
                    6          7          8          9         10
     6  C    0.000000
     7  N    1.332300   0.000000
     8  H    4.313293   3.166096   0.000000
     9  H    4.310574   3.162796   1.774895   0.000000
    10  H    3.821888   2.490209   1.788147   1.787929   0.000000
    11  H    3.805059   3.370317   2.795712   2.801802   3.797664
    12  H    3.389053   3.877747   4.930786   4.933734   5.528218
    13  H    2.162478   3.377963   5.840861   5.840076   5.770454
    14  H    1.095797   2.064964   5.177470   5.173594   4.437014
                   11         12         13         14
    11  H    0.000000
    12  H    2.503462   0.000000
    13  H    4.319032   2.522580   0.000000
    14  H    4.899922   4.310110   2.498573   0.000000
 Stoichiometry    C6H7N
 Framework group  C1[X(C6H7N)]
 Deg. of freedom    36
 Full point group                 C1      NOp   1
 Largest Abelian subgroup         C1      NOp   1
 Largest concise Abelian subgroup C1      NOp   1
                         Standard orientation:                         
 ---------------------------------------------------------------------
 Center     Atomic      Atomic             Coordinates (Angstroms)
 Number     Number       Type             X           Y           Z
 ---------------------------------------------------------------------
      1          6           0        2.381749   -0.022874    0.000100
      2          6           0        0.876429   -0.009635   -0.000155
      3          6           0        0.167841    1.201617   -0.000120
      4          6           0       -1.221098    1.175600    0.000025
      5          6           0       -1.868424   -0.059148    0.000102
      6          6           0       -1.081004   -1.207163    0.000016
      7          7           0        0.251167   -1.188670   -0.000116
      8          1           0        2.781916    0.495602   -0.884823
      9          1           0        2.781242    0.487516    0.890054
     10          1           0        2.738050   -1.060077   -0.004251
     11          1           0        0.709408    2.150350   -0.000218
     12          1           0       -1.793662    2.106113    0.000041
     13          1           0       -2.957289   -0.132052    0.000178
     14          1           0       -1.550789   -2.197148    0.000023
 ---------------------------------------------------------------------
 Rotational constants (GHZ):           5.7171270           2.6323561           1.8230921
 Standard basis: def2SVP (5D, 7F)
 There are   140 symmetry adapted cartesian basis functions of A   symmetry.
 There are   133 symmetry adapted basis functions of A   symmetry.
   133 basis functions,   224 primitive gaussians,   140 cartesian basis functions
    25 alpha electrons       25 beta electrons
       nuclear repulsion energy       272.6644210701 Hartrees.
 NAtoms=   14 NActive=   14 NUniq=   14 SFac= 1.00D+00 NAtFMM=   60 NAOKFM=F Big=F
 Integral buffers will be    131072 words long.
 Raffenetti 2 integral format.
 Two-electron integral symmetry is turned on.
 Nuclear repulsion after empirical dispersion term =      272.6589948289 Hartrees.
 One-electron integrals computed using PRISM.
   1 Symmetry operations used in ECPInt.
 ECPInt:  NShTT=    2016 NPrTT=    7252 LenC2=    2012 LenP2D=    5985.
 LDataN:  DoStor=T MaxTD1= 4 Len=   56
 NBasis=   133 RedAO= T EigKep=  6.92D-04  NBF=   133
 NBsUse=   133 1.00D-06 EigRej= -1.00D+00 NBFU=   133
 Initial guess from the checkpoint file:  "Py2_1.chk"
 B after Tr=     0.000000    0.000000   -0.000000
         Rot=    1.000000    0.000004   -0.000001    0.000167 Ang=   0.02 deg.
 Requested convergence on RMS density matrix=1.00D-08 within 128 cycles.
 Requested convergence on MAX density matrix=1.00D-06.
 Requested convergence on             energy=1.00D-06.
 No special actions if energy rises.
 SCF Done:  E(RwB97XD) =  -287.298378239     A.U. after    8 cycles
            NFock=  8  Conv=0.78D-08     -V/T= 2.0112
   1 Symmetry operations used in ECPInt.
 ECPInt:  NShTT=    2016 NPrTT=    7252 LenC2=    2012 LenP2D=    5985.
 LDataN:  DoStor=T MaxTD1= 5 Len=  102
 Calling FoFJK, ICntrl=      2127 FMM=F ISym2X=0 I1Cent= 0 IOpClX= 0 NMat=1 NMatS=1 NMatT=0.
 ***** Axes restored to original set *****
 -------------------------------------------------------------------
 Center     Atomic                   Forces (Hartrees/Bohr)
 Number     Number              X              Y              Z
 -------------------------------------------------------------------
      1        6           0.000084320   -0.000010709    0.000002174
      2        6          -0.000073352   -0.000016506   -0.000000741
      3        6           0.000054580    0.000024332    0.000001334
      4        6           0.000008951    0.000047755   -0.000000171
      5        6           0.000005949    0.000031472    0.000000192
      6        6           0.000032754   -0.000009474   -0.000000450
      7        7          -0.000034891   -0.000037366   -0.000001081
      8        1          -0.000021780   -0.000000515   -0.000001007
      9        1          -0.000021446   -0.000002811   -0.000001146
     10        1          -0.000023990    0.000001511    0.000000427
     11        1          -0.000021429   -0.000003703    0.000000343
     12        1          -0.000004398    0.000009259    0.000000010
     13        1           0.000004547   -0.000025475   -0.000000179
     14        1           0.000010184   -0.000007770    0.000000295
 -------------------------------------------------------------------
 Cartesian Forces:  Max     0.000084320 RMS     0.000025145

 GradGradGradGradGradGradGradGradGradGradGradGradGradGradGradGradGradGrad
 Berny optimization.
 Using GEDIIS/GDIIS optimizer.
 FormGI is forming the generalized inverse of G from B-inverse, IUseBI=4.
 Internal  Forces:  Max     0.000059176 RMS     0.000016777
 Search for a local minimum.
 Step number   4 out of a maximum of   72
 All quantities printed in internal units (Hartrees-Bohrs-Radians)
 Mixed Optimization -- En-DIIS/RFO-DIIS
 Swapping is turned off.
 Update second derivatives using D2CorX and points    1    2    3    4
 DE= -9.72D-07 DEPred=-8.42D-07 R= 1.15D+00
 Trust test= 1.15D+00 RLast= 2.74D-03 DXMaxT set to 3.00D-01
 ITU=  0  1  1  0
     Eigenvalues ---    0.00806   0.01642   0.02229   0.02262   0.02272
     Eigenvalues ---    0.02293   0.02315   0.02428   0.02603   0.07291
     Eigenvalues ---    0.07411   0.12660   0.15982   0.16000   0.16000
     Eigenvalues ---    0.16000   0.16008   0.16217   0.21895   0.22187
     Eigenvalues ---    0.24580   0.26650   0.33199   0.34829   0.34944
     Eigenvalues ---    0.35302   0.35767   0.35913   0.36055   0.36302
     Eigenvalues ---    0.43344   0.46325   0.47817   0.51765   0.60014
     Eigenvalues ---    0.63124
 En-DIIS/RFO-DIIS/Sim-DIIS IScMMF=       -3 using points:     4    3    2
 RFO step:  Lambda=-8.19047538D-08.
 DidBck=F Rises=F RFO-DIIS coefs:    1.20756   -0.19479   -0.01277
 Iteration  1 RMS(Cart)=  0.00014558 RMS(Int)=  0.00000003
 Iteration  2 RMS(Cart)=  0.00000002 RMS(Int)=  0.00000002
 Variable       Old X    -DE/DX   Delta X   Delta X   Delta X     New X
                                 (Linear)    (Quad)   (Total)
    R1        2.84475  -0.00002  -0.00010   0.00001  -0.00009   2.84466
    R2        2.08045   0.00001  -0.00003   0.00005   0.00003   2.08047
    R3        2.08051   0.00001  -0.00003   0.00006   0.00003   2.08054
    R4        2.07247   0.00000  -0.00004   0.00006   0.00001   2.07248
    R5        2.65184   0.00006  -0.00010   0.00022   0.00012   2.65196
    R6        2.52197   0.00003   0.00001   0.00003   0.00005   2.52202
    R7        2.62517   0.00001  -0.00004   0.00005   0.00000   2.62518
    R8        2.06438   0.00001  -0.00009   0.00009   0.00001   2.06439
    R9        2.63455   0.00003   0.00001   0.00006   0.00007   2.63462
   R10        2.06464   0.00000  -0.00009   0.00009  -0.00000   2.06464
   R11        2.63071   0.00003  -0.00016   0.00020   0.00004   2.63075
   R12        2.06226   0.00001  -0.00009   0.00009   0.00001   2.06227
   R13        2.51768   0.00005   0.00003   0.00006   0.00009   2.51777
   R14        2.07076   0.00001  -0.00007   0.00009   0.00003   2.07078
    A1        1.93820   0.00002   0.00014   0.00002   0.00015   1.93835
    A2        1.93789   0.00002   0.00013   0.00001   0.00014   1.93803
    A3        1.91048   0.00003   0.00011   0.00013   0.00024   1.91072
    A4        1.87499  -0.00002  -0.00015  -0.00005  -0.00020   1.87479
    A5        1.90087  -0.00002  -0.00012  -0.00005  -0.00017   1.90070
    A6        1.90049  -0.00002  -0.00012  -0.00006  -0.00018   1.90031
    A7        2.10891  -0.00001  -0.00006   0.00002  -0.00004   2.10887
    A8        2.04961   0.00001   0.00006  -0.00001   0.00004   2.04965
    A9        2.12467  -0.00000   0.00000  -0.00000   0.00000   2.12467
   A10        2.08139   0.00002   0.00005   0.00008   0.00013   2.08152
   A11        2.09358  -0.00003  -0.00013  -0.00008  -0.00021   2.09336
   A12        2.10822   0.00001   0.00009  -0.00000   0.00008   2.10831
   A13        2.07239  -0.00003  -0.00004  -0.00011  -0.00016   2.07223
   A14        2.10368   0.00001  -0.00001   0.00004   0.00003   2.10371
   A15        2.10712   0.00002   0.00006   0.00007   0.00013   2.10724
   A16        2.05753   0.00001   0.00001   0.00006   0.00007   2.05760
   A17        2.12052   0.00002   0.00019   0.00003   0.00022   2.12073
   A18        2.10514  -0.00004  -0.00020  -0.00009  -0.00029   2.10485
   A19        2.15811   0.00001   0.00006   0.00002   0.00008   2.15819
   A20        2.09732  -0.00001  -0.00016   0.00008  -0.00009   2.09724
   A21        2.02775  -0.00000   0.00011  -0.00010   0.00001   2.02776
   A22        2.07228  -0.00002  -0.00007  -0.00005  -0.00012   2.07216
    D1       -1.03803   0.00000   0.00004   0.00016   0.00019  -1.03784
    D2        2.10381   0.00000   0.00004   0.00016   0.00020   2.10401
    D3        1.04698  -0.00000   0.00002   0.00011   0.00013   1.04711
    D4       -2.09437  -0.00000   0.00002   0.00011   0.00013  -2.09423
    D5       -3.13746   0.00000   0.00003   0.00013   0.00015  -3.13730
    D6        0.00439   0.00000   0.00003   0.00012   0.00015   0.00454
    D7       -3.14127   0.00000   0.00001   0.00001   0.00001  -3.14126
    D8        0.00033   0.00000   0.00001   0.00001   0.00002   0.00035
    D9        0.00006   0.00000   0.00000   0.00001   0.00001   0.00007
   D10       -3.14152   0.00000   0.00000   0.00001   0.00001  -3.14151
   D11        3.14129  -0.00000  -0.00001  -0.00001  -0.00001   3.14128
   D12       -0.00005  -0.00000  -0.00000  -0.00001  -0.00001  -0.00006
   D13       -0.00002  -0.00000  -0.00000  -0.00000  -0.00000  -0.00003
   D14       -3.14158  -0.00000   0.00000  -0.00000  -0.00000  -3.14158
   D15        3.14156  -0.00000  -0.00000  -0.00000  -0.00001   3.14155
   D16        0.00000  -0.00000  -0.00000  -0.00000  -0.00000  -0.00000
   D17       -0.00001  -0.00000  -0.00000  -0.00000  -0.00000  -0.00001
   D18       -3.14155  -0.00000  -0.00000   0.00000  -0.00000  -3.14155
   D19        3.14154  -0.00000  -0.00000  -0.00000  -0.00000   3.14154
   D20        0.00000  -0.00000  -0.00000   0.00000  -0.00000  -0.00000
   D21        0.00002   0.00000   0.00000   0.00000   0.00000   0.00002
   D22       -3.14154   0.00000   0.00000   0.00001   0.00001  -3.14153
   D23        3.14156   0.00000   0.00000  -0.00000   0.00000   3.14156
   D24        0.00000   0.00000   0.00000   0.00001   0.00001   0.00001
   D25        0.00001   0.00000  -0.00000   0.00000   0.00000   0.00002
   D26        3.14157  -0.00000  -0.00000  -0.00000  -0.00000   3.14157
         Item               Value     Threshold  Converged?
 Maximum Force            0.000059     0.000450     YES
 RMS     Force            0.000017     0.000300     YES
 Maximum Displacement     0.000473     0.001800     YES
 RMS     Displacement     0.000146     0.001200     YES
 Predicted change in Energy=-4.095224D-08
 Optimization completed.
    -- Stationary point found.
                           ----------------------------
                           !   Optimized Parameters   !
                           ! (Angstroms and Degrees)  !
 --------------------------                            --------------------------
 ! Name  Definition              Value          Derivative Info.                !
 --------------------------------------------------------------------------------
 ! R1    R(1,2)                  1.5054         -DE/DX =    0.0                 !
 ! R2    R(1,8)                  1.1009         -DE/DX =    0.0                 !
 ! R3    R(1,9)                  1.101          -DE/DX =    0.0                 !
 ! R4    R(1,10)                 1.0967         -DE/DX =    0.0                 !
 ! R5    R(2,3)                  1.4033         -DE/DX =    0.0001              !
 ! R6    R(2,7)                  1.3346         -DE/DX =    0.0                 !
 ! R7    R(3,4)                  1.3892         -DE/DX =    0.0                 !
 ! R8    R(3,11)                 1.0924         -DE/DX =    0.0                 !
 ! R9    R(4,5)                  1.3941         -DE/DX =    0.0                 !
 ! R10   R(4,12)                 1.0926         -DE/DX =    0.0                 !
 ! R11   R(5,6)                  1.3921         -DE/DX =    0.0                 !
 ! R12   R(5,13)                 1.0913         -DE/DX =    0.0                 !
[...]
 InvSVY:  IOpt=1 It=  1 EMax= 8.88D-16
 Solved reduced A of dimension    24 with     3 vectors.
 Calculating GIAO nuclear magnetic shielding tensors.
 SCF GIAO Magnetic shielding tensor (ppm):
      1  C    Isotropic =   160.3949   Anisotropy =    44.6923
   XX=   189.1206   YX=   -10.1182   ZX=    -0.0976
   XY=    -1.9711   YY=   156.0177   ZY=     0.0049
   XZ=     0.0510   YZ=     0.0161   ZZ=   136.0465
   Eigenvalues:   136.0465   154.9484   190.1898
      2  C    Isotropic =    19.5112   Anisotropy =   193.4046
   XX=   -84.0293   YX=    -4.9962   ZX=     0.0005
   XY=   -29.8903   YY=    -5.8848   ZY=    -0.0032
   XZ=     0.0208   YZ=     0.0073   ZZ=   148.4476
   Eigenvalues:   -87.7462    -2.1679   148.4476
      3  C    Isotropic =    58.3634   Anisotropy =   168.7625
   XX=    38.5135   YX=   -29.4712   ZX=     0.0040
   XY=   -55.0769   YY=   -34.2951   ZY=     0.0143
   XZ=    -0.0994   YZ=     0.0313   ZZ=   170.8717
   Eigenvalues:   -53.6794    57.8978   170.8717
      4  C    Isotropic =    44.4128   Anisotropy =   204.6112
   XX=     0.2769   YX=    44.7375   ZX=     0.0137
   XY=    44.5472   YY=   -47.8587   ZY=     0.0026
   XZ=     0.0163   YZ=    -0.0118   ZZ=   180.8203
   Eigenvalues:   -74.5077    26.9259   180.8203
      5  C    Isotropic =    61.0298   Anisotropy =   176.5572
   XX=   -54.2736   YX=    -9.9971   ZX=     0.0200
   XY=    10.4432   YY=    58.6284   ZY=    -0.0001
   XZ=     0.0652   YZ=     0.0036   ZZ=   178.7346
   Eigenvalues:   -54.2741    58.6289   178.7346
      6  C    Isotropic =    30.4164   Anisotropy =   173.4750
   XX=   -10.1424   YX=   -64.7920   ZX=     0.0104
   XY=   -41.7943   YY=   -44.6748   ZY=    -0.0008
   XZ=     0.0074   YZ=     0.0058   ZZ=   146.0664
   Eigenvalues:   -83.4290    28.6118   146.0664
      7  N    Isotropic =   -90.4736   Anisotropy =   542.8486
   XX=  -319.5453   YX=   -90.1757   ZX=     0.0067
   XY=   -83.5375   YY=  -223.3010   ZY=     0.0040
   XZ=    -0.1736   YZ=    -0.0927   ZZ=   271.4254
   Eigenvalues:  -370.7198  -172.1266   271.4254
      8  H    Isotropic =    29.0096   Anisotropy =     6.7317
   XX=    30.1390   YX=     1.1869   ZX=    -2.6363
   XY=     0.1659   YY=    28.3892   ZY=    -1.9169
   XZ=    -3.9364   YZ=    -2.7110   ZZ=    28.5005
   Eigenvalues:    25.1952    28.3361    33.4974
      9  H    Isotropic =    29.0075   Anisotropy =     6.7378
   XX=    30.1310   YX=     1.1600   ZX=     2.6446
   XY=     0.1582   YY=    28.3454   ZY=     1.8931
   XZ=     3.9598   YZ=     2.6874   ZZ=    28.5462
   Eigenvalues:    25.2097    28.3134    33.4994
     10  H    Isotropic =    29.0643   Anisotropy =     7.4930
   XX=    29.5418   YX=    -3.7629   ZX=    -0.0152
   XY=    -0.9252   YY=    32.8434   ZY=     0.0232
   XZ=    -0.0190   YZ=     0.0254   ZZ=    24.8078
   Eigenvalues:    24.8077    28.3256    34.0597
     11  H    Isotropic =    24.2745   Anisotropy =     7.8315
   XX=    28.3027   YX=    -2.7648   ZX=    -0.0011
   XY=    -2.6696   YY=    23.3056   ZY=    -0.0003
   XZ=    -0.0009   YZ=    -0.0062   ZZ=    21.2152
   Eigenvalues:    21.2152    22.1128    29.4955
     12  H    Isotropic =    23.8870   Anisotropy =     5.3429
   XX=    26.4207   YX=     1.8677   ZX=    -0.0008
   XY=     1.8625   YY=    24.0656   ZY=    -0.0000
   XZ=    -0.0010   YZ=    -0.0007   ZZ=    21.1746
   Eigenvalues:    21.1746    23.0374    27.4489
     13  H    Isotropic =    24.4469   Anisotropy =     5.0676
   XX=    23.4485   YX=     0.1046   ZX=    -0.0006
   XY=     0.9562   YY=    27.7610   ZY=    -0.0001
   XZ=     0.0026   YZ=     0.0003   ZZ=    22.1310
   Eigenvalues:    22.1310    23.3843    27.8253
     14  H    Isotropic =    22.8624   Anisotropy =     6.3193
   XX=    24.8780   YX=    -2.0070   ZX=    -0.0009
   XY=    -2.7995   YY=    24.4468   ZY=     0.0002
   XZ=    -0.0017   YZ=     0.0008   ZZ=    19.2625
   Eigenvalues:    19.2625    22.2495    27.0753
 End of Minotr F.D. properties file   721 does not exist.
 End of Minotr F.D. properties file   722 does not exist.
 End of Minotr F.D. properties file   788 does not exist.

 **********************************************************************

            Population analysis using the SCF Density.

 **********************************************************************

 Orbital symmetries:
       Occupied  (A) (A) (A) (A) (A) (A) (A) (A) (A) (A) (A) (A)
                 (A) (A) (A) (A) (A) (A) (A) (A) (A) (A) (A) (A)
                 (A)
       Virtual   (A) (A) (A) (A) (A) (A) (A) (A) (A) (A) (A) (A)
                 (A) (A) (A) (A) (A) (A) (A) (A) (A) (A) (A) (A)
                 (A) (A) (A) (A) (A) (A) (A) (A) (A) (A) (A) (A)
                 (A) (A) (A) (A) (A) (A) (A) (A) (A) (A) (A) (A)
                 (A) (A) (A) (A) (A) (A) (A) (A) (A) (A) (A) (A)
                 (A) (A) (A) (A) (A) (A) (A) (A) (A) (A) (A) (A)
                 (A) (A) (A) (A) (A) (A) (A) (A) (A) (A) (A) (A)
                 (A) (A) (A) (A) (A) (A) (A) (A) (A) (A) (A) (A)
                 (A) (A) (A) (A) (A) (A) (A) (A) (A) (A) (A) (A)
                 (A) (A) (A) (A) (A) (A) (A) (A) (A) (A) (A) (A)
                 (A) (A) (A) (A) (A) (A) (A) (A) (A) (A) (A) (A)
                 (A) (A) (A) (A) (A) (A) (A) (A) (A) (A) (A) (A)
                 (A) (A) (A) (A) (A) (A) (A) (A) (A) (A) (A) (A)
                 (A) (A) (A) (A) (A) (A) (A) (A) (A) (A) (A) (A)
                 (A) (A) (A) (A) (A) (A) (A) (A) (A) (A) (A) (A)
                 (A) (A) (A) (A) (A) (A) (A) (A) (A) (A) (A) (A)
                 (A) (A) (A) (A) (A) (A) (A) (A) (A) (A) (A) (A)
                 (A) (A) (A) (A) (A) (A) (A) (A) (A) (A) (A) (A)
                 (A) (A) (A) (A) (A) (A) (A) (A) (A) (A) (A) (A)
                 (A) (A) (A) (A) (A) (A)
 The electronic state is 1-A.
 Alpha  occ. eigenvalues --  -14.42689 -10.33063 -10.32059 -10.30833 -10.29530
 Alpha  occ. eigenvalues --  -10.29517 -10.27990  -1.04604  -0.90383  -0.88221
 Alpha  occ. eigenvalues --   -0.79757  -0.72499  -0.69763  -0.60633  -0.57731
 Alpha  occ. eigenvalues --   -0.54786  -0.52037  -0.50440  -0.49380  -0.46715
 Alpha  occ. eigenvalues --   -0.46122  -0.44244  -0.36823  -0.33812  -0.33202
 Alpha virt. eigenvalues --    0.03997   0.04958   0.12062   0.13565   0.15782
 Alpha virt. eigenvalues --    0.17561   0.18352   0.18464   0.19720   0.21028
 Alpha virt. eigenvalues --    0.23252   0.23423   0.25991   0.26194   0.28105
 Alpha virt. eigenvalues --    0.30386   0.31200   0.31232   0.32935   0.33364
 Alpha virt. eigenvalues --    0.35863   0.36583   0.36728   0.39377   0.41544
 Alpha virt. eigenvalues --    0.42694   0.42800   0.43151   0.43327   0.47042
 Alpha virt. eigenvalues --    0.48474   0.48683   0.50067   0.51483   0.52013
 Alpha virt. eigenvalues --    0.53791   0.54561   0.55634   0.57337   0.57389
 Alpha virt. eigenvalues --    0.58337   0.59863   0.61552   0.62889   0.67534
 Alpha virt. eigenvalues --    0.68916   0.71608   0.72504   0.73619   0.75709
 Alpha virt. eigenvalues --    0.76719   0.78753   0.79506   0.82928   0.85127
 Alpha virt. eigenvalues --    0.86577   0.90854   0.90983   0.94590   0.95989
 Alpha virt. eigenvalues --    0.98426   1.02844   1.07366   1.07440   1.08270
 Alpha virt. eigenvalues --    1.08599   1.12034   1.16650   1.17581   1.21471
 Alpha virt. eigenvalues --    1.24281   1.25057   1.31090   1.32930   1.34387
 Alpha virt. eigenvalues --    1.35089   1.37020   1.39987   1.40490   1.44382
 Alpha virt. eigenvalues --    1.49538   1.50444   1.52128   1.54899   1.56450
 Alpha virt. eigenvalues --    1.59062   1.59959   1.61485   1.61858   1.64614
 Alpha virt. eigenvalues --    1.65401   1.67031   1.68337   1.72390   1.76087
 Alpha virt. eigenvalues --    1.76736   1.78185   1.79779   1.82398   1.83154
 Alpha virt. eigenvalues --    1.84315   1.89461   1.89546   2.01003   2.01706
 Alpha virt. eigenvalues --    2.05166   2.07391   2.08181   2.09652   2.11665
 Alpha virt. eigenvalues --    2.13120   2.17196   2.20088   2.26454   2.27207
 Alpha virt. eigenvalues --    2.29757   2.31742   2.34683   2.35419   2.40701
 Alpha virt. eigenvalues --    2.43070   2.44413   2.45030   2.50459   2.51753
 Alpha virt. eigenvalues --    2.56960   2.60332   2.61982   2.62517   2.65021
 Alpha virt. eigenvalues --    2.68549   2.69373   2.72792   2.72873   2.76190
 Alpha virt. eigenvalues --    2.76562   2.78376   2.81616   2.81984   2.85414
 Alpha virt. eigenvalues --    2.87895   2.88238   2.88890   2.94648   2.95707
 Alpha virt. eigenvalues --    2.97492   3.00065   3.03060   3.07776   3.09077
 Alpha virt. eigenvalues --    3.10667   3.14086   3.16875   3.16906   3.18883
 Alpha virt. eigenvalues --    3.20195   3.20960   3.21576   3.24103   3.24847
 Alpha virt. eigenvalues --    3.26544   3.27693   3.28392   3.31436   3.35540
 Alpha virt. eigenvalues --    3.38191   3.40042   3.40378   3.42303   3.42827
 Alpha virt. eigenvalues --    3.43187   3.45605   3.45908   3.52197   3.53609
 Alpha virt. eigenvalues --    3.56275   3.57355   3.64311   3.64840   3.67458
 Alpha virt. eigenvalues --    3.70315   3.78057   3.80614   3.83349   3.86695
 Alpha virt. eigenvalues --    3.89033   3.94761   3.95933   3.96204   4.04570
 Alpha virt. eigenvalues --    4.08035   4.09984   4.10251   4.13128   4.21715
 Alpha virt. eigenvalues --    4.26513   4.27473   4.27877   4.34079   4.34860
 Alpha virt. eigenvalues --    4.39973   4.45254   4.48085   4.51041   4.56425
 Alpha virt. eigenvalues --    4.58838   4.64490   4.68965   4.76913   4.81284
 Alpha virt. eigenvalues --    4.83910   4.97350   4.99690   5.03299   5.04452
 Alpha virt. eigenvalues --    5.09623   5.15268   5.21673   5.24335   5.34644
 Alpha virt. eigenvalues --    5.40271   5.48664   5.50930   5.70797   5.79320
 Alpha virt. eigenvalues --    5.89801   6.18584  22.36854  22.48595  22.67637
 Alpha virt. eigenvalues --   22.73068  22.98345  23.17191  32.61723
          Condensed to atoms (all electrons):
               1          2          3          4          5          6
     1  C    4.962338   0.283203  -0.055159   0.001164   0.000014   0.004002
     2  C    0.283203   4.834528   0.489784  -0.029648  -0.031975  -0.095351
     3  C   -0.055159   0.489784   4.976684   0.520214  -0.032082  -0.037274
     4  C    0.001164  -0.029648   0.520214   4.829812   0.501049  -0.012611
     5  C    0.000014  -0.031975  -0.032082   0.501049   4.925590   0.503467
     6  C    0.004002  -0.095351  -0.037274  -0.012611   0.503467   4.736372
     7  N   -0.055650   0.519888  -0.065249  -0.034219  -0.062284   0.529941
     8  H    0.401924  -0.038924   0.002681   0.000184   0.000181  -0.000414
     9  H    0.401376  -0.038406   0.002655   0.000148   0.000189  -0.000418
    10  H    0.428724  -0.060730   0.006753   0.000145   0.000170   0.001061
    11  H    0.000783  -0.033364   0.408527  -0.047321   0.008269  -0.001686
    12  H   -0.000196   0.006184  -0.042734   0.429238  -0.042467   0.004394
    13  H    0.000122  -0.001607   0.007945  -0.054248   0.417136  -0.033491
    14  H   -0.000174   0.004044  -0.001401   0.004591  -0.072348   0.433858
               7          8          9         10         11         12
     1  C   -0.055650   0.401924   0.401376   0.428724   0.000783  -0.000196
     2  C    0.519888  -0.038924  -0.038406  -0.060730  -0.033364   0.006184
     3  C   -0.065249   0.002681   0.002655   0.006753   0.408527  -0.042734
     4  C   -0.034219   0.000184   0.000148   0.000145  -0.047321   0.429238
     5  C   -0.062284   0.000181   0.000189   0.000170   0.008269  -0.042467
     6  C    0.529941  -0.000414  -0.000418   0.001061  -0.001686   0.004394
     7  N    6.461692   0.000470   0.000413   0.010334   0.007155  -0.001498
     8  H    0.000470   0.558679  -0.031578  -0.016964  -0.000813   0.000001
     9  H    0.000413  -0.031578   0.558704  -0.016911  -0.000792   0.000001
    10  H    0.010334  -0.016964  -0.016911   0.506894  -0.000427   0.000017
    11  H    0.007155  -0.000813  -0.000792  -0.000427   0.538175  -0.006299
    12  H   -0.001498   0.000001   0.000001   0.000017  -0.006299   0.526924
    13  H    0.006891  -0.000004  -0.000004  -0.000015   0.000054  -0.006047
    14  H   -0.029145   0.000004   0.000004  -0.000205   0.000112  -0.000209
              13         14
     1  C    0.000122  -0.000174
     2  C   -0.001607   0.004044
     3  C    0.007945  -0.001401
     4  C   -0.054248   0.004591
     5  C    0.417136  -0.072348
     6  C   -0.033491   0.433858
     7  N    0.006891  -0.029145
     8  H   -0.000004   0.000004
     9  H   -0.000004   0.000004
    10  H   -0.000015  -0.000205
    11  H    0.000054   0.000112
    12  H   -0.006047  -0.000209
    13  H    0.536129  -0.001920
    14  H   -0.001920   0.537072
 Mulliken charges:
               1
     1  C   -0.372472
     2  C    0.192374
     3  C   -0.181345
     4  C   -0.108498
     5  C   -0.114910
     6  C   -0.031849
     7  N   -0.288739
     8  H    0.124573
     9  H    0.124619
    10  H    0.141154
    11  H    0.127627
    12  H    0.132692
    13  H    0.129058
    14  H    0.125716
 Sum of Mulliken charges =  -0.00000
 Mulliken charges with hydrogens summed into heavy atoms:
               1
     1  C    0.017874
     2  C    0.192374
     3  C   -0.053718
     4  C    0.024194
     5  C    0.014148
     6  C    0.093868
     7  N   -0.288739
 Electronic spatial extent (au):  <R**2>=            685.1780
 Charge=             -0.0000 electrons
 Dipole moment (field-independent basis, Debye):
    X=             -0.6606    Y=              1.8137    Z=              0.0007  Tot=              1.9303
 Quadrupole moment (field-independent basis, Debye-Ang):
   XX=            -36.0601   YY=            -40.7894   ZZ=            -44.0299
   XY=              1.9268   XZ=              0.0006   YZ=             -0.0003
 Traceless Quadrupole moment (field-independent basis, Debye-Ang):
   XX=              4.2330   YY=             -0.4962   ZZ=             -3.7368
   XY=              1.9268   XZ=              0.0006   YZ=             -0.0003
 Octapole moment (field-independent basis, Debye-Ang**2):
  XXX=             -4.7752  YYY=              6.8911  ZZZ=              0.0105  XYY=             -6.2259
  XXY=              0.1880  XXZ=              0.0024  XZZ=              3.8118  YZZ=             -0.5967
  YYZ=             -0.0087  XYZ=             -0.0004
 Hexadecapole moment (field-independent basis, Debye-Ang**3):
 XXXX=           -569.8908 YYYY=           -276.6896 ZZZZ=            -55.5843 XXXY=             -1.4039
 XXXZ=             -0.0020 YYYX=              7.1604 YYYZ=              0.0003 ZZZX=              0.0289
 ZZZY=              0.0024 XXYY=           -136.7196 XXZZ=           -112.6536 YYZZ=            -62.0965
 XXYZ=             -0.0010 YYXZ=             -0.0277 ZZXY=              2.0498
 N-N= 2.726589948289D+02 E-N=-1.213029801328D+03  KE= 2.860024735401D+02
 Breneman (CHELPG) radii used.
 Read replacement radii for each type of atom:
 Atom Element Radius
    1     6    1.50
    2     6    1.50
    3     6    1.50
    4     6    1.50
    5     6    1.50
    6     6    1.50
    7     7    1.70
    8     1    1.45
    9     1    1.45
   10     1    1.45
   11     1    1.45
   12     1    1.45
   13     1    1.45
   14     1    1.45
 Generate Potential Derived Charges using the Breneman model, NDens= 1.
 Grid spacing= 0.300 Box extension= 2.800
 NStep X,Y,Z=   39     35     26   Total possible points=       35490
 Number of Points to Fit=   10493

 **********************************************************************

            Electrostatic Properties Using The SCF Density.

 **********************************************************************

       Atomic Center    1 is at   2.381749 -0.022874  0.000100
       Atomic Center    2 is at   0.876429 -0.009635 -0.000155
       Atomic Center    3 is at   0.167841  1.201617 -0.000120
       Atomic Center    4 is at  -1.221098  1.175600  0.000025
       Atomic Center    5 is at  -1.868424 -0.059148  0.000102
       Atomic Center    6 is at  -1.081004 -1.207163  0.000016
       Atomic Center    7 is at   0.251167 -1.188670 -0.000116
       Atomic Center    8 is at   2.781916  0.495602 -0.884823
       Atomic Center    9 is at   2.781242  0.487516  0.890054
       Atomic Center   10 is at   2.738050 -1.060077 -0.004251
       Atomic Center   11 is at   0.709408  2.150350 -0.000218
       Atomic Center   12 is at  -1.793662  2.106113  0.000041
       Atomic Center   13 is at  -2.957289 -0.132052  0.000178
       Atomic Center   14 is at  -1.550789 -2.197148  0.000023
   10493 points will be used for fitting atomic charges
 Fitting point charges to electrostatic potential
 Charges from ESP fit, RMS=   0.00328 RRMS=   0.27097:
 ESP charges:
               1
     1  C   -0.356253
     2  C    0.684734
     3  C   -0.494199
     4  C    0.195710
     5  C   -0.391779
     6  C    0.386219
     7  N   -0.672747
     8  H    0.082478
     9  H    0.082554
    10  H    0.097572
    11  H    0.159399
    12  H    0.063543
    13  H    0.136792
    14  H    0.025978
 Sum of ESP charges =  -0.00000
 ESP charges with hydrogens summed into heavy atoms:
               1
     1  C   -0.093650
     2  C    0.684734
     3  C   -0.334800
     4  C    0.259253
     5  C   -0.254987
     6  C    0.412197
     7  N   -0.672747
 Charge=  -0.00000 Dipole=    -0.6931     1.7942     0.0002 Tot=     1.9234
 -----------------------------------------------------------------

              Electrostatic Properties (Atomic Units)

 -----------------------------------------------------------------
    Center     Electric         -------- Electric Field --------
               Potential          X             Y             Z
 -----------------------------------------------------------------
    1 Atom    -14.774040
    2 Atom    -14.728056
    3 Atom    -14.763976
    4 Atom    -14.751574
    5 Atom    -14.764094
    6 Atom    -14.738908
    7 Atom    -18.405686
    8 Atom     -1.111585
    9 Atom     -1.111558
   10 Atom     -1.120345
   11 Atom     -1.096334
   12 Atom     -1.092452
   13 Atom     -1.096184
   14 Atom     -1.108889
 -----------------------------------------------------------------
 Unable to Open any file for archive entry.
 1\1\GINC-NOTCH211\SP\RwB97XD\def2TZVP\C6H7N1\U1112142\18-Dec-2025\0\\#
 N Guess=Read Geom=Check Integral(Ultrafine) Density Pop=(ChelpG,ReadRa
 dii) NMR wB97XD def2TZVP\\Py2_1\\0,1\C,0,-2.4087863695,0.0339597245,-0
 .0000692703\C,0,-0.9034562851,0.0218949316,0.0001855091\C,0,-0.1746088
 074,1.2210649138,0.0001504905\C,0,1.213696495,1.1717050919,0.000005363
 \C,0,1.8401758958,-0.0737482471,-0.0000718212\C,0,1.0335706398,-1.2083
 657142,0.0000139539\N,0,-0.2981015538,-1.1674832351,0.0001465646\H,0,-
 2.8001823704,0.559089104,0.8848530429\H,0,-2.7996444998,0.550993218,-0
 .8900233935\H,0,-2.7824716308,-0.997107486,0.0042812896\H,0,-0.7001532
 112,2.1787675627,0.0002485288\H,0,1.8018202748,2.0924632896,-0.0000103
 057\H,0,2.9276622137,-0.1649449882,-0.0001474624\H,0,1.4866492089,-2.2
 061081656,0.0000075108\\Version=ES64L-G16RevC.01\State=1-A\HF=-287.605
 3198\RMSD=2.900e-09\Dipole=0.2718506,0.7090996,-0.0002561\Quadrupole=3
 .0979967,-0.3197883,-2.7782085,-1.4908474,0.0004801,0.000186\PG=C01 [X
 (C6H7N1)]\\@
 The archive entry for this job was punched.


 CHILDREN YOU ARE VERY LITTLE,
 AND YOUR BONES ARE VERY BRITTLE;
 IF YOU WOULD GROW GREAT AND STATELY
 YOU MUST TRY TO WALK SEDATELY.
 YOU MUST STILL BE BRIGHT AND QUIET,
 AND CONTENT WITH SIMPLE DIET;
 AND REMAIN, THROUGH ALL BEWILD'RING
 INNOCENT AND HONEST CHILDREN.
     -- A CHILD'S GARDEN OF VERSE,
        ROBERT LOUIS STEVENSON
 Job cpu time:       0 days  0 hours 19 minutes 38.8 seconds.
 Elapsed time:       0 days  0 hours  2 minutes 33.9 seconds.
 File lengths (MBytes):  RWF=     56 Int=      0 D2E=      0 Chk=      8 Scr=      2
 Normal termination of Gaussian 16 at Thu Dec 18 23:52:54 2025.
