 Entering Gaussian System, Link 0=g16
 Input=Py3_1.com
 Output=Py3_1.log
 Initial command:
 /uufs/chpc.utah.edu/sys/installdir/gaussian16/C01/AVX/g16/l1.exe "/scratch/general/vast/u1112142/9381387-notchpeak.peaks/Gau-150844.inp" -scrdir="/scratch/general/vast/u1112142/9381387-notchpeak.peaks/"
 Entering Link 1 = /uufs/chpc.utah.edu/sys/installdir/gaussian16/C01/AVX/g16/l1.exe PID=    150845.
  
 Copyright (c) 1988-2019, Gaussian, Inc.  All Rights Reserved.
  
 This is part of the Gaussian(R) 16 program.  It is based on
 the Gaussian(R) 09 system (copyright 2009, Gaussian, Inc.),
 the Gaussian(R) 03 system (copyright 2003, Gaussian, Inc.),
 the Gaussian(R) 98 system (copyright 1998, Gaussian, Inc.),
 the Gaussian(R) 94 system (copyright 1995, Gaussian, Inc.),
 the Gaussian 92(TM) system (copyright 1992, Gaussian, Inc.),
 the Gaussian 90(TM) system (copyright 1990, Gaussian, Inc.),
 the Gaussian 88(TM) system (copyright 1988, Gaussian, Inc.),
 the Gaussian 86(TM) system (copyright 1986, Carnegie Mellon
 University), and the Gaussian 82(TM) system (copyright 1983,
 Carnegie Mellon University). Gaussian is a federally registered
 trademark of Gaussian, Inc.
  
 This software contains proprietary and confidential information,
 including trade secrets, belonging to Gaussian, Inc.
  
 This software is provided under written license and may be
 used, copied, transmitted, or stored only in accord with that
 written license.
  
 The following legend is applicable only to US Government
 contracts under FAR:
  
                    RESTRICTED RIGHTS LEGEND
  
 Use, reproduction and disclosure by the US Government is
 subject to restrictions as set forth in subparagraphs (a)
 and (c) of the Commercial Computer Software - Restricted
 Rights clause in FAR 52.227-19.
  
 Gaussian, Inc.
 340 Quinnipiac St., Bldg. 40, Wallingford CT 06492
  
  
 ---------------------------------------------------------------
 Warning -- This program may not be used in any manner that
 competes with the business of Gaussian, Inc. or will provide
 assistance to any competitor of Gaussian, Inc.  The licensee
 of this program is prohibited from giving any competitor of
 Gaussian, Inc. access to this program.  By using this program,
 the user acknowledges that Gaussian, Inc. is engaged in the
 business of creating and licensing software in the field of
 computational chemistry and represents and warrants to the
 licensee that it is not a competitor of Gaussian, Inc. and that
 it will not use this program in any manner prohibited above.
 ---------------------------------------------------------------
  

 Cite this work as:
 Gaussian 16, Revision C.01,
 M. J. Frisch, G. W. Trucks, H. B. Schlegel, G. E. Scuseria, 
 M. A. Robb, J. R. Cheeseman, G. Scalmani, V. Barone, 
 G. A. Petersson, H. Nakatsuji, X. Li, M. Caricato, A. V. Marenich, 
 J. Bloino, B. G. Janesko, R. Gomperts, B. Mennucci, H. P. Hratchian, 
 J. V. Ortiz, A. F. Izmaylov, J. L. Sonnenberg, D. Williams-Young, 
 F. Ding, F. Lipparini, F. Egidi, J. Goings, B. Peng, A. Petrone, 
 T. Henderson, D. Ranasinghe, V. G. Zakrzewski, J. Gao, N. Rega, 
 G. Zheng, W. Liang, M. Hada, M. Ehara, K. Toyota, R. Fukuda, 
 J. Hasegawa, M. Ishida, T. Nakajima, Y. Honda, O. Kitao, H. Nakai, 
 T. Vreven, K. Throssell, J. A. Montgomery, Jr., J. E. Peralta, 
 F. Ogliaro, M. J. Bearpark, J. J. Heyd, E. N. Brothers, K. N. Kudin, 
 V. N. Staroverov, T. A. Keith, R. Kobayashi, J. Normand, 
 K. Raghavachari, A. P. Rendell, J. C. Burant, S. S. Iyengar, 
 J. Tomasi, M. Cossi, J. M. Millam, M. Klene, C. Adamo, R. Cammi, 
 J. W. Ochterski, R. L. Martin, K. Morokuma, O. Farkas, 
 J. B. Foresman, and D. J. Fox, Gaussian, Inc., Wallingford CT, 2019.
 
 ******************************************
 Gaussian 16:  ES64L-G16RevC.01  3-Jul-2019
                19-Dec-2025 
 ******************************************
 %NProcShared=16
 Will use up to   16 processors via shared memory.
 %Mem=40GB
 %chk=Py3_1.chk
 ------------------------------------------------------
 #N OPT FREQ=NORAMAN Integral(Ultrafine) wB97XD def2SVP
 ------------------------------------------------------
 1/18=20,19=15,26=4,38=1/1,3;
 2/9=110,12=2,17=6,18=5,40=1/2;
 3/5=43,7=101,11=2,25=1,30=1,71=1,74=-58,75=-5/1,2,3;
 4//1;
 5/5=2,38=5/2;
 6/7=2,8=2,9=2,10=2,28=1/1;
 7//1,2,3,16;
 1/18=20,19=15,26=4/3(2);
 2/9=110/2;
 99//99;
 2/9=110/2;
 3/5=43,7=101,11=2,25=1,30=1,71=1,74=-58,75=-5/1,2,3;
 4/5=5,16=3,69=1/1;
 5/5=2,38=5/2;
 7//1,2,3,16;
 1/18=20,19=15,26=4/3(-5);
 2/9=110/2;
 6/7=2,8=2,9=2,10=2,19=2,28=1/1;
 99/9=1/99;
 -----
 Py3_1
 -----
 Symbolic Z-matrix:
 Charge =  0 Multiplicity = 1
 N                     3.07887  -0.02789   0.00011 
 C                     1.93447   0.01206   0.00005 
 C                     0.51172   0.00408  -0.00007 
 C                    -0.16376  -1.21851  -0.00012 
 C                    -1.54818  -1.19394   0.00003 
 C                    -2.19638   0.0315    0.00016 
 C                    -1.42479   1.18768  -0.00002 
 N                    -0.10828   1.18143  -0.00012 
 H                     0.38746  -2.14634  -0.00041 
 H                    -2.11051  -2.11621  -0.00014 
 H                    -3.27331   0.09165   0.00056 
 H                    -1.88268   2.1679   -0.0001 
 

 GradGradGradGradGradGradGradGradGradGradGradGradGradGradGradGradGradGrad
 Berny optimization.
 Initialization pass.
                           ----------------------------
                           !    Initial Parameters    !
                           ! (Angstroms and Degrees)  !
 --------------------------                            --------------------------
 ! Name  Definition              Value          Derivative Info.                !
 --------------------------------------------------------------------------------
 ! R1    R(1,2)                  1.1451         estimate D2E/DX2                !
 ! R2    R(2,3)                  1.4228         estimate D2E/DX2                !
 ! R3    R(3,4)                  1.3968         estimate D2E/DX2                !
 ! R4    R(3,8)                  1.3306         estimate D2E/DX2                !
 ! R5    R(4,5)                  1.3846         estimate D2E/DX2                !
 ! R6    R(4,9)                  1.0792         estimate D2E/DX2                !
 ! R7    R(5,6)                  1.3863         estimate D2E/DX2                !
 ! R8    R(5,10)                 1.0802         estimate D2E/DX2                !
 ! R9    R(6,7)                  1.39           estimate D2E/DX2                !
 ! R10   R(6,11)                 1.0786         estimate D2E/DX2                !
 ! R11   R(7,8)                  1.3165         estimate D2E/DX2                !
 ! R12   R(7,12)                 1.0819         estimate D2E/DX2                !
 ! A1    A(2,3,4)              119.242          estimate D2E/DX2                !
 ! A2    A(2,3,8)              117.4502         estimate D2E/DX2                !
 ! A3    A(4,3,8)              123.3078         estimate D2E/DX2                !
 ! A4    A(3,4,5)              117.9039         estimate D2E/DX2                !
 ! A5    A(3,4,9)              120.365          estimate D2E/DX2                !
 ! A6    A(5,4,9)              121.7311         estimate D2E/DX2                !
 ! A7    A(4,5,6)              118.8935         estimate D2E/DX2                !
 ! A8    A(4,5,10)             120.3549         estimate D2E/DX2                !
 ! A9    A(6,5,10)             120.7516         estimate D2E/DX2                !
 ! A10   A(5,6,7)              118.4056         estimate D2E/DX2                !
 ! A11   A(5,6,11)             121.0736         estimate D2E/DX2                !
 ! A12   A(7,6,11)             120.5208         estimate D2E/DX2                !
 ! A13   A(6,7,8)              123.4456         estimate D2E/DX2                !
 ! A14   A(6,7,12)             121.2437         estimate D2E/DX2                !
 ! A15   A(8,7,12)             115.3107         estimate D2E/DX2                !
 ! A16   A(3,8,7)              118.0436         estimate D2E/DX2                !
 ! A17   L(1,2,3,9,-1)         177.6793         estimate D2E/DX2                !
 ! A18   L(1,2,3,9,-2)         180.0018         estimate D2E/DX2                !
 ! D1    D(2,3,4,5)            179.9875         estimate D2E/DX2                !
 ! D2    D(2,3,4,9)             -0.021          estimate D2E/DX2                !
 ! D3    D(8,3,4,5)             -0.012          estimate D2E/DX2                !
 ! D4    D(8,3,4,9)            179.9794         estimate D2E/DX2                !
 ! D5    D(2,3,8,7)           -179.9896         estimate D2E/DX2                !
 ! D6    D(4,3,8,7)              0.0099         estimate D2E/DX2                !
 ! D7    D(3,4,5,6)              0.0029         estimate D2E/DX2                !
 ! D8    D(3,4,5,10)           179.9915         estimate D2E/DX2                !
 ! D9    D(9,4,5,6)           -179.9884         estimate D2E/DX2                !
 ! D10   D(9,4,5,10)             0.0002         estimate D2E/DX2                !
 ! D11   D(4,5,6,7)              0.0072         estimate D2E/DX2                !
 ! D12   D(4,5,6,11)          -179.9826         estimate D2E/DX2                !
 ! D13   D(10,5,6,7)          -179.9814         estimate D2E/DX2                !
 ! D14   D(10,5,6,11)            0.0289         estimate D2E/DX2                !
 ! D15   D(5,6,7,8)             -0.0098         estimate D2E/DX2                !
 ! D16   D(5,6,7,12)           179.9894         estimate D2E/DX2                !
 ! D17   D(11,6,7,8)           179.98           estimate D2E/DX2                !
 ! D18   D(11,6,7,12)           -0.0207         estimate D2E/DX2                !
 ! D19   D(6,7,8,3)              0.0013         estimate D2E/DX2                !
 ! D20   D(12,7,8,3)          -179.998          estimate D2E/DX2                !
 --------------------------------------------------------------------------------
 Trust Radius=3.00D-01 FncErr=1.00D-07 GrdErr=1.00D-06 EigMax=2.50D+02 EigMin=1.00D-04
 Number of steps in this run=     60 maximum allowed number of steps=    100.
 GradGradGradGradGradGradGradGradGradGradGradGradGradGradGradGradGradGrad

                          Input orientation:                          
 ---------------------------------------------------------------------
 Center     Atomic      Atomic             Coordinates (Angstroms)
 Number     Number       Type             X           Y           Z
 ---------------------------------------------------------------------
      1          7           0        3.078870   -0.027890    0.000110
      2          6           0        1.934470    0.012060    0.000050
      3          6           0        0.511720    0.004080   -0.000070
      4          6           0       -0.163760   -1.218510   -0.000120
      5          6           0       -1.548180   -1.193940    0.000030
      6          6           0       -2.196380    0.031500    0.000160
      7          6           0       -1.424790    1.187680   -0.000020
      8          7           0       -0.108280    1.181430   -0.000120
      9          1           0        0.387460   -2.146340   -0.000410
     10          1           0       -2.110510   -2.116210   -0.000140
     11          1           0       -3.273310    0.091650    0.000560
     12          1           0       -1.882680    2.167900   -0.000100
 ---------------------------------------------------------------------
                    Distance matrix (angstroms):
                    1          2          3          4          5
     1  N    0.000000
     2  C    1.145097   0.000000
     3  C    2.567349   1.422772   0.000000
     4  C    3.454305   2.432462   1.396782   0.000000
     5  C    4.771715   3.685551   2.382948   1.384638   0.000000
     6  C    5.275584   4.130896   2.708239   2.386225   1.386314
     7  C    4.664822   3.559032   2.269577   2.716606   2.384814
     8  N    3.408868   2.353774   1.330621   2.400581   2.777714
     9  H    3.425130   2.655547   2.154007   1.079218   2.157259
    10  H    5.593813   4.570711   3.372198   2.143759   1.080184
    11  H    6.353305   5.208388   3.786043   3.374288   2.151468
    12  H    5.425723   4.383866   3.227269   3.797691   3.378440
                    6          7          8          9         10
     6  C    0.000000
     7  C    1.390001   0.000000
     8  N    2.383800   1.316525   0.000000
     9  H    3.379233   3.794725   3.364493   0.000000
    10  H    2.149426   3.374300   3.857895   2.498152   0.000000
    11  H    1.078609   2.149025   3.347392   4.290669   2.495346
    12  H    2.159308   1.081894   2.030177   4.875059   4.290164
                   11         12
    11  H    0.000000
    12  H    2.498933   0.000000
 Stoichiometry    C6H4N2
 Framework group  C1[X(C6H4N2)]
 Deg. of freedom    30
 Full point group                 C1      NOp   1
 Largest Abelian subgroup         C1      NOp   1
 Largest concise Abelian subgroup C1      NOp   1
                         Standard orientation:                         
 ---------------------------------------------------------------------
 Center     Atomic      Atomic             Coordinates (Angstroms)
 Number     Number       Type             X           Y           Z
 ---------------------------------------------------------------------
      1          7           0        3.141966   -0.002283   -0.000110
      2          6           0        1.997423   -0.037927   -0.000050
      3          6           0        0.574714   -0.024594    0.000070
      4          6           0       -0.096162    1.200528    0.000120
      5          6           0       -1.480664    1.181167   -0.000030
      6          6           0       -2.133470   -0.041825   -0.000160
      7          6           0       -1.366236   -1.200900    0.000020
      8          7           0       -0.049712   -1.199603    0.000120
      9          1           0        0.458545    2.126278    0.000410
     10          1           0       -2.039521    2.105547    0.000140
     11          1           0       -3.210619   -0.097923   -0.000560
     12          1           0       -1.827811   -2.179390    0.000100
 ---------------------------------------------------------------------
 Rotational constants (GHZ):           5.9232474           1.6234554           1.2742158
 Standard basis: def2SVP (5D, 7F)
 There are   140 symmetry adapted cartesian basis functions of A   symmetry.
 There are   132 symmetry adapted basis functions of A   symmetry.
   132 basis functions,   228 primitive gaussians,   140 cartesian basis functions
    27 alpha electrons       27 beta electrons
       nuclear repulsion energy       305.4605472173 Hartrees.
 NAtoms=   12 NActive=   12 NUniq=   12 SFac= 1.00D+00 NAtFMM=   60 NAOKFM=F Big=F
 Integral buffers will be    131072 words long.
 Raffenetti 2 integral format.
 Two-electron integral symmetry is turned on.
 Nuclear repulsion after empirical dispersion term =      305.4561348776 Hartrees.
 One-electron integrals computed using PRISM.
   1 Symmetry operations used in ECPInt.
 ECPInt:  NShTT=    1830 NPrTT=    6902 LenC2=    1810 LenP2D=    5504.
 LDataN:  DoStor=T MaxTD1= 4 Len=   56
 NBasis=   132 RedAO= T EigKep=  6.47D-04  NBF=   132
 NBsUse=   132 1.00D-06 EigRej= -1.00D+00 NBFU=   132
 ExpMin= 1.22D-01 ExpMax= 1.71D+03 ExpMxC= 2.58D+02 IAcc=3 IRadAn=         5 AccDes= 0.00D+00
 Harris functional with IExCor= 4639 and IRadAn=       5 diagonalized for initial guess.
 HarFok:  IExCor= 4639 AccDes= 0.00D+00 IRadAn=         5 IDoV= 1 UseB2=F ITyADJ=14
 ICtDFT=  3500011 ScaDFX=  1.000000  1.000000  1.000000  1.000000
 FoFCou: FMM=F IPFlag=           0 FMFlag=      100000 FMFlg1=           0
         NFxFlg=           0 DoJE=T BraDBF=F KetDBF=T FulRan=T
         wScrn=  0.000000 ICntrl=       500 IOpCl=  0 I1Cent=   200000004 NGrid=           0
         NMat0=    1 NMatS0=      1 NMatT0=    0 NMatD0=    1 NMtDS0=    0 NMtDT0=    0
 Petite list used in FoFCou.
 Keep R1 ints in memory in canonical form, NReq=93730238.
 Requested convergence on RMS density matrix=1.00D-08 within 128 cycles.
 Requested convergence on MAX density matrix=1.00D-06.
 Requested convergence on             energy=1.00D-06.
 No special actions if energy rises.
 Integral accuracy reduced to 1.0D-05 until final iterations.
 Initial convergence to 1.0D-05 achieved.  Increase integral accuracy.
 SCF Done:  E(RwB97XD) =  -340.147376817     A.U. after   16 cycles
            NFock= 16  Conv=0.43D-08     -V/T= 2.0094

 **********************************************************************

            Population analysis using the SCF Density.

 **********************************************************************

 Orbital symmetries:
       Occupied  (A) (A) (A) (A) (A) (A) (A) (A) (A) (A) (A) (A)
                 (A) (A) (A) (A) (A) (A) (A) (A) (A) (A) (A) (A)
                 (A) (A) (A)
       Virtual   (A) (A) (A) (A) (A) (A) (A) (A) (A) (A) (A) (A)
                 (A) (A) (A) (A) (A) (A) (A) (A) (A) (A) (A) (A)
                 (A) (A) (A) (A) (A) (A) (A) (A) (A) (A) (A) (A)
                 (A) (A) (A) (A) (A) (A) (A) (A) (A) (A) (A) (A)
                 (A) (A) (A) (A) (A) (A) (A) (A) (A) (A) (A) (A)
                 (A) (A) (A) (A) (A) (A) (A) (A) (A) (A) (A) (A)
                 (A) (A) (A) (A) (A) (A) (A) (A) (A) (A) (A) (A)
                 (A) (A) (A) (A) (A) (A) (A) (A) (A) (A) (A) (A)
                 (A) (A) (A) (A) (A) (A) (A) (A) (A)
 The electronic state is 1-A.
 Alpha  occ. eigenvalues --  -14.46984 -14.45113 -10.38740 -10.35988 -10.34761
 Alpha  occ. eigenvalues --  -10.34372 -10.34012 -10.33838  -1.08160  -1.00681
 Alpha  occ. eigenvalues --   -0.93242  -0.90267  -0.78056  -0.75579  -0.67868
 Alpha  occ. eigenvalues --   -0.61725  -0.60420  -0.55843  -0.53864  -0.52383
 Alpha  occ. eigenvalues --   -0.49157  -0.45406  -0.45405  -0.43333  -0.39999
 Alpha  occ. eigenvalues --   -0.36936  -0.36310
 Alpha virt. eigenvalues --   -0.00557   0.02007   0.10912   0.12866   0.14606
 Alpha virt. eigenvalues --    0.16704   0.19218   0.20891   0.23562   0.24582
 Alpha virt. eigenvalues --    0.27215   0.33572   0.34905   0.35397   0.38370
 Alpha virt. eigenvalues --    0.42703   0.44611   0.49465   0.51685   0.51879
 Alpha virt. eigenvalues --    0.52792   0.56217   0.56547   0.59600   0.59925
 Alpha virt. eigenvalues --    0.64579   0.64753   0.69067   0.69567   0.70045
 Alpha virt. eigenvalues --    0.71538   0.72083   0.73237   0.74473   0.76191
 Alpha virt. eigenvalues --    0.76976   0.79712   0.80841   0.84647   0.88472
 Alpha virt. eigenvalues --    0.93856   0.95588   0.97619   0.99222   1.00571
 Alpha virt. eigenvalues --    1.07885   1.13748   1.15989   1.19822   1.23943
 Alpha virt. eigenvalues --    1.24236   1.30331   1.30924   1.32462   1.35475
 Alpha virt. eigenvalues --    1.39531   1.44180   1.44596   1.55537   1.67618
 Alpha virt. eigenvalues --    1.69005   1.72471   1.76829   1.77909   1.81003
 Alpha virt. eigenvalues --    1.83150   1.85642   1.86884   1.87871   1.89276
 Alpha virt. eigenvalues --    1.96526   1.99201   2.02804   2.02899   2.04951
 Alpha virt. eigenvalues --    2.07453   2.12588   2.17394   2.23099   2.26724
 Alpha virt. eigenvalues --    2.32078   2.33358   2.36656   2.37092   2.38721
 Alpha virt. eigenvalues --    2.46661   2.47005   2.51350   2.63340   2.66504
 Alpha virt. eigenvalues --    2.67089   2.79835   2.80091   2.82572   2.89577
 Alpha virt. eigenvalues --    2.92787   3.01710   3.09991   3.11365   3.11740
 Alpha virt. eigenvalues --    3.19346   3.26786   3.49918   3.56110   3.79622
          Condensed to atoms (all electrons):
               1          2          3          4          5          6
     1  N    6.109581   0.924147  -0.073852  -0.005846   0.000056   0.000010
     2  C    0.924147   5.254920   0.107778  -0.137306   0.010733   0.002441
     3  C   -0.073852   0.107778   5.196348   0.505815  -0.012208  -0.069550
     4  C   -0.005846  -0.137306   0.505815   4.881160   0.435967   0.008497
     5  C    0.000056   0.010733  -0.012208   0.435967   4.812715   0.425529
     6  C    0.000010   0.002441  -0.069550   0.008497   0.425529   4.956866
     7  C   -0.000018   0.010120  -0.047148  -0.081268  -0.002320   0.427265
     8  N   -0.006023  -0.124549   0.584428  -0.033692  -0.047870  -0.036205
     9  H   -0.000284  -0.015500  -0.031910   0.432043  -0.050298   0.010127
    10  H   -0.000005  -0.000715   0.010860  -0.056161   0.443463  -0.057289
    11  H    0.000000   0.000133   0.000423   0.010443  -0.053714   0.427390
    12  H    0.000006  -0.000200   0.005825   0.001113   0.005653  -0.066335
               7          8          9         10         11         12
     1  N   -0.000018  -0.006023  -0.000284  -0.000005   0.000000   0.000006
     2  C    0.010120  -0.124549  -0.015500  -0.000715   0.000133  -0.000200
     3  C   -0.047148   0.584428  -0.031910   0.010860   0.000423   0.005825
     4  C   -0.081268  -0.033692   0.432043  -0.056161   0.010443   0.001113
     5  C   -0.002320  -0.047870  -0.050298   0.443463  -0.053714   0.005653
     6  C    0.427265  -0.036205   0.010127  -0.057289   0.427390  -0.066335
     7  C    4.718441   0.531182  -0.000300   0.009334  -0.042192   0.428174
     8  N    0.531182   6.256904   0.004640  -0.000191   0.004918  -0.038029
     9  H   -0.000300   0.004640   0.623526  -0.009106  -0.000122   0.000058
    10  H    0.009334  -0.000191  -0.009106   0.629739  -0.010357  -0.000217
    11  H   -0.042192   0.004918  -0.000122  -0.010357   0.629262  -0.005873
    12  H    0.428174  -0.038029   0.000058  -0.000217  -0.005873   0.626700
 Mulliken charges:
               1
     1  N    0.052228
     2  C   -0.032002
     3  C   -0.176807
     4  C    0.039233
     5  C    0.032295
     6  C   -0.028746
     7  C    0.048728
     8  N   -0.095512
     9  H    0.037126
    10  H    0.040644
    11  H    0.039687
    12  H    0.043125
 Sum of Mulliken charges =  -0.00000
 Mulliken charges with hydrogens summed into heavy atoms:
               1
     1  N    0.052228
     2  C   -0.032002
     3  C   -0.176807
     4  C    0.076359
     5  C    0.072940
     6  C    0.010941
     7  C    0.091854
     8  N   -0.095512
 Electronic spatial extent (au):  <R**2>=            869.4597
 Charge=             -0.0000 electrons
 Dipole moment (field-independent basis, Debye):
    X=             -5.2450    Y=              1.9016    Z=              0.0001  Tot=              5.5791
 Quadrupole moment (field-independent basis, Debye-Ang):
   XX=            -51.8852   YY=            -42.0024   ZZ=            -46.4280
   XY=              1.3857   XZ=              0.0014   YZ=              0.0010
 Traceless Quadrupole moment (field-independent basis, Debye-Ang):
   XX=             -5.1133   YY=              4.7694   ZZ=              0.3439
   XY=              1.3857   XZ=              0.0014   YZ=              0.0010
 Octapole moment (field-independent basis, Debye-Ang**2):
  XXX=            -66.9397  YYY=              8.0693  ZZZ=              0.0003  XYY=             -7.6849
  XXY=             -0.8059  XXZ=             -0.0012  XZZ=              2.5550  YZZ=             -1.2629
  YYZ=              0.0021  XYZ=              0.0002
 Hexadecapole moment (field-independent basis, Debye-Ang**3):
 XXXX=           -982.3749 YYYY=           -256.7934 ZZZZ=            -47.0178 XXXY=             -1.4769
 XXXZ=              0.0187 YYYX=              6.9990 YYYZ=              0.0038 ZZZX=             -0.0021
 ZZZY=             -0.0011 XXYY=           -172.1574 XXZZ=           -154.7232 YYZZ=            -57.0467
 XXYZ=              0.0011 YYXZ=             -0.0020 ZZXY=              0.5661
 N-N= 3.054561348776D+02 E-N=-1.399828591840D+03  KE= 3.369954194399D+02
   1 Symmetry operations used in ECPInt.
 ECPInt:  NShTT=    1830 NPrTT=    6902 LenC2=    1810 LenP2D=    5504.
 LDataN:  DoStor=T MaxTD1= 5 Len=  102
 Calling FoFJK, ICntrl=      2127 FMM=F ISym2X=0 I1Cent= 0 IOpClX= 0 NMat=1 NMatS=1 NMatT=0.
 ***** Axes restored to original set *****
 -------------------------------------------------------------------
 Center     Atomic                   Forces (Hartrees/Bohr)
 Number     Number              X              Y              Z
 -------------------------------------------------------------------
      1        7           0.028578014   -0.000634941    0.000004082
      2        6          -0.008093224    0.001246030   -0.000009751
      3        6          -0.015932906   -0.002630921    0.000000054
      4        6           0.000578548    0.003907089   -0.000008979
      5        6          -0.000661575    0.002080609   -0.000014576
      6        6           0.002483161   -0.001718225    0.000014778
      7        6          -0.002921511   -0.000416001    0.000001425
      8        7           0.011283156    0.004147567    0.000004148
      9        1           0.004281794   -0.007125873    0.000007576
     10        1          -0.004330437   -0.007124929    0.000010048
     11        1          -0.009017566    0.000838193   -0.000011600
     12        1          -0.006247455    0.007431402    0.000002794
 -------------------------------------------------------------------
 Cartesian Forces:  Max     0.028578014 RMS     0.006754729

 GradGradGradGradGradGradGradGradGradGradGradGradGradGradGradGradGradGrad
 Berny optimization.
 FormGI is forming the generalized inverse of G from B-inverse, IUseBI=4.
 Internal  Forces:  Max     0.028582956 RMS     0.006202047
 Search for a local minimum.
 Step number   1 out of a maximum of   60
 All quantities printed in internal units (Hartrees-Bohrs-Radians)
 Mixed Optimization -- RFO/linear search
 Second derivative matrix not updated -- first step.
 ITU=  0
     Eigenvalues ---    0.01788   0.01788   0.02199   0.02237   0.02246
     Eigenvalues ---    0.02266   0.02281   0.02308   0.02401   0.02604
     Eigenvalues ---    0.16000   0.16000   0.16000   0.16000   0.22000
     Eigenvalues ---    0.22427   0.24432   0.25000   0.35766   0.35972
     Eigenvalues ---    0.36089   0.36163   0.42046   0.42801   0.45682
     Eigenvalues ---    0.46759   0.47932   0.57584   0.61117   1.38064
 RFO step:  Lambda=-3.20829196D-03 EMin= 1.78752083D-02
 Linear search not attempted -- first point.
 Iteration  1 RMS(Cart)=  0.02158916 RMS(Int)=  0.00020267
 Iteration  2 RMS(Cart)=  0.00020489 RMS(Int)=  0.00000197
 Iteration  3 RMS(Cart)=  0.00000007 RMS(Int)=  0.00000197
 Variable       Old X    -DE/DX   Delta X   Delta X   Delta X     New X
                                 (Linear)    (Quad)   (Total)
    R1        2.16392   0.02858   0.00000   0.02065   0.02065   2.18457
    R2        2.68865   0.02049   0.00000   0.04836   0.04836   2.73701
    R3        2.63954   0.00443   0.00000   0.00909   0.00908   2.64862
    R4        2.51451   0.00573   0.00000   0.00978   0.00978   2.52429
    R5        2.61659   0.00764   0.00000   0.01504   0.01504   2.63163
    R6        2.03943   0.00831   0.00000   0.02283   0.02283   2.06226
    R7        2.61975   0.00543   0.00000   0.01102   0.01102   2.63078
    R8        2.04125   0.00834   0.00000   0.02297   0.02297   2.06422
    R9        2.62672   0.00683   0.00000   0.01481   0.01481   2.64154
   R10        2.03827   0.00905   0.00000   0.02481   0.02481   2.06308
   R11        2.48787   0.01305   0.00000   0.02121   0.02121   2.50908
   R12        2.04448   0.00938   0.00000   0.02598   0.02598   2.07047
    A1        2.08117   0.00082   0.00000   0.00349   0.00349   2.08466
    A2        2.04989  -0.00128   0.00000  -0.00481  -0.00480   2.04509
    A3        2.15213   0.00045   0.00000   0.00131   0.00131   2.15344
    A4        2.05781   0.00103   0.00000   0.00195   0.00194   2.05975
    A5        2.10077  -0.00055   0.00000  -0.00122  -0.00122   2.09954
    A6        2.12461  -0.00047   0.00000  -0.00072  -0.00072   2.12389
    A7        2.07508   0.00023   0.00000  -0.00117  -0.00117   2.07391
    A8        2.10059  -0.00012   0.00000   0.00052   0.00052   2.10111
    A9        2.10751  -0.00010   0.00000   0.00065   0.00065   2.10816
   A10        2.06657   0.00022   0.00000   0.00131   0.00132   2.06789
   A11        2.11313   0.00023   0.00000   0.00144   0.00144   2.11457
   A12        2.10348  -0.00045   0.00000  -0.00275  -0.00276   2.10073
   A13        2.15453  -0.00108   0.00000  -0.00253  -0.00252   2.15201
   A14        2.11610  -0.00203   0.00000  -0.01448  -0.01448   2.10162
   A15        2.01255   0.00311   0.00000   0.01701   0.01700   2.02955
   A16        2.06025  -0.00085   0.00000  -0.00088  -0.00088   2.05937
   A17        3.10109   0.00078   0.00000   0.03694   0.03694   3.13803
   A18        3.14162  -0.00000   0.00000  -0.00022  -0.00022   3.14141
    D1        3.14137   0.00000   0.00000   0.00013   0.00013   3.14150
    D2       -0.00037   0.00001   0.00000   0.00026   0.00026  -0.00011
    D3       -0.00021   0.00000   0.00000   0.00014   0.00014  -0.00007
    D4        3.14123   0.00001   0.00000   0.00027   0.00027   3.14150
    D5       -3.14141  -0.00000   0.00000  -0.00010  -0.00010  -3.14151
    D6        0.00017  -0.00000   0.00000  -0.00011  -0.00011   0.00006
    D7        0.00005  -0.00000   0.00000  -0.00004  -0.00004   0.00001
    D8        3.14144   0.00000   0.00000   0.00014   0.00014   3.14158
    D9       -3.14139  -0.00000   0.00000  -0.00017  -0.00017  -3.14156
   D10        0.00000   0.00000   0.00000   0.00000   0.00000   0.00001
   D11        0.00013  -0.00000   0.00000  -0.00007  -0.00007   0.00006
   D12       -3.14129  -0.00001   0.00000  -0.00021  -0.00021  -3.14149
   D13       -3.14127  -0.00001   0.00000  -0.00025  -0.00025  -3.14151
   D14        0.00050  -0.00001   0.00000  -0.00038  -0.00038   0.00012
   D15       -0.00017   0.00000   0.00000   0.00010   0.00010  -0.00007
   D16        3.14141   0.00000   0.00000   0.00006   0.00006   3.14147
   D17        3.14124   0.00001   0.00000   0.00024   0.00024   3.14148
   D18       -0.00036   0.00001   0.00000   0.00019   0.00019  -0.00017
   D19        0.00002  -0.00000   0.00000  -0.00001  -0.00001   0.00001
   D20       -3.14156   0.00000   0.00000   0.00003   0.00003  -3.14153
         Item               Value     Threshold  Converged?
 Maximum Force            0.028583     0.000450     NO 
 RMS     Force            0.006202     0.000300     NO 
 Maximum Displacement     0.079506     0.001800     NO 
 RMS     Displacement     0.021573     0.001200     NO 
 Predicted change in Energy=-1.617326D-03
 GradGradGradGradGradGradGradGradGradGradGradGradGradGradGradGradGradGrad

                          Input orientation:                          
 ---------------------------------------------------------------------
 Center     Atomic      Atomic             Coordinates (Angstroms)
 Number     Number       Type             X           Y           Z
 ---------------------------------------------------------------------
      1          7           0        3.120943    0.003352    0.000067
      2          6           0        1.964916    0.002450   -0.000100
      3          6           0        0.516567   -0.003841   -0.000094
      4          6           0       -0.167070   -1.227398   -0.000128
      5          6           0       -1.559373   -1.198763   -0.000011
      6          6           0       -2.205386    0.034419    0.000121
      7          6           0       -1.426342    1.195043    0.000062
      8          7           0       -0.098659    1.181845   -0.000036
      9          1           0        0.386997   -2.167583   -0.000261
     10          1           0       -2.131144   -2.129507   -0.000044
     11          1           0       -3.295076    0.101216    0.000308
     12          1           0       -1.901743    2.182176    0.000045
 ---------------------------------------------------------------------
                    Distance matrix (angstroms):
                    1          2          3          4          5
     1  N    0.000000
     2  C    1.156027   0.000000
     3  C    2.604386   1.448363   0.000000
     4  C    3.510809   2.461279   1.401589   0.000000
     5  C    4.832229   3.723375   2.395279   1.392597   0.000000
     6  C    5.326419   4.170425   2.722222   2.397272   1.392146
     7  C    4.700843   3.594845   2.283028   2.730199   2.397500
     8  N    3.428511   2.376830   1.335798   2.410215   2.793023
     9  H    3.491049   2.683071   2.167618   1.091300   2.174158
    10  H    5.668642   4.617678   3.395413   2.161339   1.092340
    11  H    6.416765   5.260919   3.813090   3.398475   2.168550
    12  H    5.474910   4.438723   3.259891   3.825479   3.398230
                    6          7          8          9         10
     6  C    0.000000
     7  C    1.397840   0.000000
     8  N    2.398934   1.327748   0.000000
     9  H    3.401361   3.820399   3.384454   0.000000
    10  H    2.165200   3.398438   3.885364   2.518428   0.000000
    11  H    1.091735   2.165323   3.374143   4.324940   2.516121
    12  H    2.169115   1.095645   2.061982   4.915153   4.317782
                   11         12
    11  H    0.000000
    12  H    2.504351   0.000000
 Stoichiometry    C6H4N2
 Framework group  C1[X(C6H4N2)]
 Deg. of freedom    30
 Full point group                 C1      NOp   1
 Largest Abelian subgroup         C1      NOp   1
 Largest concise Abelian subgroup C1      NOp   1
                         Standard orientation:                         
 ---------------------------------------------------------------------
 Center     Atomic      Atomic             Coordinates (Angstroms)
 Number     Number       Type             X           Y           Z
 ---------------------------------------------------------------------
      1          7           0        3.177364   -0.014682   -0.000079
      2          6           0        2.021337   -0.015760    0.000089
      3          6           0        0.572979   -0.011952    0.000083
      4          6           0       -0.112754    1.210432    0.000116
      5          6           0       -1.505005    1.179410   -0.000001
      6          6           0       -2.148904   -0.054877   -0.000133
      7          6           0       -1.367872   -1.214165   -0.000074
      8          7           0       -0.040214   -1.198691    0.000024
      9          1           0        0.439700    2.151564    0.000249
     10          1           0       -2.078371    2.109173    0.000032
     11          1           0       -3.238478   -0.123542   -0.000319
     12          1           0       -1.841580   -2.202111   -0.000057
 ---------------------------------------------------------------------
 Rotational constants (GHZ):           5.8668786           1.5908810           1.2515160
 Standard basis: def2SVP (5D, 7F)
 There are   140 symmetry adapted cartesian basis functions of A   symmetry.
 There are   132 symmetry adapted basis functions of A   symmetry.
   132 basis functions,   228 primitive gaussians,   140 cartesian basis functions
    27 alpha electrons       27 beta electrons
       nuclear repulsion energy       303.0531793397 Hartrees.
 NAtoms=   12 NActive=   12 NUniq=   12 SFac= 1.00D+00 NAtFMM=   60 NAOKFM=F Big=F
 Integral buffers will be    131072 words long.
 Raffenetti 2 integral format.
 Two-electron integral symmetry is turned on.
 Nuclear repulsion after empirical dispersion term =      303.0487961804 Hartrees.
 One-electron integrals computed using PRISM.
   1 Symmetry operations used in ECPInt.
 ECPInt:  NShTT=    1830 NPrTT=    6902 LenC2=    1809 LenP2D=    5480.
 LDataN:  DoStor=T MaxTD1= 4 Len=   56
 NBasis=   132 RedAO= T EigKep=  6.85D-04  NBF=   132
 NBsUse=   132 1.00D-06 EigRej= -1.00D+00 NBFU=   132
 Initial guess from the checkpoint file:  "Py3_1.chk"
 B after Tr=    -0.000000    0.000000    0.000000
         Rot=    0.999998   -0.000013    0.000007   -0.002084 Ang=  -0.24 deg.
 ExpMin= 1.22D-01 ExpMax= 1.71D+03 ExpMxC= 2.58D+02 IAcc=3 IRadAn=         5 AccDes= 0.00D+00
 Harris functional with IExCor= 4639 and IRadAn=       5 diagonalized for initial guess.
 HarFok:  IExCor= 4639 AccDes= 0.00D+00 IRadAn=         5 IDoV= 1 UseB2=F ITyADJ=14
 ICtDFT=  3500011 ScaDFX=  1.000000  1.000000  1.000000  1.000000
 FoFCou: FMM=F IPFlag=           0 FMFlag=      100000 FMFlg1=           0
         NFxFlg=           0 DoJE=T BraDBF=F KetDBF=T FulRan=T
         wScrn=  0.000000 ICntrl=       500 IOpCl=  0 I1Cent=   200000004 NGrid=           0
         NMat0=    1 NMatS0=      1 NMatT0=    0 NMatD0=    1 NMtDS0=    0 NMtDT0=    0
 Petite list used in FoFCou.
 Keep R1 ints in memory in canonical form, NReq=93730238.
 Requested convergence on RMS density matrix=1.00D-08 within 128 cycles.
 Requested convergence on MAX density matrix=1.00D-06.
 Requested convergence on             energy=1.00D-06.
 No special actions if energy rises.
 Integral accuracy reduced to 1.0D-05 until final iterations.
 Initial convergence to 1.0D-05 achieved.  Increase integral accuracy.
 SCF Done:  E(RwB97XD) =  -340.148867637     A.U. after   13 cycles
            NFock= 13  Conv=0.97D-08     -V/T= 2.0102
   1 Symmetry operations used in ECPInt.
 ECPInt:  NShTT=    1830 NPrTT=    6902 LenC2=    1809 LenP2D=    5480.
 LDataN:  DoStor=T MaxTD1= 5 Len=  102
 Calling FoFJK, ICntrl=      2127 FMM=F ISym2X=0 I1Cent= 0 IOpClX= 0 NMat=1 NMatS=1 NMatT=0.
 ***** Axes restored to original set *****
 -------------------------------------------------------------------
 Center     Atomic                   Forces (Hartrees/Bohr)
 Number     Number              X              Y              Z
 -------------------------------------------------------------------
      1        7           0.000034761   -0.001041023   -0.000005906
      2        6           0.000631739    0.002688559    0.000009391
      3        6          -0.005345685   -0.001591142   -0.000004103
      4        6           0.000803526    0.000849678   -0.000002137
      5        6           0.000016287    0.000287266   -0.000000787
      6        6           0.000673072   -0.000172177    0.000003682
      7        6           0.000172864   -0.000934973   -0.000003325
      8        7           0.002227419   -0.000208902    0.000000126
      9        1          -0.000236722    0.000264078    0.000001821
     10        1           0.000324248    0.000306773    0.000002046
     11        1           0.000396162    0.000132533   -0.000004678
     12        1           0.000302328   -0.000580669    0.000003871
 -------------------------------------------------------------------
 Cartesian Forces:  Max     0.005345685 RMS     0.001161787

 GradGradGradGradGradGradGradGradGradGradGradGradGradGradGradGradGradGrad
 Berny optimization.
 Using GEDIIS/GDIIS optimizer.
 FormGI is forming the generalized inverse of G from B-inverse, IUseBI=4.
 Internal  Forces:  Max     0.002354081 RMS     0.000769882
 Search for a local minimum.
 Step number   2 out of a maximum of   60
 All quantities printed in internal units (Hartrees-Bohrs-Radians)
 Mixed Optimization -- En-DIIS/RFO-DIIS
 Update second derivatives using D2CorX and points    1    2
 DE= -1.49D-03 DEPred=-1.62D-03 R= 9.22D-01
 TightC=F SS=  1.41D+00  RLast= 9.07D-02 DXNew= 5.0454D-01 2.7212D-01
 Trust test= 9.22D-01 RLast= 9.07D-02 DXMaxT set to 3.00D-01
 ITU=  1  0
 Use linear search instead of GDIIS.
     Eigenvalues ---    0.01788   0.01877   0.02199   0.02237   0.02246
     Eigenvalues ---    0.02265   0.02281   0.02307   0.02405   0.02603
     Eigenvalues ---    0.15952   0.16000   0.16000   0.16024   0.21985
     Eigenvalues ---    0.22428   0.24061   0.24885   0.35843   0.36023
     Eigenvalues ---    0.36126   0.36574   0.40575   0.43004   0.45852
     Eigenvalues ---    0.47557   0.48095   0.59082   0.61816   1.36783
 RFO step:  Lambda=-3.18425990D-04 EMin= 1.78752079D-02
 Quartic linear search produced a step of -0.05428.
 Iteration  1 RMS(Cart)=  0.02797689 RMS(Int)=  0.00169532
 Iteration  2 RMS(Cart)=  0.00169585 RMS(Int)=  0.00000179
 Iteration  3 RMS(Cart)=  0.00000189 RMS(Int)=  0.00000142
 Iteration  4 RMS(Cart)=  0.00000000 RMS(Int)=  0.00000142
 Variable       Old X    -DE/DX   Delta X   Delta X   Delta X     New X
                                 (Linear)    (Quad)   (Total)
    R1        2.18457   0.00003  -0.00112   0.00325   0.00213   2.18670
    R2        2.73701   0.00067  -0.00263   0.00900   0.00638   2.74339
    R3        2.64862  -0.00172  -0.00049  -0.00221  -0.00270   2.64592
    R4        2.52429  -0.00235  -0.00053  -0.00235  -0.00288   2.52142
    R5        2.63163  -0.00111  -0.00082   0.00023  -0.00059   2.63104
    R6        2.06226  -0.00035  -0.00124   0.00262   0.00138   2.06364
    R7        2.63078  -0.00095  -0.00060  -0.00001  -0.00061   2.63016
    R8        2.06422  -0.00043  -0.00125   0.00241   0.00117   2.06539
    R9        2.64154  -0.00069  -0.00080   0.00099   0.00018   2.64172
   R10        2.06308  -0.00039  -0.00135   0.00282   0.00147   2.06455
   R11        2.50908  -0.00079  -0.00115   0.00206   0.00091   2.50999
   R12        2.07047  -0.00065  -0.00141   0.00228   0.00087   2.07134
    A1        2.08466   0.00014  -0.00019   0.00126   0.00106   2.08572
    A2        2.04509  -0.00206   0.00026  -0.00832  -0.00806   2.03703
    A3        2.15344   0.00192  -0.00007   0.00706   0.00700   2.16043
    A4        2.05975  -0.00044  -0.00011  -0.00157  -0.00168   2.05808
    A5        2.09954   0.00029   0.00007   0.00119   0.00125   2.10080
    A6        2.12389   0.00014   0.00004   0.00038   0.00042   2.12431
    A7        2.07391  -0.00055   0.00006  -0.00202  -0.00196   2.07195
    A8        2.10111   0.00016  -0.00003   0.00032   0.00029   2.10140
    A9        2.10816   0.00039  -0.00004   0.00171   0.00167   2.10983
   A10        2.06789   0.00013  -0.00007   0.00132   0.00124   2.06913
   A11        2.11457   0.00010  -0.00008   0.00063   0.00056   2.11513
   A12        2.10073  -0.00023   0.00015  -0.00195  -0.00180   2.09893
   A13        2.15201   0.00044   0.00014   0.00157   0.00171   2.15372
   A14        2.10162  -0.00019   0.00079  -0.00303  -0.00224   2.09938
   A15        2.02955  -0.00024  -0.00092   0.00146   0.00053   2.03009
   A16        2.05937  -0.00151   0.00005  -0.00636  -0.00631   2.05306
   A17        3.13803  -0.00228  -0.00201  -0.11464  -0.11665   3.02138
   A18        3.14141   0.00001   0.00001   0.00052   0.00053   3.14194
    D1        3.14150   0.00000  -0.00001   0.00005   0.00004   3.14155
    D2       -0.00011   0.00000  -0.00001   0.00009   0.00007  -0.00004
    D3       -0.00007   0.00000  -0.00001   0.00005   0.00004  -0.00003
    D4        3.14150   0.00000  -0.00001   0.00009   0.00007   3.14157
    D5       -3.14151  -0.00000   0.00001  -0.00005  -0.00004  -3.14156
    D6        0.00006  -0.00000   0.00001  -0.00005  -0.00004   0.00002
    D7        0.00001   0.00000   0.00000  -0.00000   0.00000   0.00001
    D8        3.14158   0.00000  -0.00001   0.00003   0.00003  -3.14158
    D9       -3.14156  -0.00000   0.00001  -0.00004  -0.00003  -3.14159
   D10        0.00001  -0.00000  -0.00000  -0.00000  -0.00000   0.00000
   D11        0.00006  -0.00000   0.00000  -0.00005  -0.00004   0.00001
   D12       -3.14149  -0.00000   0.00001  -0.00009  -0.00008  -3.14158
   D13       -3.14151  -0.00000   0.00001  -0.00008  -0.00007  -3.14158
   D14        0.00012  -0.00000   0.00002  -0.00013  -0.00011   0.00002
   D15       -0.00007   0.00000  -0.00001   0.00005   0.00005  -0.00002
   D16        3.14147   0.00000  -0.00000   0.00010   0.00010   3.14157
   D17        3.14148   0.00000  -0.00001   0.00010   0.00008   3.14156
   D18       -0.00017   0.00000  -0.00001   0.00015   0.00014  -0.00003
   D19        0.00001  -0.00000   0.00000  -0.00000  -0.00000   0.00001
   D20       -3.14153  -0.00000  -0.00000  -0.00005  -0.00006  -3.14158
         Item               Value     Threshold  Converged?
 Maximum Force            0.002354     0.000450     NO 
 RMS     Force            0.000770     0.000300     NO 
 Maximum Displacement     0.164215     0.001800     NO 
 RMS     Displacement     0.028249     0.001200     NO 
 Predicted change in Energy=-1.627770D-04
 GradGradGradGradGradGradGradGradGradGradGradGradGradGradGradGradGradGrad

                          Input orientation:                          
 ---------------------------------------------------------------------
 Center     Atomic      Atomic             Coordinates (Angstroms)
 Number     Number       Type             X           Y           Z
 ---------------------------------------------------------------------
      1          7           0        3.114002   -0.083547   -0.000290
      2          6           0        1.963187    0.037404    0.000044
      3          6           0        0.511625    0.014912    0.000012
      4          6           0       -0.158952   -1.214224   -0.000056
      5          6           0       -1.551134   -1.197304   -0.000027
      6          6           0       -2.204933    0.031400    0.000052
      7          6           0       -1.434786    1.198062    0.000086
      8          7           0       -0.106557    1.197343    0.000071
      9          1           0        0.403773   -2.150102   -0.000119
     10          1           0       -2.115646   -2.133191   -0.000064
     11          1           0       -3.295776    0.091818    0.000094
     12          1           0       -1.920173    2.180839    0.000126
 ---------------------------------------------------------------------
                    Distance matrix (angstroms):
                    1          2          3          4          5
     1  N    0.000000
     2  C    1.157153   0.000000
     3  C    2.604239   1.451737   0.000000
     4  C    3.462752   2.463746   1.400160   0.000000
     5  C    4.796243   3.724910   2.392580   1.392285   0.000000
     6  C    5.320177   4.168125   2.716608   2.395333   1.391821
     7  C    4.725885   3.590731   2.277797   2.728896   2.398189
     8  N    3.465931   2.372615   1.334276   2.412136   2.796629
     9  H    3.408225   2.686440   2.167699   1.092029   2.174738
    10  H    5.616961   4.620429   3.393655   2.161747   1.092958
    11  H    6.412176   5.259245   3.808177   3.397854   2.169242
    12  H    5.519996   4.435629   3.256513   3.824703   3.398240
                    6          7          8          9         10
     6  C    0.000000
     7  C    1.397936   0.000000
     8  N    2.400542   1.328229   0.000000
     9  H    3.400632   3.819751   3.386123   0.000000
    10  H    2.166431   3.400119   3.889587   2.519475   0.000000
    11  H    1.092515   2.164961   3.375396   4.325837   2.518605
    12  H    2.168219   1.096107   2.063120   4.915056   4.318456
                   11         12
    11  H    0.000000
    12  H    2.501258   0.000000
 Stoichiometry    C6H4N2
 Framework group  C1[X(C6H4N2)]
 Deg. of freedom    30
 Full point group                 C1      NOp   1
 Largest Abelian subgroup         C1      NOp   1
 Largest concise Abelian subgroup C1      NOp   1
                         Standard orientation:                         
 ---------------------------------------------------------------------
 Center     Atomic      Atomic             Coordinates (Angstroms)
 Number     Number       Type             X           Y           Z
 ---------------------------------------------------------------------
      1          7           0        3.172469    0.023163    0.000275
      2          6           0        2.020154   -0.082540   -0.000059
      3          6           0        0.569017   -0.040830   -0.000027
      4          6           0       -0.085226    1.197076    0.000040
      5          6           0       -1.477511    1.198591    0.000012
      6          6           0       -2.147521   -0.021348   -0.000067
      7          6           0       -1.392889   -1.198105   -0.000102
      8          7           0       -0.064767   -1.214973   -0.000087
      9          1           0        0.489840    2.125422    0.000104
     10          1           0       -2.029581    2.141870    0.000049
     11          1           0       -3.239068   -0.067317   -0.000109
     12          1           0       -1.891246   -2.174369   -0.000141
 ---------------------------------------------------------------------
 Rotational constants (GHZ):           5.8527048           1.5947003           1.2532298
 Standard basis: def2SVP (5D, 7F)
 There are   140 symmetry adapted cartesian basis functions of A   symmetry.
 There are   132 symmetry adapted basis functions of A   symmetry.
   132 basis functions,   228 primitive gaussians,   140 cartesian basis functions
    27 alpha electrons       27 beta electrons
       nuclear repulsion energy       303.1158348596 Hartrees.
 NAtoms=   12 NActive=   12 NUniq=   12 SFac= 1.00D+00 NAtFMM=   60 NAOKFM=F Big=F
 Integral buffers will be    131072 words long.
 Raffenetti 2 integral format.
 Two-electron integral symmetry is turned on.
 Nuclear repulsion after empirical dispersion term =      303.1114389775 Hartrees.
 One-electron integrals computed using PRISM.
   1 Symmetry operations used in ECPInt.
 ECPInt:  NShTT=    1830 NPrTT=    6902 LenC2=    1809 LenP2D=    5480.
 LDataN:  DoStor=T MaxTD1= 4 Len=   56
 NBasis=   132 RedAO= T EigKep=  6.68D-04  NBF=   132
 NBsUse=   132 1.00D-06 EigRej= -1.00D+00 NBFU=   132
 Initial guess from the checkpoint file:  "Py3_1.chk"
 B after Tr=     0.000000    0.000000    0.000000
         Rot=    0.999987   -0.000006    0.000013    0.005063 Ang=  -0.58 deg.
 ExpMin= 1.22D-01 ExpMax= 1.71D+03 ExpMxC= 2.58D+02 IAcc=3 IRadAn=         5 AccDes= 0.00D+00
 Harris functional with IExCor= 4639 and IRadAn=       5 diagonalized for initial guess.
 HarFok:  IExCor= 4639 AccDes= 0.00D+00 IRadAn=         5 IDoV= 1 UseB2=F ITyADJ=14
 ICtDFT=  3500011 ScaDFX=  1.000000  1.000000  1.000000  1.000000
 FoFCou: FMM=F IPFlag=           0 FMFlag=      100000 FMFlg1=           0
         NFxFlg=           0 DoJE=T BraDBF=F KetDBF=T FulRan=T
         wScrn=  0.000000 ICntrl=       500 IOpCl=  0 I1Cent=   200000004 NGrid=           0
         NMat0=    1 NMatS0=      1 NMatT0=    0 NMatD0=    1 NMtDS0=    0 NMtDT0=    0
 Petite list used in FoFCou.
 Keep R1 ints in memory in canonical form, NReq=93730238.
 Requested convergence on RMS density matrix=1.00D-08 within 128 cycles.
 Requested convergence on MAX density matrix=1.00D-06.
 Requested convergence on             energy=1.00D-06.
 No special actions if energy rises.
 Integral accuracy reduced to 1.0D-05 until final iterations.
 Initial convergence to 1.0D-05 achieved.  Increase integral accuracy.
 SCF Done:  E(RwB97XD) =  -340.148567120     A.U. after   14 cycles
            NFock= 14  Conv=0.57D-08     -V/T= 2.0102
   1 Symmetry operations used in ECPInt.
 ECPInt:  NShTT=    1830 NPrTT=    6902 LenC2=    1809 LenP2D=    5480.
 LDataN:  DoStor=T MaxTD1= 5 Len=  102
 Calling FoFJK, ICntrl=      2127 FMM=F ISym2X=0 I1Cent= 0 IOpClX= 0 NMat=1 NMatS=1 NMatT=0.
 ***** Axes restored to original set *****
 -------------------------------------------------------------------
 Center     Atomic                   Forces (Hartrees/Bohr)
 Number     Number              X              Y              Z
 -------------------------------------------------------------------
      1        7          -0.001893583    0.003717608    0.000013756
      2        6           0.000919064   -0.007875634   -0.000027369
      3        6           0.000357452    0.003796866    0.000013319
      4        6           0.001155612   -0.000711063    0.000000506
      5        6          -0.000023903    0.000036601   -0.000001031
      6        6          -0.000123157    0.000401854    0.000000327
      7        6          -0.000643749    0.000093405   -0.000002042
      8        7          -0.001300061   -0.000271690    0.000002098
      9        1          -0.000389630    0.000877267    0.000000557
     10        1           0.000516663    0.000714091   -0.000000015
     11        1           0.000928706    0.000041112   -0.000000518
     12        1           0.000496586   -0.000820417    0.000000413
 -------------------------------------------------------------------
 Cartesian Forces:  Max     0.007875634 RMS     0.001687458

 GradGradGradGradGradGradGradGradGradGradGradGradGradGradGradGradGradGrad
 Berny optimization.
 Using GEDIIS/GDIIS optimizer.
 FormGI is forming the generalized inverse of G from B-inverse, IUseBI=4.
 Internal  Forces:  Max     0.007650482 RMS     0.001254754
 Search for a local minimum.
 Step number   3 out of a maximum of   60
 All quantities printed in internal units (Hartrees-Bohrs-Radians)
 Mixed Optimization -- RFO/linear search
 Update second derivatives using D2CorX and points    1    3    2
 DE=  3.01D-04 DEPred=-1.63D-04 R=-1.85D+00
 Trust test=-1.85D+00 RLast= 1.18D-01 DXMaxT set to 1.50D-01
 ITU= -1  1  0
 Use linear search instead of GDIIS.
     Eigenvalues ---    0.01788   0.02199   0.02237   0.02246   0.02265
     Eigenvalues ---    0.02281   0.02306   0.02406   0.02602   0.07990
     Eigenvalues ---    0.15924   0.16000   0.16006   0.16014   0.21947
     Eigenvalues ---    0.22331   0.22527   0.25919   0.35819   0.36011
     Eigenvalues ---    0.36123   0.36362   0.40439   0.42786   0.45776
     Eigenvalues ---    0.46831   0.47958   0.57610   0.61243   1.37108
 RFO step:  Lambda=-4.59173544D-05 EMin= 1.78751814D-02
 Quartic linear search produced a step of -0.74110.
 Iteration  1 RMS(Cart)=  0.02261938 RMS(Int)=  0.00107905
 Iteration  2 RMS(Cart)=  0.00105727 RMS(Int)=  0.00000101
 Iteration  3 RMS(Cart)=  0.00000038 RMS(Int)=  0.00000099
 Variable       Old X    -DE/DX   Delta X   Delta X   Delta X     New X
                                 (Linear)    (Quad)   (Total)
    R1        2.18670  -0.00227  -0.00158  -0.00016  -0.00174   2.18496
    R2        2.74339  -0.00104  -0.00473   0.00127  -0.00346   2.73993
    R3        2.64592  -0.00111   0.00200  -0.00372  -0.00172   2.64420
    R4        2.52142   0.00015   0.00213  -0.00324  -0.00111   2.52030
    R5        2.63104  -0.00054   0.00044  -0.00198  -0.00155   2.62949
    R6        2.06364  -0.00095  -0.00102  -0.00123  -0.00225   2.06139
    R7        2.63016  -0.00034   0.00046  -0.00160  -0.00114   2.62902
    R8        2.06539  -0.00088  -0.00087  -0.00137  -0.00224   2.06316
    R9        2.64172  -0.00109  -0.00013  -0.00159  -0.00173   2.63999
   R10        2.06455  -0.00093  -0.00109  -0.00127  -0.00236   2.06219
   R11        2.50999  -0.00061  -0.00067  -0.00110  -0.00177   2.50822
   R12        2.07134  -0.00096  -0.00065  -0.00192  -0.00257   2.06877
    A1        2.08572  -0.00191  -0.00079  -0.00132  -0.00210   2.08362
    A2        2.03703   0.00181   0.00597  -0.00493   0.00105   2.03807
    A3        2.16043   0.00010  -0.00519   0.00625   0.00106   2.16149
    A4        2.05808  -0.00031   0.00124  -0.00197  -0.00073   2.05735
    A5        2.10080   0.00003  -0.00093   0.00118   0.00025   2.10105
    A6        2.12431   0.00027  -0.00031   0.00079   0.00048   2.12479
    A7        2.07195   0.00026   0.00145  -0.00137   0.00009   2.07204
    A8        2.10140  -0.00020  -0.00021  -0.00005  -0.00026   2.10114
    A9        2.10983  -0.00005  -0.00124   0.00142   0.00018   2.11001
   A10        2.06913   0.00005  -0.00092   0.00102   0.00011   2.06924
   A11        2.11513   0.00007  -0.00041   0.00053   0.00012   2.11524
   A12        2.09893  -0.00012   0.00133  -0.00156  -0.00022   2.09871
   A13        2.15372  -0.00015  -0.00127   0.00151   0.00025   2.15396
   A14        2.09938   0.00016   0.00166  -0.00067   0.00099   2.10037
   A15        2.03009  -0.00001  -0.00040  -0.00084  -0.00124   2.02885
   A16        2.05306   0.00006   0.00468  -0.00544  -0.00077   2.05230
   A17        3.02138   0.00765   0.08645   0.00516   0.09160   3.11299
   A18        3.14194  -0.00002  -0.00040   0.00015  -0.00025   3.14169
    D1        3.14155   0.00000  -0.00003   0.00006   0.00003   3.14158
    D2       -0.00004   0.00000  -0.00005   0.00008   0.00002  -0.00001
    D3       -0.00003   0.00000  -0.00003   0.00004   0.00001  -0.00002
    D4        3.14157  -0.00000  -0.00005   0.00005  -0.00000   3.14157
    D5       -3.14156  -0.00000   0.00003  -0.00006  -0.00003  -3.14159
    D6        0.00002  -0.00000   0.00003  -0.00004  -0.00001   0.00001
    D7        0.00001  -0.00000  -0.00000   0.00000  -0.00000   0.00001
    D8       -3.14158  -0.00000  -0.00002   0.00001  -0.00001  -3.14159
    D9       -3.14159   0.00000   0.00002  -0.00001   0.00001  -3.14158
   D10        0.00000   0.00000   0.00000   0.00000   0.00000   0.00001
   D11        0.00001  -0.00000   0.00003  -0.00004  -0.00000   0.00001
   D12       -3.14158  -0.00000   0.00006  -0.00006  -0.00000  -3.14158
   D13       -3.14158   0.00000   0.00005  -0.00005   0.00000  -3.14158
   D14        0.00002  -0.00000   0.00008  -0.00008   0.00000   0.00002
   D15       -0.00002   0.00000  -0.00003   0.00004   0.00000  -0.00002
   D16        3.14157   0.00000  -0.00007   0.00009   0.00002   3.14158
   D17        3.14156   0.00000  -0.00006   0.00007   0.00000   3.14157
   D18       -0.00003   0.00000  -0.00010   0.00012   0.00002  -0.00001
   D19        0.00001   0.00000   0.00000  -0.00000   0.00000   0.00001
   D20       -3.14158   0.00000   0.00004  -0.00005  -0.00001   3.14159
         Item               Value     Threshold  Converged?
 Maximum Force            0.007650     0.000450     NO 
 RMS     Force            0.001255     0.000300     NO 
 Maximum Displacement     0.132202     0.001800     NO 
 RMS     Displacement     0.022701     0.001200     NO 
 Predicted change in Energy=-6.359794D-05
 GradGradGradGradGradGradGradGradGradGradGradGradGradGradGradGradGradGrad

                          Input orientation:                          
 ---------------------------------------------------------------------
 Center     Atomic      Atomic             Coordinates (Angstroms)
 Number     Number       Type             X           Y           Z
 ---------------------------------------------------------------------
      1          7           0        3.116874   -0.013588   -0.000169
      2          6           0        1.960897    0.010660   -0.000050
      3          6           0        0.511032   -0.000405   -0.000021
      4          6           0       -0.166171   -1.224863   -0.000068
      5          6           0       -1.557397   -1.198925   -0.000018
      6          6           0       -2.203036    0.033405    0.000062
      7          6           0       -1.426068    1.194435    0.000081
      8          7           0       -0.098806    1.185689    0.000046
      9          1           0        0.390314   -2.163083   -0.000140
     10          1           0       -2.127108   -2.130269   -0.000045
     11          1           0       -3.292213    0.100857    0.000116
     12          1           0       -1.903688    2.179498    0.000136
 ---------------------------------------------------------------------
                    Distance matrix (angstroms):
                    1          2          3          4          5
     1  N    0.000000
     2  C    1.156231   0.000000
     3  C    2.605875   1.449907   0.000000
     4  C    3.499367   2.459865   1.399250   0.000000
     5  C    4.822222   3.720415   2.390575   1.391467   0.000000
     6  C    5.320117   4.163995   2.714278   2.394171   1.391218
     7  C    4.700812   3.587876   2.275961   2.727699   2.396961
     8  N    3.432035   2.371301   1.333687   2.411493   2.795330
     9  H    3.471952   2.681769   2.166044   1.090840   2.173287
    10  H    5.655058   4.614689   3.390590   2.159868   1.091775
    11  H    6.410108   5.253884   3.804593   3.395537   2.167722
    12  H    5.478655   4.431577   3.253129   3.822125   3.396124
                    6          7          8          9         10
     6  C    0.000000
     7  C    1.397022   0.000000
     8  N    2.399070   1.327290   0.000000
     9  H    3.398532   3.817351   3.384303   0.000000
    10  H    2.165006   3.397810   3.887104   2.517636   0.000000
    11  H    1.091264   2.162964   3.372641   4.322780   2.517020
    12  H    2.166869   1.094746   2.060402   4.911258   4.315554
                   11         12
    11  H    0.000000
    12  H    2.499750   0.000000
 Stoichiometry    C6H4N2
 Framework group  C1[X(C6H4N2)]
 Deg. of freedom    30
 Full point group                 C1      NOp   1
 Largest Abelian subgroup         C1      NOp   1
 Largest concise Abelian subgroup C1      NOp   1
                         Standard orientation:                         
 ---------------------------------------------------------------------
 Center     Atomic      Atomic             Coordinates (Angstroms)
 Number     Number       Type             X           Y           Z
 ---------------------------------------------------------------------
      1          7           0        3.174105   -0.005556    0.000153
      2          6           0        2.018113   -0.029053    0.000034
      3          6           0        0.568256   -0.017046    0.000004
      4          6           0       -0.108152    1.207851    0.000052
      5          6           0       -1.499394    1.182817    0.000002
      6          6           0       -2.145833   -0.049094   -0.000079
      7          6           0       -1.369619   -1.210628   -0.000097
      8          7           0       -0.042353   -1.202744   -0.000062
      9          1           0        0.448943    2.145709    0.000124
     10          1           0       -2.068500    2.114530    0.000029
     11          1           0       -3.235054   -0.115838   -0.000132
     12          1           0       -1.847879   -2.195381   -0.000152
 ---------------------------------------------------------------------
 Rotational constants (GHZ):           5.8655577           1.5951664           1.2541063
 Standard basis: def2SVP (5D, 7F)
 There are   140 symmetry adapted cartesian basis functions of A   symmetry.
 There are   132 symmetry adapted basis functions of A   symmetry.
   132 basis functions,   228 primitive gaussians,   140 cartesian basis functions
    27 alpha electrons       27 beta electrons
       nuclear repulsion energy       303.2919765717 Hartrees.
 NAtoms=   12 NActive=   12 NUniq=   12 SFac= 1.00D+00 NAtFMM=   60 NAOKFM=F Big=F
 Integral buffers will be    131072 words long.
 Raffenetti 2 integral format.
 Two-electron integral symmetry is turned on.
 Nuclear repulsion after empirical dispersion term =      303.2875876278 Hartrees.
 One-electron integrals computed using PRISM.
   1 Symmetry operations used in ECPInt.
 ECPInt:  NShTT=    1830 NPrTT=    6902 LenC2=    1809 LenP2D=    5481.
 LDataN:  DoStor=T MaxTD1= 4 Len=   56
 NBasis=   132 RedAO= T EigKep=  6.80D-04  NBF=   132
 NBsUse=   132 1.00D-06 EigRej= -1.00D+00 NBFU=   132
 Lowest energy guess from the checkpoint file:  "Py3_1.chk"
 B after Tr=     0.000000   -0.000000    0.000000
         Rot=    1.000000   -0.000003    0.000010    0.000725 Ang=  -0.08 deg.
 B after Tr=    -0.000000   -0.000000    0.000000
         Rot=    0.999991    0.000002   -0.000003   -0.004336 Ang=   0.50 deg.
 Keep R1 ints in memory in canonical form, NReq=93730238.
 Requested convergence on RMS density matrix=1.00D-08 within 128 cycles.
 Requested convergence on MAX density matrix=1.00D-06.
 Requested convergence on             energy=1.00D-06.
 No special actions if energy rises.
 Integral accuracy reduced to 1.0D-05 until final iterations.
 Initial convergence to 1.0D-05 achieved.  Increase integral accuracy.
 SCF Done:  E(RwB97XD) =  -340.148929937     A.U. after   11 cycles
            NFock= 11  Conv=0.82D-08     -V/T= 2.0102
   1 Symmetry operations used in ECPInt.
 ECPInt:  NShTT=    1830 NPrTT=    6902 LenC2=    1809 LenP2D=    5481.
 LDataN:  DoStor=T MaxTD1= 5 Len=  102
 Calling FoFJK, ICntrl=      2127 FMM=F ISym2X=0 I1Cent= 0 IOpClX= 0 NMat=1 NMatS=1 NMatT=0.
 ***** Axes restored to original set *****
 -------------------------------------------------------------------
 Center     Atomic                   Forces (Hartrees/Bohr)
 Number     Number              X              Y              Z
 -------------------------------------------------------------------
      1        7          -0.000478745    0.000001482    0.000003555
      2        6           0.000720248    0.000004570   -0.000006981
      3        6           0.000246628   -0.000201580    0.000002325
      4        6           0.000263559   -0.000173118    0.000000350
      5        6          -0.000268253   -0.000138835   -0.000000731
      6        6          -0.000088989    0.000099824    0.000000357
      7        6          -0.000589062    0.000167332    0.000000642
      8        7           0.000182601    0.000029985    0.000000548
      9        1           0.000000848    0.000127882    0.000000509
     10        1           0.000000145    0.000053733    0.000000147
     11        1           0.000059396    0.000064591   -0.000000605
     12        1          -0.000048374   -0.000035866   -0.000000116
 -------------------------------------------------------------------
 Cartesian Forces:  Max     0.000720248 RMS     0.000203979

 GradGradGradGradGradGradGradGradGradGradGradGradGradGradGradGradGradGrad
 Berny optimization.
 Using GEDIIS/GDIIS optimizer.
 FormGI is forming the generalized inverse of G from B-inverse, IUseBI=4.
 Internal  Forces:  Max     0.000512162 RMS     0.000145417
 Search for a local minimum.
 Step number   4 out of a maximum of   60
 All quantities printed in internal units (Hartrees-Bohrs-Radians)
 Mixed Optimization -- En-DIIS/RFO-DIIS
 Update second derivatives using D2CorX and points    1    3    2    4
 DE= -6.23D-05 DEPred=-6.36D-05 R= 9.80D-01
 TightC=F SS=  1.41D+00  RLast= 2.97D-02 DXNew= 2.5227D-01 8.9049D-02
 Trust test= 9.80D-01 RLast= 2.97D-02 DXMaxT set to 1.50D-01
 ITU=  1 -1  1  0
 Use linear search instead of GDIIS.
     Eigenvalues ---    0.01788   0.02199   0.02237   0.02246   0.02265
     Eigenvalues ---    0.02281   0.02306   0.02405   0.02602   0.07843
     Eigenvalues ---    0.15773   0.16002   0.16010   0.16033   0.21946
     Eigenvalues ---    0.22293   0.23578   0.25817   0.35832   0.36019
     Eigenvalues ---    0.36121   0.36429   0.39648   0.43070   0.46030
     Eigenvalues ---    0.47011   0.48116   0.58685   0.63419   1.37885
 RFO step:  Lambda=-1.68183101D-06 EMin= 1.78756130D-02
 Quartic linear search produced a step of -0.04369.
 Iteration  1 RMS(Cart)=  0.00052971 RMS(Int)=  0.00000013
 Iteration  2 RMS(Cart)=  0.00000012 RMS(Int)=  0.00000007
 Variable       Old X    -DE/DX   Delta X   Delta X   Delta X     New X
                                 (Linear)    (Quad)   (Total)
    R1        2.18496  -0.00048  -0.00002  -0.00033  -0.00035   2.18461
    R2        2.73993   0.00024  -0.00013   0.00063   0.00050   2.74043
    R3        2.64420   0.00007   0.00019  -0.00008   0.00011   2.64431
    R4        2.52030   0.00033   0.00017   0.00032   0.00050   2.52080
    R5        2.62949   0.00042   0.00009   0.00068   0.00077   2.63027
    R6        2.06139  -0.00011   0.00004  -0.00036  -0.00032   2.06107
    R7        2.62902   0.00019   0.00008   0.00025   0.00032   2.62934
    R8        2.06316  -0.00005   0.00005  -0.00021  -0.00016   2.06300
    R9        2.63999  -0.00010   0.00007  -0.00030  -0.00023   2.63976
   R10        2.06219  -0.00006   0.00004  -0.00022  -0.00018   2.06201
   R11        2.50822   0.00051   0.00004   0.00071   0.00075   2.50896
   R12        2.06877  -0.00001   0.00007  -0.00015  -0.00007   2.06870
    A1        2.08362   0.00008   0.00005   0.00021   0.00026   2.08388
    A2        2.03807   0.00012   0.00031   0.00008   0.00039   2.03846
    A3        2.16149  -0.00020  -0.00035  -0.00029  -0.00064   2.16085
    A4        2.05735   0.00002   0.00011  -0.00006   0.00004   2.05739
    A5        2.10105  -0.00008  -0.00007  -0.00034  -0.00041   2.10064
    A6        2.12479   0.00005  -0.00004   0.00040   0.00036   2.12515
    A7        2.07204   0.00008   0.00008   0.00015   0.00023   2.07226
    A8        2.10114  -0.00001  -0.00000   0.00007   0.00006   2.10120
    A9        2.11001  -0.00007  -0.00008  -0.00021  -0.00029   2.10972
   A10        2.06924   0.00002  -0.00006   0.00010   0.00004   2.06928
   A11        2.11524   0.00006  -0.00003   0.00045   0.00042   2.11566
   A12        2.09871  -0.00008   0.00009  -0.00055  -0.00046   2.09824
   A13        2.15396  -0.00011  -0.00009  -0.00035  -0.00044   2.15353
   A14        2.10037  -0.00000   0.00005  -0.00016  -0.00011   2.10026
   A15        2.02885   0.00011   0.00003   0.00051   0.00055   2.02940
   A16        2.05230   0.00019   0.00031   0.00046   0.00077   2.05307
   A17        3.11299  -0.00003   0.00109  -0.00195  -0.00085   3.11213
   A18        3.14169  -0.00001  -0.00001  -0.00032  -0.00033   3.14136
    D1        3.14158   0.00000  -0.00000   0.00003   0.00003  -3.14158
    D2       -0.00001   0.00000  -0.00000   0.00002   0.00002   0.00001
    D3       -0.00002   0.00000  -0.00000   0.00003   0.00002   0.00000
    D4        3.14157   0.00000  -0.00000   0.00002   0.00002   3.14159
    D5       -3.14159  -0.00000   0.00000  -0.00002  -0.00002   3.14158
    D6        0.00001  -0.00000   0.00000  -0.00002  -0.00001  -0.00000
    D7        0.00001  -0.00000  -0.00000  -0.00001  -0.00001  -0.00000
    D8       -3.14159  -0.00000  -0.00000  -0.00001  -0.00001   3.14159
    D9       -3.14158  -0.00000   0.00000  -0.00001  -0.00001  -3.14159
   D10        0.00001  -0.00000   0.00000  -0.00000  -0.00000   0.00000
   D11        0.00001  -0.00000   0.00000  -0.00001  -0.00001   0.00000
   D12       -3.14158  -0.00000   0.00000  -0.00001  -0.00001  -3.14159
   D13       -3.14158  -0.00000   0.00000  -0.00001  -0.00001  -3.14159
   D14        0.00002  -0.00000   0.00000  -0.00002  -0.00001   0.00000
   D15       -0.00002   0.00000  -0.00000   0.00002   0.00002  -0.00000
   D16        3.14158  -0.00000  -0.00001   0.00001   0.00000   3.14159
   D17        3.14157   0.00000  -0.00000   0.00002   0.00002   3.14159
   D18       -0.00001   0.00000  -0.00001   0.00001   0.00000  -0.00001
   D19        0.00001  -0.00000   0.00000  -0.00001  -0.00001   0.00000
   D20        3.14159   0.00000   0.00000   0.00001   0.00001  -3.14158
         Item               Value     Threshold  Converged?
 Maximum Force            0.000512     0.000450     NO 
 RMS     Force            0.000145     0.000300     YES
 Maximum Displacement     0.001727     0.001800     YES
 RMS     Displacement     0.000530     0.001200     YES
 Predicted change in Energy=-9.703265D-07
 GradGradGradGradGradGradGradGradGradGradGradGradGradGradGradGradGradGrad

                          Input orientation:                          
 ---------------------------------------------------------------------
 Center     Atomic      Atomic             Coordinates (Angstroms)
 Number     Number       Type             X           Y           Z
 ---------------------------------------------------------------------
      1          7           0        3.117433   -0.014325   -0.000020
      2          6           0        1.961659    0.010750   -0.000165
      3          6           0        0.511529   -0.000514   -0.000072
      4          6           0       -0.165849   -1.224942   -0.000087
      5          6           0       -1.557482   -1.198887   -0.000011
      6          6           0       -2.203387    0.033497    0.000078
      7          6           0       -1.426707    1.194574    0.000085
      8          7           0       -0.099051    1.185495    0.000013
      9          1           0        0.390817   -2.162855   -0.000162
     10          1           0       -2.127282   -2.130079   -0.000020
     11          1           0       -3.292449    0.101236    0.000143
     12          1           0       -1.904602    2.179459    0.000147
 ---------------------------------------------------------------------
                    Distance matrix (angstroms):
                    1          2          3          4          5
     1  N    0.000000
     2  C    1.156047   0.000000
     3  C    2.605941   1.450174   0.000000
     4  C    3.499362   2.460330   1.399309   0.000000
     5  C    4.822657   3.721233   2.391005   1.391877   0.000000
     6  C    5.321035   4.165107   2.715128   2.394833   1.391389
     7  C    4.702196   3.589214   2.277057   2.728336   2.397032
     8  N    3.432978   2.372035   1.333950   2.411362   2.795050
     9  H    3.471400   2.681810   2.165708   1.090669   2.173731
    10  H    5.655391   4.615472   3.390924   2.160206   1.091691
    11  H    6.410924   5.254887   3.805338   3.396229   2.168047
    12  H    5.480285   4.432975   3.254223   3.822723   3.396133
                    6          7          8          9         10
     6  C    0.000000
     7  C    1.396901   0.000000
     8  N    2.399027   1.327687   0.000000
     9  H    3.399096   3.817817   3.383994   0.000000
    10  H    2.164914   3.397664   3.886740   2.518312   0.000000
    11  H    1.091167   2.162494   3.372449   4.323489   2.517217
    12  H    2.166663   1.094707   2.061063   4.911684   4.315288
                   11         12
    11  H    0.000000
    12  H    2.499026   0.000000
 Stoichiometry    C6H4N2
 Framework group  C1[X(C6H4N2)]
 Deg. of freedom    30
 Full point group                 C1      NOp   1
 Largest Abelian subgroup         C1      NOp   1
 Largest concise Abelian subgroup C1      NOp   1
                         Standard orientation:                         
 ---------------------------------------------------------------------
 Center     Atomic      Atomic             Coordinates (Angstroms)
 Number     Number       Type             X           Y           Z
 ---------------------------------------------------------------------
      1          7           0        3.174582   -0.005734    0.000002
      2          6           0        2.018785   -0.029757    0.000147
      3          6           0        0.568666   -0.017174    0.000055
      4          6           0       -0.107597    1.207870    0.000069
      5          6           0       -1.499253    1.183082   -0.000007
      6          6           0       -2.146279   -0.048713   -0.000096
      7          6           0       -1.370656   -1.210497   -0.000103
      8          7           0       -0.042992   -1.202626   -0.000031
      9          1           0        0.449923    2.145276    0.000144
     10          1           0       -2.068205    2.114792    0.000002
     11          1           0       -3.235402   -0.115462   -0.000161
     12          1           0       -1.849447   -2.194947   -0.000165
 ---------------------------------------------------------------------
 Rotational constants (GHZ):           5.8657184           1.5944640           1.2536794
 Standard basis: def2SVP (5D, 7F)
 There are   140 symmetry adapted cartesian basis functions of A   symmetry.
 There are   132 symmetry adapted basis functions of A   symmetry.
   132 basis functions,   228 primitive gaussians,   140 cartesian basis functions
    27 alpha electrons       27 beta electrons
       nuclear repulsion energy       303.2544160366 Hartrees.
 NAtoms=   12 NActive=   12 NUniq=   12 SFac= 1.00D+00 NAtFMM=   60 NAOKFM=F Big=F
 Integral buffers will be    131072 words long.
 Raffenetti 2 integral format.
 Two-electron integral symmetry is turned on.
 Nuclear repulsion after empirical dispersion term =      303.2500274923 Hartrees.
 One-electron integrals computed using PRISM.
   1 Symmetry operations used in ECPInt.
 ECPInt:  NShTT=    1830 NPrTT=    6902 LenC2=    1809 LenP2D=    5481.
 LDataN:  DoStor=T MaxTD1= 4 Len=   56
 NBasis=   132 RedAO= T EigKep=  6.80D-04  NBF=   132
 NBsUse=   132 1.00D-06 EigRej= -1.00D+00 NBFU=   132
 Initial guess from the checkpoint file:  "Py3_1.chk"
 B after Tr=     0.000000   -0.000000    0.000000
         Rot=    1.000000    0.000001   -0.000004    0.000111 Ang=   0.01 deg.
 Keep R1 ints in memory in canonical form, NReq=93730238.
 Requested convergence on RMS density matrix=1.00D-08 within 128 cycles.
 Requested convergence on MAX density matrix=1.00D-06.
 Requested convergence on             energy=1.00D-06.
 No special actions if energy rises.
 SCF Done:  E(RwB97XD) =  -340.148930860     A.U. after    8 cycles
            NFock=  8  Conv=0.88D-08     -V/T= 2.0102
   1 Symmetry operations used in ECPInt.
 ECPInt:  NShTT=    1830 NPrTT=    6902 LenC2=    1809 LenP2D=    5481.
 LDataN:  DoStor=T MaxTD1= 5 Len=  102
 Calling FoFJK, ICntrl=      2127 FMM=F ISym2X=0 I1Cent= 0 IOpClX= 0 NMat=1 NMatS=1 NMatT=0.
 ***** Axes restored to original set *****
 -------------------------------------------------------------------
 Center     Atomic                   Forces (Hartrees/Bohr)
 Number     Number              X              Y              Z
 -------------------------------------------------------------------
      1        7          -0.000027844    0.000021137   -0.000008151
      2        6           0.000034914   -0.000019352    0.000016247
      3        6          -0.000051552    0.000054590   -0.000008111
      4        6          -0.000040994   -0.000010193   -0.000000541
      5        6           0.000012053    0.000003966    0.000000843
      6        6           0.000040375   -0.000038628    0.000000276
      7        6          -0.000039588   -0.000022260    0.000000760
      8        7           0.000069126    0.000023491   -0.000001370
      9        1           0.000005982   -0.000011086   -0.000000006
     10        1          -0.000003999   -0.000011310    0.000000038
     11        1          -0.000015115    0.000000446   -0.000000395
     12        1           0.000016640    0.000009200    0.000000409
 -------------------------------------------------------------------
 Cartesian Forces:  Max     0.000069126 RMS     0.000024837

 GradGradGradGradGradGradGradGradGradGradGradGradGradGradGradGradGradGrad
 Berny optimization.
 Using GEDIIS/GDIIS optimizer.
 FormGI is forming the generalized inverse of G from B-inverse, IUseBI=4.
 Internal  Forces:  Max     0.000044338 RMS     0.000016342
 Search for a local minimum.
 Step number   5 out of a maximum of   60
 All quantities printed in internal units (Hartrees-Bohrs-Radians)
 Mixed Optimization -- En-DIIS/RFO-DIIS
 Swapping is turned off.
 Update second derivatives using D2CorX and points    1    3    2    4    5
 DE= -9.23D-07 DEPred=-9.70D-07 R= 9.51D-01
 Trust test= 9.51D-01 RLast= 2.35D-03 DXMaxT set to 1.50D-01
 ITU=  0  1 -1  1  0
     Eigenvalues ---    0.01796   0.02199   0.02237   0.02246   0.02265
     Eigenvalues ---    0.02281   0.02307   0.02406   0.02602   0.08204
     Eigenvalues ---    0.15635   0.15939   0.16004   0.16151   0.21873
     Eigenvalues ---    0.22244   0.24524   0.25809   0.35800   0.36013
     Eigenvalues ---    0.36113   0.36505   0.39630   0.42768   0.46734
     Eigenvalues ---    0.47092   0.48168   0.58781   0.62447   1.35464
 En-DIIS/RFO-DIIS/Sim-DIIS IScMMF=       -3 using points:     5    4
 RFO step:  Lambda=-6.12701474D-08.
 DidBck=F Rises=F RFO-DIIS coefs:    0.82156    0.17844
 Iteration  1 RMS(Cart)=  0.00020264 RMS(Int)=  0.00000008
 Iteration  2 RMS(Cart)=  0.00000010 RMS(Int)=  0.00000000
 Variable       Old X    -DE/DX   Delta X   Delta X   Delta X     New X
                                 (Linear)    (Quad)   (Total)
    R1        2.18461  -0.00003   0.00006  -0.00009  -0.00003   2.18459
    R2        2.74043   0.00001  -0.00009   0.00013   0.00004   2.74048
    R3        2.64431   0.00004  -0.00002   0.00009   0.00007   2.64438
    R4        2.52080  -0.00003  -0.00009   0.00004  -0.00004   2.52076
    R5        2.63027  -0.00003  -0.00014   0.00010  -0.00004   2.63023
[...]
 Range of M.O.s used for correlation:     1   272
 NBasis=   272 NAE=    27 NBE=    27 NFC=     0 NFV=     0
 NROrb=    272 NOA=    27 NOB=    27 NVA=   245 NVB=   245

 **** Warning!!: The largest alpha MO coefficient is  0.37699488D+02

          Differentiating once with respect to magnetic field using GIAOs.
          Electric field/nuclear overlap derivatives assumed to be zero.
 Keep R3 ints in memory in canonical form, NReq=1410501472.
   1 Symmetry operations used in ECPInt.
 ECPInt:  NShTT=    5460 NPrTT=   17208 LenC2=    5461 LenP2D=   17208.
 LDataN:  DoStor=T MaxTD1= 7 Len=  274
 FoFJK:  IHMeth= 1 ICntrl=    6127 DoSepK=T KAlg= 0 I1Cent=           0 FoldK=F
 IRaf=         1 NMat=       1 IRICut=       1 DoRegI=T DoRafI=F ISym2E= 0 IDoP0=0 IntGTp=1.
          There are     3 degrees of freedom in the 1st order CPHF.  IDoFFX=0 NUNeed=     3.
      3 vectors produced by pass  0 Test12= 2.20D-13 3.33D-08 XBig12= 4.46D+00 5.93D-01.
 AX will form     3 AO Fock derivatives at one time.
      3 vectors produced by pass  1 Test12= 2.20D-13 3.33D-08 XBig12= 3.92D-02 9.22D-02.
      3 vectors produced by pass  2 Test12= 2.20D-13 3.33D-08 XBig12= 8.32D-04 1.09D-02.
      3 vectors produced by pass  3 Test12= 2.20D-13 3.33D-08 XBig12= 1.12D-05 9.79D-04.
      3 vectors produced by pass  4 Test12= 2.20D-13 3.33D-08 XBig12= 2.13D-07 2.25D-04.
      3 vectors produced by pass  5 Test12= 2.20D-13 3.33D-08 XBig12= 3.38D-09 2.03D-05.
      3 vectors produced by pass  6 Test12= 2.20D-13 3.33D-08 XBig12= 3.41D-11 2.83D-06.
      3 vectors produced by pass  7 Test12= 2.20D-13 3.33D-08 XBig12= 4.32D-13 1.81D-07.
 InvSVY:  IOpt=1 It=  1 EMax= 8.88D-16
 Solved reduced A of dimension    24 with     3 vectors.
 Calculating GIAO nuclear magnetic shielding tensors.
 SCF GIAO Magnetic shielding tensor (ppm):
      1  N    Isotropic =   -37.5075   Anisotropy =   444.2262
   XX=   258.4018   YX=    16.5594   ZX=    -0.0437
   XY=     4.1303   YY=  -184.5704   ZY=    -0.0006
   XZ=    -0.0062   YZ=    -0.0007   ZZ=  -186.3540
   Eigenvalues:  -186.3540  -184.8118   258.6433
      2  C    Isotropic =    64.4558   Anisotropy =   339.3020
   XX=   290.5062   YX=     6.0074   ZX=    -0.0260
   XY=     8.1551   YY=   -41.4472   ZY=     0.0002
   XZ=    -0.0480   YZ=     0.0009   ZZ=   -55.6914
   Eigenvalues:   -55.6914   -41.5982   290.6572
      3  C    Isotropic =    43.1164   Anisotropy =   144.9604
   XX=   -73.0034   YX=     4.1333   ZX=    -0.0188
   XY=   -24.5455   YY=    62.5961   ZY=    -0.0059
   XZ=    -0.0157   YZ=    -0.0033   ZZ=   139.7567
   Eigenvalues:   -73.7673    63.3599   139.7567
      4  C    Isotropic =    51.4265   Anisotropy =   184.6013
   XX=    20.2794   YX=   -41.3338   ZX=    -0.0111
   XY=   -46.0630   YY=   -40.4939   ZY=    -0.0119
   XZ=    -0.0151   YZ=    -0.0126   ZZ=   174.4941
   Eigenvalues:   -63.3323    43.1178   174.4941
      5  C    Isotropic =    43.7117   Anisotropy =   210.2842
   XX=    -4.4570   YX=    41.0588   ZX=    -0.0080
   XY=    44.2338   YY=   -48.3091   ZY=    -0.0081
   XZ=    -0.0081   YZ=    -0.0094   ZZ=   183.9012
   Eigenvalues:   -74.3357    21.5696   183.9012
      6  C    Isotropic =    55.2052   Anisotropy =   185.7135
   XX=   -60.2006   YX=    -2.8762   ZX=    -0.0131
   XY=    13.9474   YY=    46.8020   ZY=    -0.0051
   XZ=    -0.0101   YZ=    -0.0061   ZZ=   179.0141
   Eigenvalues:   -60.4863    47.0876   179.0141
      7  C    Isotropic =    29.4805   Anisotropy =   181.3440
   XX=   -14.4607   YX=   -58.5637   ZX=    -0.0111
   XY=   -40.0055   YY=   -47.4743   ZY=    -0.0098
   XZ=    -0.0104   YZ=    -0.0087   ZZ=   150.3765
   Eigenvalues:   -82.9429    21.0080   150.3765
      8  N    Isotropic =  -100.2416   Anisotropy =   591.8967
   XX=  -360.4051   YX=  -102.2175   ZX=    -0.0462
   XY=  -107.4011   YY=  -234.6759   ZY=    -0.0281
   XZ=    -0.0456   YZ=    -0.0246   ZZ=   294.3562
   Eigenvalues:  -419.7573  -175.3237   294.3562
      9  H    Isotropic =    23.8077   Anisotropy =     6.9708
   XX=    26.9756   YX=    -2.8816   ZX=     0.0002
   XY=    -2.5902   YY=    23.3953   ZY=    -0.0000
   XZ=     0.0001   YZ=    -0.0000   ZZ=    21.0523
   Eigenvalues:    21.0523    21.9160    28.4550
     10  H    Isotropic =    23.7074   Anisotropy =     5.4295
   XX=    26.3247   YX=     1.8211   ZX=     0.0004
   XY=     1.9237   YY=    23.8294   ZY=     0.0002
   XZ=     0.0003   YZ=     0.0002   ZZ=    20.9681
   Eigenvalues:    20.9681    22.8271    27.3271
     11  H    Isotropic =    24.0969   Anisotropy =     5.4310
   XX=    22.9159   YX=     0.2983   ZX=     0.0001
   XY=     0.9980   YY=    27.6301   ZY=     0.0003
   XZ=     0.0001   YZ=     0.0003   ZZ=    21.7447
   Eigenvalues:    21.7447    22.8284    27.7176
     12  H    Isotropic =    22.6539   Anisotropy =     6.1409
   XX=    24.6012   YX=    -1.9065   ZX=     0.0003
   XY=    -2.7354   YY=    24.2384   ZY=     0.0001
   XZ=     0.0002   YZ=     0.0001   ZZ=    19.1222
   Eigenvalues:    19.1222    22.0918    26.7478
 End of Minotr F.D. properties file   721 does not exist.
 End of Minotr F.D. properties file   722 does not exist.
 End of Minotr F.D. properties file   788 does not exist.

 **********************************************************************

            Population analysis using the SCF Density.

 **********************************************************************

 Orbital symmetries:
       Occupied  (A) (A) (A) (A) (A) (A) (A) (A) (A) (A) (A) (A)
                 (A) (A) (A) (A) (A) (A) (A) (A) (A) (A) (A) (A)
                 (A) (A) (A)
       Virtual   (A) (A) (A) (A) (A) (A) (A) (A) (A) (A) (A) (A)
                 (A) (A) (A) (A) (A) (A) (A) (A) (A) (A) (A) (A)
                 (A) (A) (A) (A) (A) (A) (A) (A) (A) (A) (A) (A)
                 (A) (A) (A) (A) (A) (A) (A) (A) (A) (A) (A) (A)
                 (A) (A) (A) (A) (A) (A) (A) (A) (A) (A) (A) (A)
                 (A) (A) (A) (A) (A) (A) (A) (A) (A) (A) (A) (A)
                 (A) (A) (A) (A) (A) (A) (A) (A) (A) (A) (A) (A)
                 (A) (A) (A) (A) (A) (A) (A) (A) (A) (A) (A) (A)
                 (A) (A) (A) (A) (A) (A) (A) (A) (A) (A) (A) (A)
                 (A) (A) (A) (A) (A) (A) (A) (A) (A) (A) (A) (A)
                 (A) (A) (A) (A) (A) (A) (A) (A) (A) (A) (A) (A)
                 (A) (A) (A) (A) (A) (A) (A) (A) (A) (A) (A) (A)
                 (A) (A) (A) (A) (A) (A) (A) (A) (A) (A) (A) (A)
                 (A) (A) (A) (A) (A) (A) (A) (A) (A) (A) (A) (A)
                 (A) (A) (A) (A) (A) (A) (A) (A) (A) (A) (A) (A)
                 (A) (A) (A) (A) (A) (A) (A) (A) (A) (A) (A) (A)
                 (A) (A) (A) (A) (A) (A) (A) (A) (A) (A) (A) (A)
                 (A) (A) (A) (A) (A) (A) (A) (A) (A) (A) (A) (A)
                 (A) (A) (A) (A) (A) (A) (A) (A) (A) (A) (A) (A)
                 (A) (A) (A) (A) (A) (A) (A) (A) (A) (A) (A) (A)
                 (A) (A) (A) (A) (A)
 The electronic state is 1-A.
 Alpha  occ. eigenvalues --  -14.46566 -14.44431 -10.38201 -10.35238 -10.33913
 Alpha  occ. eigenvalues --  -10.33484 -10.33164 -10.32972  -1.08636  -1.01289
 Alpha  occ. eigenvalues --   -0.93834  -0.90658  -0.78172  -0.75966  -0.67696
 Alpha  occ. eigenvalues --   -0.61508  -0.60391  -0.55842  -0.53637  -0.52369
 Alpha  occ. eigenvalues --   -0.49161  -0.46036  -0.45147  -0.43234  -0.39966
 Alpha  occ. eigenvalues --   -0.37557  -0.36372
 Alpha virt. eigenvalues --   -0.00991   0.01263   0.09728   0.10688   0.13292
 Alpha virt. eigenvalues --    0.13604   0.14632   0.16703   0.17095   0.19652
 Alpha virt. eigenvalues --    0.21006   0.24300   0.25303   0.25674   0.27823
 Alpha virt. eigenvalues --    0.29133   0.30104   0.30524   0.30871   0.31179
 Alpha virt. eigenvalues --    0.34428   0.35716   0.37184   0.38452   0.38701
 Alpha virt. eigenvalues --    0.39805   0.41874   0.41911   0.44622   0.45125
 Alpha virt. eigenvalues --    0.46677   0.47205   0.47820   0.48130   0.52275
 Alpha virt. eigenvalues --    0.52772   0.52931   0.54410   0.56394   0.57531
 Alpha virt. eigenvalues --    0.58593   0.62930   0.63660   0.65153   0.66476
 Alpha virt. eigenvalues --    0.67855   0.68765   0.70774   0.72344   0.74160
 Alpha virt. eigenvalues --    0.75666   0.78223   0.78572   0.80136   0.81152
 Alpha virt. eigenvalues --    0.82405   0.85277   0.86071   0.88885   0.93253
 Alpha virt. eigenvalues --    0.96017   0.96139   0.98572   1.02242   1.05865
 Alpha virt. eigenvalues --    1.10857   1.11195   1.14635   1.16462   1.18040
 Alpha virt. eigenvalues --    1.20188   1.25254   1.25857   1.27480   1.29821
 Alpha virt. eigenvalues --    1.31552   1.32941   1.34326   1.36474   1.37239
 Alpha virt. eigenvalues --    1.38136   1.41656   1.43953   1.46333   1.47368
 Alpha virt. eigenvalues --    1.50488   1.52454   1.53371   1.53761   1.56628
 Alpha virt. eigenvalues --    1.58109   1.62226   1.62347   1.63125   1.64585
 Alpha virt. eigenvalues --    1.71189   1.73048   1.76201   1.77247   1.78080
 Alpha virt. eigenvalues --    1.79860   1.82303   1.87842   1.88584   1.94581
 Alpha virt. eigenvalues --    1.95815   1.96488   1.99820   2.02779   2.04868
 Alpha virt. eigenvalues --    2.06643   2.08017   2.16947   2.19214   2.21488
 Alpha virt. eigenvalues --    2.25504   2.28526   2.30754   2.33731   2.35828
 Alpha virt. eigenvalues --    2.37863   2.42601   2.44826   2.50262   2.52200
 Alpha virt. eigenvalues --    2.53278   2.57547   2.60658   2.62234   2.62692
 Alpha virt. eigenvalues --    2.64248   2.66432   2.71216   2.71465   2.73321
 Alpha virt. eigenvalues --    2.73699   2.73711   2.78701   2.79508   2.82003
 Alpha virt. eigenvalues --    2.82201   2.84413   2.86448   2.91216   2.91931
 Alpha virt. eigenvalues --    2.93464   2.95724   2.98216   3.02363   3.03041
 Alpha virt. eigenvalues --    3.05237   3.07775   3.09159   3.09462   3.11682
 Alpha virt. eigenvalues --    3.12844   3.15859   3.17456   3.18767   3.19805
 Alpha virt. eigenvalues --    3.20814   3.22808   3.23643   3.24847   3.25988
 Alpha virt. eigenvalues --    3.29142   3.33052   3.34369   3.37569   3.39532
 Alpha virt. eigenvalues --    3.40425   3.41130   3.42817   3.44928   3.48408
 Alpha virt. eigenvalues --    3.48730   3.49116   3.57059   3.58112   3.62493
 Alpha virt. eigenvalues --    3.62797   3.64394   3.75609   3.76930   3.80201
 Alpha virt. eigenvalues --    3.87211   3.93248   3.94827   3.95740   4.00580
 Alpha virt. eigenvalues --    4.02659   4.05565   4.06241   4.08723   4.13552
 Alpha virt. eigenvalues --    4.15905   4.19913   4.20646   4.23378   4.24597
 Alpha virt. eigenvalues --    4.34763   4.38847   4.43077   4.45050   4.45939
 Alpha virt. eigenvalues --    4.53616   4.56052   4.59848   4.63615   4.65928
 Alpha virt. eigenvalues --    4.73293   4.76498   4.77296   4.80584   4.84843
 Alpha virt. eigenvalues --    4.99137   5.00329   5.00358   5.03651   5.09642
 Alpha virt. eigenvalues --    5.11654   5.18950   5.24266   5.27401   5.30961
 Alpha virt. eigenvalues --    5.31359   5.37557   5.48465   5.49681   5.63934
 Alpha virt. eigenvalues --    5.67611   5.77000   5.79138   5.87109   5.96287
 Alpha virt. eigenvalues --    6.18247   6.29872  22.35130  22.63203  22.69445
 Alpha virt. eigenvalues --   22.95905  23.18081  23.60380  32.19695  32.59949
          Condensed to atoms (all electrons):
               1          2          3          4          5          6
     1  N    6.141632   0.895037  -0.034684   0.001441  -0.000032  -0.000085
     2  C    0.895037   5.267385   0.143611  -0.034680  -0.005399  -0.000700
     3  C   -0.034684   0.143611   4.777436   0.520872  -0.027561  -0.038132
     4  C    0.001441  -0.034680   0.520872   4.912704   0.487217  -0.019084
     5  C   -0.000032  -0.005399  -0.027561   0.487217   4.863828   0.491682
     6  C   -0.000085  -0.000700  -0.038132  -0.019084   0.491682   4.884496
     7  C   -0.000042  -0.001673  -0.089328  -0.029006  -0.002659   0.497195
     8  N   -0.001515  -0.044917   0.460977  -0.039437  -0.037278  -0.049430
     9  H    0.000733  -0.000235  -0.032964   0.421588  -0.049014   0.008627
    10  H    0.000000   0.000098   0.008624  -0.047268   0.435750  -0.042474
    11  H   -0.000001   0.000029  -0.002345   0.010367  -0.054863   0.419651
    12  H    0.000008  -0.000647   0.003620   0.000509   0.002843  -0.066001
               7          8          9         10         11         12
     1  N   -0.000042  -0.001515   0.000733   0.000000  -0.000001   0.000008
     2  C   -0.001673  -0.044917  -0.000235   0.000098   0.000029  -0.000647
     3  C   -0.089328   0.460977  -0.032964   0.008624  -0.002345   0.003620
     4  C   -0.029006  -0.039437   0.421588  -0.047268   0.010367   0.000509
     5  C   -0.002659  -0.037278  -0.049014   0.435750  -0.054863   0.002843
     6  C    0.497195  -0.049430   0.008627  -0.042474   0.419651  -0.066001
     7  C    4.738278   0.528535  -0.001691   0.004287  -0.033855   0.431856
     8  N    0.528535   6.466949   0.005097  -0.001373   0.006033  -0.029355
     9  H   -0.001691   0.005097   0.495331  -0.006061   0.000111   0.000099
    10  H    0.004287  -0.001373  -0.006061   0.506380  -0.006221  -0.000184
    11  H   -0.033855   0.006033   0.000111  -0.006221   0.518067  -0.001289
    12  H    0.431856  -0.029355   0.000099  -0.000184  -0.001289   0.517486
 Mulliken charges:
               1
     1  N   -0.002493
     2  C   -0.217909
     3  C    0.309873
     4  C   -0.185224
     5  C   -0.104514
     6  C   -0.085743
     7  C   -0.041897
     8  N   -0.264287
     9  H    0.158380
    10  H    0.148443
    11  H    0.144315
    12  H    0.141055
 Sum of Mulliken charges =  -0.00000
 Mulliken charges with hydrogens summed into heavy atoms:
               1
     1  N   -0.002493
     2  C   -0.217909
     3  C    0.309873
     4  C   -0.026844
     5  C    0.043929
     6  C    0.058572
     7  C    0.099158
     8  N   -0.264287
 Electronic spatial extent (au):  <R**2>=            883.0012
 Charge=              0.0000 electrons
 Dipole moment (field-independent basis, Debye):
    X=             -5.5764    Y=              1.9256    Z=              0.0001  Tot=              5.8995
 Quadrupole moment (field-independent basis, Debye-Ang):
   XX=            -52.6129   YY=            -41.9909   ZZ=            -47.0092
   XY=              1.5423   XZ=              0.0007   YZ=              0.0003
 Traceless Quadrupole moment (field-independent basis, Debye-Ang):
   XX=             -5.4086   YY=              5.2134   ZZ=              0.1952
   XY=              1.5423   XZ=              0.0007   YZ=              0.0003
 Octapole moment (field-independent basis, Debye-Ang**2):
  XXX=            -73.6194  YYY=              8.7339  ZZZ=             -0.0000  XYY=             -9.3650
  XXY=             -0.8900  XXZ=             -0.0009  XZZ=              2.1960  YZZ=             -1.1865
  YYZ=              0.0000  XYZ=             -0.0004
 Hexadecapole moment (field-independent basis, Debye-Ang**3):
 XXXX=          -1020.6913 YYYY=           -260.5555 ZZZZ=            -50.3277 XXXY=             -0.9566
 XXXZ=             -0.0079 YYYX=              8.2382 YYYZ=             -0.0029 ZZZX=             -0.0133
 ZZZY=             -0.0055 XXYY=           -177.0678 XXZZ=           -162.0898 YYZZ=            -59.3922
 XXYZ=             -0.0008 YYXZ=             -0.0030 ZZXY=              0.5770
 N-N= 3.032500274923D+02 E-N=-1.397964309202D+03  KE= 3.387649762928D+02
 Breneman (CHELPG) radii used.
 Read replacement radii for each type of atom:
 Atom Element Radius
    1     7    1.70
    2     6    1.50
    3     6    1.50
    4     6    1.50
    5     6    1.50
    6     6    1.50
    7     6    1.50
    8     7    1.70
    9     1    1.45
   10     1    1.45
   11     1    1.45
   12     1    1.45
 Generate Potential Derived Charges using the Breneman model, NDens= 1.
 Grid spacing= 0.300 Box extension= 2.800
 NStep X,Y,Z=   42     35     20   Total possible points=       29400
 Number of Points to Fit=    9588

 **********************************************************************

            Electrostatic Properties Using The SCF Density.

 **********************************************************************

       Atomic Center    1 is at   3.174582 -0.005734  0.000002
       Atomic Center    2 is at   2.018785 -0.029757  0.000147
       Atomic Center    3 is at   0.568666 -0.017174  0.000055
       Atomic Center    4 is at  -0.107597  1.207870  0.000069
       Atomic Center    5 is at  -1.499253  1.183082 -0.000007
       Atomic Center    6 is at  -2.146279 -0.048713 -0.000096
       Atomic Center    7 is at  -1.370656 -1.210497 -0.000103
       Atomic Center    8 is at  -0.042992 -1.202626 -0.000031
       Atomic Center    9 is at   0.449923  2.145276  0.000144
       Atomic Center   10 is at  -2.068205  2.114792  0.000002
       Atomic Center   11 is at  -3.235402 -0.115462 -0.000161
       Atomic Center   12 is at  -1.849447 -2.194947 -0.000165
    9588 points will be used for fitting atomic charges
 Fitting point charges to electrostatic potential
 Charges from ESP fit, RMS=   0.00369 RRMS=   0.16339:
 ESP charges:
               1
     1  N   -0.419294
     2  C    0.244794
     3  C    0.516491
     4  C   -0.400212
     5  C    0.209771
     6  C   -0.373597
     7  C    0.397085
     8  N   -0.586884
     9  H    0.161547
    10  H    0.068216
    11  H    0.150593
    12  H    0.031491
 Sum of ESP charges =  -0.00000
 ESP charges with hydrogens summed into heavy atoms:
               1
     1  N   -0.419294
     2  C    0.244794
     3  C    0.516491
     4  C   -0.238665
     5  C    0.277986
     6  C   -0.223004
     7  C    0.428576
     8  N   -0.586884
 Charge=  -0.00000 Dipole=    -5.5030     1.9149     0.0002 Tot=     5.8266
 -----------------------------------------------------------------

              Electrostatic Properties (Atomic Units)

 -----------------------------------------------------------------
    Center     Electric         -------- Electric Field --------
               Potential          X             Y             Z
 -----------------------------------------------------------------
    1 Atom    -18.403007
    2 Atom    -14.740619
    3 Atom    -14.674465
    4 Atom    -14.724824
    5 Atom    -14.720762
    6 Atom    -14.730069
    7 Atom    -14.707124
    8 Atom    -18.367490
    9 Atom     -1.063263
   10 Atom     -1.064172
   11 Atom     -1.067159
   12 Atom     -1.080305
 -----------------------------------------------------------------
 Unable to Open any file for archive entry.
 1\1\GINC-NOTCH056\SP\RwB97XD\def2TZVP\C6H4N2\U1112142\19-Dec-2025\0\\#
 N Guess=Read Geom=Check Integral(Ultrafine) Density Pop=(ChelpG,ReadRa
 dii) NMR wB97XD def2TZVP\\Py3_1\\0,1\N,0,3.1174332628,-0.0143250717,-0
 .0000197259\C,0,1.961658631,0.0107503119,-0.0001649772\C,0,0.511528517
 6,-0.0005135364,-0.0000724833\C,0,-0.1658490158,-1.2249415712,-0.00008
 68441\C,0,-1.5574824117,-1.1988874481,-0.0000106527\C,0,-2.2033866128,
 0.0334966778,0.0000778133\C,0,-1.4267066799,1.1945740708,0.000085316\N
 ,0,-0.0990506479,1.1854949617,0.0000133555\H,0,0.3908172922,-2.1628549
 988,-0.0001617706\H,0,-2.1272815493,-2.1300789448,-0.00002041\H,0,-3.2
 924488854,0.1012360565,0.0001429926\H,0,-1.9046019009,2.1794594924,0.0
 001473864\\Version=ES64L-G16RevC.01\State=1-A\HF=-340.5195046\RMSD=1.7
 34e-09\Dipole=-2.1946286,-0.7555981,-0.000033\Quadrupole=-4.0232232,3.
 8781154,0.1451078,-1.139497,-0.0005226,0.0002582\PG=C01 [X(C6H4N2)]\\@
 The archive entry for this job was punched.


 A SOLDIER'S LIFE IS A LIFE OF HONOR, BUT A DOG WOULD NOT LEAD IT.
 -- PRINCE RUPERT, FOUNDER OF THE HUDSON'S BAY COMPANY
 Job cpu time:       0 days  0 hours 14 minutes 45.9 seconds.
 Elapsed time:       0 days  0 hours  0 minutes 59.0 seconds.
 File lengths (MBytes):  RWF=     48 Int=      0 D2E=      0 Chk=      8 Scr=      2
 Normal termination of Gaussian 16 at Fri Dec 19 03:42:30 2025.
