 Entering Gaussian System, Link 0=g16
 Input=Py5_2.com
 Output=Py5_2.log
 Initial command:
 /uufs/chpc.utah.edu/sys/installdir/gaussian16/C01/AVX/g16/l1.exe "/scratch/general/vast/u1112142/9381404-notchpeak.peaks/Gau-224300.inp" -scrdir="/scratch/general/vast/u1112142/9381404-notchpeak.peaks/"
 Entering Link 1 = /uufs/chpc.utah.edu/sys/installdir/gaussian16/C01/AVX/g16/l1.exe PID=    224301.
  
 Copyright (c) 1988-2019, Gaussian, Inc.  All Rights Reserved.
  
 This is part of the Gaussian(R) 16 program.  It is based on
 the Gaussian(R) 09 system (copyright 2009, Gaussian, Inc.),
 the Gaussian(R) 03 system (copyright 2003, Gaussian, Inc.),
 the Gaussian(R) 98 system (copyright 1998, Gaussian, Inc.),
 the Gaussian(R) 94 system (copyright 1995, Gaussian, Inc.),
 the Gaussian 92(TM) system (copyright 1992, Gaussian, Inc.),
 the Gaussian 90(TM) system (copyright 1990, Gaussian, Inc.),
 the Gaussian 88(TM) system (copyright 1988, Gaussian, Inc.),
 the Gaussian 86(TM) system (copyright 1986, Carnegie Mellon
 University), and the Gaussian 82(TM) system (copyright 1983,
 Carnegie Mellon University). Gaussian is a federally registered
 trademark of Gaussian, Inc.
  
 This software contains proprietary and confidential information,
 including trade secrets, belonging to Gaussian, Inc.
  
 This software is provided under written license and may be
 used, copied, transmitted, or stored only in accord with that
 written license.
  
 The following legend is applicable only to US Government
 contracts under FAR:
  
                    RESTRICTED RIGHTS LEGEND
  
 Use, reproduction and disclosure by the US Government is
 subject to restrictions as set forth in subparagraphs (a)
 and (c) of the Commercial Computer Software - Restricted
 Rights clause in FAR 52.227-19.
  
 Gaussian, Inc.
 340 Quinnipiac St., Bldg. 40, Wallingford CT 06492
  
  
 ---------------------------------------------------------------
 Warning -- This program may not be used in any manner that
 competes with the business of Gaussian, Inc. or will provide
 assistance to any competitor of Gaussian, Inc.  The licensee
 of this program is prohibited from giving any competitor of
 Gaussian, Inc. access to this program.  By using this program,
 the user acknowledges that Gaussian, Inc. is engaged in the
 business of creating and licensing software in the field of
 computational chemistry and represents and warrants to the
 licensee that it is not a competitor of Gaussian, Inc. and that
 it will not use this program in any manner prohibited above.
 ---------------------------------------------------------------
  

 Cite this work as:
 Gaussian 16, Revision C.01,
 M. J. Frisch, G. W. Trucks, H. B. Schlegel, G. E. Scuseria, 
 M. A. Robb, J. R. Cheeseman, G. Scalmani, V. Barone, 
 G. A. Petersson, H. Nakatsuji, X. Li, M. Caricato, A. V. Marenich, 
 J. Bloino, B. G. Janesko, R. Gomperts, B. Mennucci, H. P. Hratchian, 
 J. V. Ortiz, A. F. Izmaylov, J. L. Sonnenberg, D. Williams-Young, 
 F. Ding, F. Lipparini, F. Egidi, J. Goings, B. Peng, A. Petrone, 
 T. Henderson, D. Ranasinghe, V. G. Zakrzewski, J. Gao, N. Rega, 
 G. Zheng, W. Liang, M. Hada, M. Ehara, K. Toyota, R. Fukuda, 
 J. Hasegawa, M. Ishida, T. Nakajima, Y. Honda, O. Kitao, H. Nakai, 
 T. Vreven, K. Throssell, J. A. Montgomery, Jr., J. E. Peralta, 
 F. Ogliaro, M. J. Bearpark, J. J. Heyd, E. N. Brothers, K. N. Kudin, 
 V. N. Staroverov, T. A. Keith, R. Kobayashi, J. Normand, 
 K. Raghavachari, A. P. Rendell, J. C. Burant, S. S. Iyengar, 
 J. Tomasi, M. Cossi, J. M. Millam, M. Klene, C. Adamo, R. Cammi, 
 J. W. Ochterski, R. L. Martin, K. Morokuma, O. Farkas, 
 J. B. Foresman, and D. J. Fox, Gaussian, Inc., Wallingford CT, 2019.
 
 ******************************************
 Gaussian 16:  ES64L-G16RevC.01  3-Jul-2019
                19-Dec-2025 
 ******************************************
 %NProcShared=16
 Will use up to   16 processors via shared memory.
 %Mem=40GB
 %chk=Py5_2.chk
 ------------------------------------------------------
 #N OPT FREQ=NORAMAN Integral(Ultrafine) wB97XD def2SVP
 ------------------------------------------------------
 1/18=20,19=15,26=4,38=1/1,3;
 2/9=110,12=2,17=6,18=5,40=1/2;
 3/5=43,7=101,11=2,25=1,30=1,71=1,74=-58,75=-5/1,2,3;
 4//1;
 5/5=2,38=5/2;
 6/7=2,8=2,9=2,10=2,28=1/1;
 7//1,2,3,16;
 1/18=20,19=15,26=4/3(2);
 2/9=110/2;
 99//99;
 2/9=110/2;
 3/5=43,7=101,11=2,25=1,30=1,71=1,74=-58,75=-5/1,2,3;
 4/5=5,16=3,69=1/1;
 5/5=2,38=5/2;
 7//1,2,3,16;
 1/18=20,19=15,26=4/3(-5);
 2/9=110/2;
 6/7=2,8=2,9=2,10=2,19=2,28=1/1;
 99/9=1/99;
 -----
 Py5_2
 -----
 Symbolic Z-matrix:
 Charge =  0 Multiplicity = 1
 C                     2.60576   0.94646  -0.00015 
 O                     1.83059  -0.22856   0.00017 
 C                     0.48624  -0.12539   0.00006 
 C                    -0.21947   1.08272   0.00003 
 C                    -1.601     1.02995   0.00001 
 C                    -2.23845  -0.20134  -0.00007 
 C                    -1.44376  -1.33546  -0.00004 
 N                    -0.125    -1.30339   0.00005 
 H                     2.42143   1.55104  -0.89415 
 H                     3.64213   0.6127   -0.00033 
 H                     2.42172   1.55153   0.8935 
 H                     0.28602   2.03474   0.00009 
 H                    -2.17391   1.94642  -0.00021 
 H                    -3.31394  -0.27547  -0.00024 
 H                    -1.87737  -2.32677  -0.00008 
 

 GradGradGradGradGradGradGradGradGradGradGradGradGradGradGradGradGradGrad
 Berny optimization.
 Initialization pass.
                           ----------------------------
                           !    Initial Parameters    !
                           ! (Angstroms and Degrees)  !
 --------------------------                            --------------------------
 ! Name  Definition              Value          Derivative Info.                !
 --------------------------------------------------------------------------------
 ! R1    R(1,2)                  1.4077         estimate D2E/DX2                !
 ! R2    R(1,9)                  1.0949         estimate D2E/DX2                !
 ! R3    R(1,10)                 1.0888         estimate D2E/DX2                !
 ! R4    R(1,11)                 1.0948         estimate D2E/DX2                !
 ! R5    R(2,3)                  1.3483         estimate D2E/DX2                !
 ! R6    R(3,4)                  1.3991         estimate D2E/DX2                !
 ! R7    R(3,8)                  1.3271         estimate D2E/DX2                !
 ! R8    R(4,5)                  1.3825         estimate D2E/DX2                !
 ! R9    R(4,12)                 1.0779         estimate D2E/DX2                !
 ! R10   R(5,6)                  1.3865         estimate D2E/DX2                !
 ! R11   R(5,13)                 1.0808         estimate D2E/DX2                !
 ! R12   R(6,7)                  1.3848         estimate D2E/DX2                !
 ! R13   R(6,14)                 1.078          estimate D2E/DX2                !
 ! R14   R(7,8)                  1.3191         estimate D2E/DX2                !
 ! R15   R(7,15)                 1.082          estimate D2E/DX2                !
 ! A1    A(2,1,9)              111.6173         estimate D2E/DX2                !
 ! A2    A(2,1,10)             105.5621         estimate D2E/DX2                !
 ! A3    A(2,1,11)             111.6277         estimate D2E/DX2                !
 ! A4    A(9,1,10)             109.2317         estimate D2E/DX2                !
 ! A5    A(9,1,11)             109.4526         estimate D2E/DX2                !
 ! A6    A(10,1,11)            109.2423         estimate D2E/DX2                !
 ! A7    A(1,2,3)              119.0247         estimate D2E/DX2                !
 ! A8    A(2,3,4)              124.6795         estimate D2E/DX2                !
 ! A9    A(2,3,8)              113.0354         estimate D2E/DX2                !
 ! A10   A(4,3,8)              122.2851         estimate D2E/DX2                !
 ! A11   A(3,4,5)              118.1036         estimate D2E/DX2                !
 ! A12   A(3,4,12)             121.7422         estimate D2E/DX2                !
 ! A13   A(5,4,12)             120.1542         estimate D2E/DX2                !
 ! A14   A(4,5,6)              119.5585         estimate D2E/DX2                !
 ! A15   A(4,5,13)             119.8232         estimate D2E/DX2                !
 ! A16   A(6,5,13)             120.6184         estimate D2E/DX2                !
 ! A17   A(5,6,7)              117.6096         estimate D2E/DX2                !
 ! A18   A(5,6,14)             121.314          estimate D2E/DX2                !
 ! A19   A(7,6,14)             121.0764         estimate D2E/DX2                !
 ! A20   A(6,7,8)              123.6263         estimate D2E/DX2                !
 ! A21   A(6,7,15)             121.3556         estimate D2E/DX2                !
 ! A22   A(8,7,15)             115.0182         estimate D2E/DX2                !
 ! A23   A(3,8,7)              118.8169         estimate D2E/DX2                !
 ! D1    D(9,1,2,3)            -61.4163         estimate D2E/DX2                !
 ! D2    D(10,1,2,3)          -179.9812         estimate D2E/DX2                !
 ! D3    D(11,1,2,3)            61.4356         estimate D2E/DX2                !
 ! D4    D(1,2,3,4)             -0.0192         estimate D2E/DX2                !
 ! D5    D(1,2,3,8)            179.984          estimate D2E/DX2                !
 ! D6    D(2,3,4,5)           -179.9954         estimate D2E/DX2                !
 ! D7    D(2,3,4,12)             0.0003         estimate D2E/DX2                !
 ! D8    D(8,3,4,5)              0.001          estimate D2E/DX2                !
 ! D9    D(8,3,4,12)           179.9968         estimate D2E/DX2                !
 ! D10   D(2,3,8,7)            179.9993         estimate D2E/DX2                !
 ! D11   D(4,3,8,7)              0.0025         estimate D2E/DX2                !
 ! D12   D(3,4,5,6)             -0.0043         estimate D2E/DX2                !
 ! D13   D(3,4,5,13)          -179.988          estimate D2E/DX2                !
 ! D14   D(12,4,5,6)           179.9999         estimate D2E/DX2                !
 ! D15   D(12,4,5,13)            0.0162         estimate D2E/DX2                !
 ! D16   D(4,5,6,7)              0.0041         estimate D2E/DX2                !
 ! D17   D(4,5,6,14)          -179.9905         estimate D2E/DX2                !
 ! D18   D(13,5,6,7)           179.9876         estimate D2E/DX2                !
 ! D19   D(13,5,6,14)           -0.0069         estimate D2E/DX2                !
 ! D20   D(5,6,7,8)             -0.0005         estimate D2E/DX2                !
 ! D21   D(5,6,7,15)           179.9989         estimate D2E/DX2                !
 ! D22   D(14,6,7,8)           179.9941         estimate D2E/DX2                !
 ! D23   D(14,6,7,15)           -0.0066         estimate D2E/DX2                !
 ! D24   D(6,7,8,3)             -0.0028         estimate D2E/DX2                !
 ! D25   D(15,7,8,3)           179.9978         estimate D2E/DX2                !
 --------------------------------------------------------------------------------
 Trust Radius=3.00D-01 FncErr=1.00D-07 GrdErr=1.00D-06 EigMax=2.50D+02 EigMin=1.00D-04
 Number of steps in this run=     73 maximum allowed number of steps=    100.
 GradGradGradGradGradGradGradGradGradGradGradGradGradGradGradGradGradGrad

                          Input orientation:                          
 ---------------------------------------------------------------------
 Center     Atomic      Atomic             Coordinates (Angstroms)
 Number     Number       Type             X           Y           Z
 ---------------------------------------------------------------------
      1          6           0        2.605760    0.946460   -0.000150
      2          8           0        1.830590   -0.228560    0.000170
      3          6           0        0.486240   -0.125390    0.000060
      4          6           0       -0.219470    1.082720    0.000030
      5          6           0       -1.601000    1.029950    0.000010
      6          6           0       -2.238450   -0.201340   -0.000070
      7          6           0       -1.443760   -1.335460   -0.000040
      8          7           0       -0.125000   -1.303390    0.000050
      9          1           0        2.421430    1.551040   -0.894150
     10          1           0        3.642130    0.612700   -0.000330
     11          1           0        2.421720    1.551530    0.893500
     12          1           0        0.286020    2.034740    0.000090
     13          1           0       -2.173910    1.946420   -0.000210
     14          1           0       -3.313940   -0.275470   -0.000240
     15          1           0       -1.877370   -2.326770   -0.000080
 ---------------------------------------------------------------------
                    Distance matrix (angstroms):
                    1          2          3          4          5
     1  C    0.000000
     2  O    1.407679   0.000000
     3  C    2.375127   1.348303   0.000000
     4  C    2.828514   2.433557   1.399127   0.000000
     5  C    4.207588   3.655087   2.385662   1.382537   0.000000
     6  C    4.978335   4.069131   2.725748   2.392716   1.386513
     7  C    4.648201   3.456385   2.277975   2.710439   2.370630
     8  N    3.538202   2.231500   1.327139   2.387979   2.760987
     9  H    1.094866   2.077469   2.712008   2.827231   4.153432
    10  H    1.088788   1.997347   3.241052   3.890099   5.259706
    11  H    1.094802   2.077545   2.712264   2.827358   4.153630
    12  H    2.562332   2.740114   2.169389   1.077897   2.137860
    13  H    4.883151   4.557034   3.371764   2.136776   1.080807
    14  H    6.044498   5.144744   3.803142   3.379412   2.153668
    15  H    5.550900   4.260452   3.229973   3.791208   3.368078
                    6          7          8          9         10
     6  C    0.000000
     7  C    1.384832   0.000000
     8  N    2.383524   1.319150   0.000000
     9  H    5.058132   4.906221   3.928316   0.000000
    10  H    5.936656   5.446247   4.226425   1.780310   0.000000
    11  H    5.058479   4.906634   3.928690   1.787650   1.780375
    12  H    3.372388   3.788190   3.363339   2.365081   3.644952
    13  H    2.148729   3.362121   3.841783   4.698149   5.967003
    14  H    1.078042   2.149687   3.350516   6.085202   7.012543
    15  H    2.155883   1.081995   2.029312   5.858025   6.253428
                   11         12         13         14         15
    11  H    0.000000
    12  H    2.364929   0.000000
    13  H    4.698348   2.461515   0.000000
    14  H    6.085597   4.277474   2.497291   0.000000
    15  H    5.858487   4.868575   4.283467   2.504309   0.000000
 Stoichiometry    C6H7NO
 Framework group  C1[X(C6H7NO)]
 Deg. of freedom    39
 Full point group                 C1      NOp   1
 Largest Abelian subgroup         C1      NOp   1
 Largest concise Abelian subgroup C1      NOp   1
                         Standard orientation:                         
 ---------------------------------------------------------------------
 Center     Atomic      Atomic             Coordinates (Angstroms)
 Number     Number       Type             X           Y           Z
 ---------------------------------------------------------------------
      1          6           0       -2.728936    0.307259    0.000138
      2          8           0       -1.713182   -0.667319   -0.000182
      3          6           0       -0.424902   -0.269503   -0.000072
      4          6           0       -0.003733    1.064728   -0.000042
      5          6           0        1.355280    1.318682   -0.000022
      6          6           0        2.249162    0.258780    0.000058
      7          6           0        1.724857   -1.022963    0.000028
      8          7           0        0.431637   -1.283228   -0.000062
      9          1           0       -2.682823    0.937631    0.894138
     10          1           0       -3.665879   -0.247355    0.000318
     11          1           0       -2.683214    0.938044   -0.893512
     12          1           0       -0.707181    1.881443   -0.000102
     13          1           0        1.711409    2.339131    0.000198
     14          1           0        3.314430    0.424245    0.000228
     15          1           0        2.366890   -1.893886    0.000068
 ---------------------------------------------------------------------
 Rotational constants (GHZ):           5.2605783           1.6333163           1.2563262
 Standard basis: def2SVP (5D, 7F)
 There are   155 symmetry adapted cartesian basis functions of A   symmetry.
 There are   147 symmetry adapted basis functions of A   symmetry.
   147 basis functions,   249 primitive gaussians,   155 cartesian basis functions
    29 alpha electrons       29 beta electrons
       nuclear repulsion energy       351.9016940483 Hartrees.
 NAtoms=   15 NActive=   15 NUniq=   15 SFac= 1.00D+00 NAtFMM=   60 NAOKFM=F Big=F
 Integral buffers will be    131072 words long.
 Raffenetti 2 integral format.
 Two-electron integral symmetry is turned on.
 Nuclear repulsion after empirical dispersion term =      351.8955280775 Hartrees.
 One-electron integrals computed using PRISM.
   1 Symmetry operations used in ECPInt.
 ECPInt:  NShTT=    2415 NPrTT=    8771 LenC2=    2397 LenP2D=    7019.
 LDataN:  DoStor=T MaxTD1= 4 Len=   56
 NBasis=   147 RedAO= T EigKep=  6.24D-04  NBF=   147
 NBsUse=   147 1.00D-06 EigRej= -1.00D+00 NBFU=   147
 ExpMin= 1.22D-01 ExpMax= 2.27D+03 ExpMxC= 3.41D+02 IAcc=3 IRadAn=         5 AccDes= 0.00D+00
 Harris functional with IExCor= 4639 and IRadAn=       5 diagonalized for initial guess.
 HarFok:  IExCor= 4639 AccDes= 0.00D+00 IRadAn=         5 IDoV= 1 UseB2=F ITyADJ=14
 ICtDFT=  3500011 ScaDFX=  1.000000  1.000000  1.000000  1.000000
 FoFCou: FMM=F IPFlag=           0 FMFlag=      100000 FMFlg1=           0
         NFxFlg=           0 DoJE=T BraDBF=F KetDBF=T FulRan=T
         wScrn=  0.000000 ICntrl=       500 IOpCl=  0 I1Cent=   200000004 NGrid=           0
         NMat0=    1 NMatS0=      1 NMatT0=    0 NMatD0=    1 NMtDS0=    0 NMtDT0=    0
 Petite list used in FoFCou.
 Requested convergence on RMS density matrix=1.00D-08 within 128 cycles.
 Requested convergence on MAX density matrix=1.00D-06.
 Requested convergence on             energy=1.00D-06.
 No special actions if energy rises.
 Integral accuracy reduced to 1.0D-05 until final iterations.
 Initial convergence to 1.0D-05 achieved.  Increase integral accuracy.
 SCF Done:  E(RwB97XD) =  -362.426641927     A.U. after   15 cycles
            NFock= 15  Conv=0.90D-08     -V/T= 2.0096

 **********************************************************************

            Population analysis using the SCF Density.

 **********************************************************************

 Orbital symmetries:
       Occupied  (A) (A) (A) (A) (A) (A) (A) (A) (A) (A) (A) (A)
                 (A) (A) (A) (A) (A) (A) (A) (A) (A) (A) (A) (A)
                 (A) (A) (A) (A) (A)
       Virtual   (A) (A) (A) (A) (A) (A) (A) (A) (A) (A) (A) (A)
                 (A) (A) (A) (A) (A) (A) (A) (A) (A) (A) (A) (A)
                 (A) (A) (A) (A) (A) (A) (A) (A) (A) (A) (A) (A)
                 (A) (A) (A) (A) (A) (A) (A) (A) (A) (A) (A) (A)
                 (A) (A) (A) (A) (A) (A) (A) (A) (A) (A) (A) (A)
                 (A) (A) (A) (A) (A) (A) (A) (A) (A) (A) (A) (A)
                 (A) (A) (A) (A) (A) (A) (A) (A) (A) (A) (A) (A)
                 (A) (A) (A) (A) (A) (A) (A) (A) (A) (A) (A) (A)
                 (A) (A) (A) (A) (A) (A) (A) (A) (A) (A) (A) (A)
                 (A) (A) (A) (A) (A) (A) (A) (A) (A) (A)
 The electronic state is 1-A.
 Alpha  occ. eigenvalues --  -19.28912 -14.43023 -10.39154 -10.35633 -10.33293
 Alpha  occ. eigenvalues --  -10.32104 -10.30841 -10.30013  -1.17311  -1.03778
 Alpha  occ. eigenvalues --   -0.90325  -0.86161  -0.80510  -0.72787  -0.70459
 Alpha  occ. eigenvalues --   -0.63921  -0.59642  -0.58014  -0.57051  -0.54279
 Alpha  occ. eigenvalues --   -0.52155  -0.49896  -0.49269  -0.46392  -0.42760
 Alpha  occ. eigenvalues --   -0.41891  -0.36872  -0.34022  -0.31410
 Alpha virt. eigenvalues --    0.04497   0.06862   0.13991   0.15733   0.18646
 Alpha virt. eigenvalues --    0.20444   0.20786   0.21209   0.22666   0.23625
 Alpha virt. eigenvalues --    0.23726   0.30617   0.33809   0.37049   0.37819
 Alpha virt. eigenvalues --    0.38924   0.45220   0.46971   0.48897   0.51879
 Alpha virt. eigenvalues --    0.52528   0.53905   0.55371   0.56034   0.57243
 Alpha virt. eigenvalues --    0.61753   0.62635   0.63551   0.65902   0.68621
 Alpha virt. eigenvalues --    0.69928   0.71010   0.71855   0.72761   0.73993
 Alpha virt. eigenvalues --    0.74257   0.76239   0.77021   0.80444   0.81504
 Alpha virt. eigenvalues --    0.82632   0.84018   0.87079   0.88178   0.99256
 Alpha virt. eigenvalues --    1.00004   1.01445   1.03146   1.08607   1.10148
 Alpha virt. eigenvalues --    1.21568   1.24251   1.25493   1.28988   1.30363
 Alpha virt. eigenvalues --    1.33820   1.34478   1.38003   1.38896   1.42711
 Alpha virt. eigenvalues --    1.44073   1.55212   1.59472   1.60689   1.64522
 Alpha virt. eigenvalues --    1.70718   1.76541   1.77771   1.77937   1.81287
 Alpha virt. eigenvalues --    1.82945   1.83817   1.86417   1.87828   1.89009
 Alpha virt. eigenvalues --    1.90355   1.94441   1.94769   1.97169   2.00370
 Alpha virt. eigenvalues --    2.03098   2.04294   2.06208   2.11353   2.11894
 Alpha virt. eigenvalues --    2.18318   2.23660   2.26410   2.29888   2.32723
 Alpha virt. eigenvalues --    2.34668   2.39129   2.41261   2.45456   2.49977
 Alpha virt. eigenvalues --    2.50415   2.53911   2.64796   2.66045   2.69609
 Alpha virt. eigenvalues --    2.75798   2.80840   2.82866   2.85268   2.87383
 Alpha virt. eigenvalues --    2.91063   2.95312   2.97006   2.99465   3.13565
 Alpha virt. eigenvalues --    3.15024   3.17262   3.17995   3.21108   3.33926
 Alpha virt. eigenvalues --    3.54022   3.65686   3.84672
          Condensed to atoms (all electrons):
               1          2          3          4          5          6
     1  C    4.403457   0.298835  -0.050952   0.004668   0.001396   0.000016
     2  O    0.298835   7.873739   0.394226  -0.092896   0.003396   0.000074
     3  C   -0.050952   0.394226   4.714350   0.367830   0.000590  -0.071200
     4  C    0.004668  -0.092896   0.367830   5.199021   0.401916   0.008788
     5  C    0.001396   0.003396   0.000590   0.401916   4.821848   0.426294
     6  C    0.000016   0.000074  -0.071200   0.008788   0.426294   4.999754
     7  C   -0.000137   0.001394  -0.042556  -0.069289  -0.007980   0.432452
     8  N    0.003858  -0.085312   0.551053  -0.081362  -0.036118  -0.041127
     9  H    0.400784  -0.028081  -0.009755   0.006814   0.000408  -0.000066
    10  H    0.402742  -0.023672   0.005272  -0.000280  -0.000031   0.000006
    11  H    0.400789  -0.028069  -0.009759   0.006813   0.000408  -0.000066
    12  H    0.006879  -0.004631  -0.054544   0.424811  -0.049148   0.011334
    13  H   -0.000037  -0.000082   0.009921  -0.053493   0.437693  -0.058172
    14  H   -0.000001   0.000017   0.001103   0.011034  -0.055642   0.426553
    15  H    0.000006  -0.000005   0.005973   0.000219   0.007015  -0.069686
               7          8          9         10         11         12
     1  C   -0.000137   0.003858   0.400784   0.402742   0.400789   0.006879
     2  O    0.001394  -0.085312  -0.028081  -0.023672  -0.028069  -0.004631
     3  C   -0.042556   0.551053  -0.009755   0.005272  -0.009759  -0.054544
     4  C   -0.069289  -0.081362   0.006814  -0.000280   0.006813   0.424811
     5  C   -0.007980  -0.036118   0.000408  -0.000031   0.000408  -0.049148
     6  C    0.432452  -0.041127  -0.000066   0.000006  -0.000066   0.011334
     7  C    4.714807   0.537167   0.000017   0.000007   0.000017   0.000036
     8  N    0.537167   6.311256  -0.000206   0.000065  -0.000207   0.004798
     9  H    0.000017  -0.000206   0.654628  -0.021889  -0.042533   0.000327
    10  H    0.000007   0.000065  -0.021889   0.597766  -0.021892  -0.000096
    11  H    0.000017  -0.000207  -0.042533  -0.021892   0.654606   0.000328
    12  H    0.000036   0.004798   0.000327  -0.000096   0.000328   0.662204
    13  H    0.010236  -0.000240   0.000021  -0.000001   0.000021  -0.011798
    14  H   -0.045994   0.005339   0.000000  -0.000000   0.000000  -0.000136
    15  H    0.428339  -0.041709   0.000001  -0.000001   0.000001   0.000069
              13         14         15
     1  C   -0.000037  -0.000001   0.000006
     2  O   -0.000082   0.000017  -0.000005
     3  C    0.009921   0.001103   0.005973
     4  C   -0.053493   0.011034   0.000219
     5  C    0.437693  -0.055642   0.007015
     6  C   -0.058172   0.426553  -0.069686
     7  C    0.010236  -0.045994   0.428339
     8  N   -0.000240   0.005339  -0.041709
     9  H    0.000021   0.000000   0.000001
    10  H   -0.000001  -0.000000  -0.000001
    11  H    0.000021   0.000000   0.000001
    12  H   -0.011798  -0.000136   0.000069
    13  H    0.650516  -0.010672  -0.000261
    14  H   -0.010672   0.653571  -0.006263
    15  H   -0.000261  -0.006263   0.644231
 Mulliken charges:
               1
     1  C    0.127698
     2  O   -0.308934
     3  C    0.188447
     4  C   -0.134594
     5  C    0.047955
     6  C   -0.064953
     7  C    0.041484
     8  N   -0.127257
     9  H    0.039533
    10  H    0.062004
    11  H    0.039545
    12  H    0.009565
    13  H    0.026347
    14  H    0.021090
    15  H    0.032070
 Sum of Mulliken charges =  -0.00000
 Mulliken charges with hydrogens summed into heavy atoms:
               1
     1  C    0.268780
     2  O   -0.308934
     3  C    0.188447
     4  C   -0.125030
     5  C    0.074303
     6  C   -0.043863
     7  C    0.073554
     8  N   -0.127257
 Electronic spatial extent (au):  <R**2>=            933.8977
 Charge=              0.0000 electrons
 Dipole moment (field-independent basis, Debye):
    X=             -0.2524    Y=              3.0745    Z=              0.0007  Tot=              3.0848
 Quadrupole moment (field-independent basis, Debye-Ang):
   XX=            -36.7680   YY=            -47.6460   ZZ=            -48.5768
   XY=             -2.9735   XZ=             -0.0003   YZ=             -0.0004
 Traceless Quadrupole moment (field-independent basis, Debye-Ang):
   XX=              7.5623   YY=             -3.3158   ZZ=             -4.2465
   XY=             -2.9735   XZ=             -0.0003   YZ=             -0.0004
 Octapole moment (field-independent basis, Debye-Ang**2):
  XXX=            -16.7985  YYY=              8.6135  ZZZ=             -0.0002  XYY=              3.4753
  XXY=              1.7386  XXZ=              0.0048  XZZ=             -6.7627  YZZ=             -2.1024
  YYZ=              0.0008  XYZ=              0.0019
 Hexadecapole moment (field-independent basis, Debye-Ang**3):
 XXXX=           -764.8572 YYYY=           -298.4722 ZZZZ=            -55.6056 XXXY=             -3.0218
 XXXZ=              0.0007 YYYX=              0.4618 YYYZ=             -0.0036 ZZZX=              0.0005
 ZZZY=             -0.0034 XXYY=           -182.9064 XXZZ=           -162.1992 YYZZ=            -62.9020
 XXYZ=             -0.0031 YYXZ=              0.0034 ZZXY=             -1.2922
 N-N= 3.518955280775D+02 E-N=-1.546496277188D+03  KE= 3.589687160865D+02
   1 Symmetry operations used in ECPInt.
 ECPInt:  NShTT=    2415 NPrTT=    8771 LenC2=    2397 LenP2D=    7019.
 LDataN:  DoStor=T MaxTD1= 5 Len=  102
 Calling FoFJK, ICntrl=      2127 FMM=F ISym2X=0 I1Cent= 0 IOpClX= 0 NMat=1 NMatS=1 NMatT=0.
 ***** Axes restored to original set *****
 -------------------------------------------------------------------
 Center     Atomic                   Forces (Hartrees/Bohr)
 Number     Number              X              Y              Z
 -------------------------------------------------------------------
      1        6          -0.004824566   -0.009272620   -0.000055971
      2        8          -0.004471300    0.005796366    0.000004192
      3        6           0.005213645   -0.009454294    0.000011343
      4        6           0.005415127   -0.000266939    0.000007624
      5        6          -0.001245082   -0.003568875   -0.000023399
      6        6          -0.001167390    0.003300994   -0.000001622
      7        6           0.002567212   -0.000058234    0.000004303
      8        7           0.009838261    0.000508542   -0.000002401
      9        1          -0.000646579    0.003607479   -0.004440021
     10        1           0.005585911    0.000191675    0.000009106
     11        1          -0.000652143    0.003618577    0.004477887
     12        1           0.004274169    0.007658253   -0.000002368
     13        1          -0.004237782    0.007090946    0.000009843
     14        1          -0.009128323   -0.001114047    0.000002570
     15        1          -0.006521159   -0.008037824   -0.000001085
 -------------------------------------------------------------------
 Cartesian Forces:  Max     0.009838261 RMS     0.004406602

 GradGradGradGradGradGradGradGradGradGradGradGradGradGradGradGradGradGrad
 Berny optimization.
 FormGI is forming the generalized inverse of G from B-inverse, IUseBI=4.
 Internal  Forces:  Max     0.010597353 RMS     0.003772248
 Search for a local minimum.
 Step number   1 out of a maximum of   73
 All quantities printed in internal units (Hartrees-Bohrs-Radians)
 Mixed Optimization -- RFO/linear search
 Second derivative matrix not updated -- first step.
 ITU=  0
     Eigenvalues ---    0.01590   0.02187   0.02240   0.02278   0.02284
     Eigenvalues ---    0.02298   0.02317   0.02376   0.02434   0.02612
     Eigenvalues ---    0.10071   0.10739   0.16000   0.16000   0.16000
     Eigenvalues ---    0.16000   0.16000   0.16000   0.16000   0.22000
     Eigenvalues ---    0.22425   0.24432   0.25000   0.25000   0.34256
     Eigenvalues ---    0.34264   0.34953   0.35754   0.35897   0.36232
     Eigenvalues ---    0.36250   0.42838   0.44371   0.45768   0.47057
     Eigenvalues ---    0.48309   0.55384   0.58235   0.60626
 RFO step:  Lambda=-2.34128282D-03 EMin= 1.59019976D-02
 Linear search not attempted -- first point.
 Iteration  1 RMS(Cart)=  0.02323744 RMS(Int)=  0.00019194
 Iteration  2 RMS(Cart)=  0.00035870 RMS(Int)=  0.00001014
 Iteration  3 RMS(Cart)=  0.00000008 RMS(Int)=  0.00001014
 Variable       Old X    -DE/DX   Delta X   Delta X   Delta X     New X
                                 (Linear)    (Quad)   (Total)
    R1        2.66013  -0.00185   0.00000  -0.00415  -0.00415   2.65598
    R2        2.06900   0.00572   0.00000   0.01660   0.01660   2.08559
    R3        2.05751   0.00526   0.00000   0.01495   0.01495   2.07246
    R4        2.06888   0.00576   0.00000   0.01671   0.01671   2.08558
    R5        2.54792  -0.00529   0.00000  -0.00951  -0.00951   2.53841
    R6        2.64397   0.00516   0.00000   0.01059   0.01059   2.65455
    R7        2.50793   0.00101   0.00000   0.00141   0.00141   2.50933
    R8        2.61262   0.00920   0.00000   0.01855   0.01856   2.63117
    R9        2.03693   0.00877   0.00000   0.02404   0.02404   2.06097
   R10        2.62013   0.00581   0.00000   0.01239   0.01239   2.63252
   R11        2.04243   0.00826   0.00000   0.02286   0.02286   2.06529
   R12        2.61695   0.00939   0.00000   0.01996   0.01996   2.63691
   R13        2.03720   0.00918   0.00000   0.02518   0.02518   2.06239
   R14        2.49283   0.01060   0.00000   0.01721   0.01721   2.51004
   R15        2.04467   0.00998   0.00000   0.02772   0.02772   2.07240
    A1        1.94809   0.00022   0.00000   0.00085   0.00083   1.94892
    A2        1.84241   0.00276   0.00000   0.01800   0.01796   1.86037
    A3        1.94827   0.00019   0.00000   0.00064   0.00062   1.94889
    A4        1.90645  -0.00112   0.00000  -0.00587  -0.00591   1.90054
    A5        1.91031  -0.00089   0.00000  -0.00718  -0.00719   1.90311
    A6        1.90664  -0.00113   0.00000  -0.00601  -0.00604   1.90059
    A7        2.07737  -0.00131   0.00000  -0.00519  -0.00519   2.07219
    A8        2.17607  -0.00638   0.00000  -0.02450  -0.02450   2.15157
    A9        1.97284   0.00393   0.00000   0.01636   0.01636   1.98920
   A10        2.13428   0.00245   0.00000   0.00814   0.00814   2.14242
   A11        2.06130  -0.00062   0.00000  -0.00456  -0.00456   2.05674
   A12        2.12480   0.00012   0.00000   0.00112   0.00112   2.12592
   A13        2.09709   0.00050   0.00000   0.00344   0.00344   2.10053
   A14        2.08669   0.00046   0.00000   0.00230   0.00231   2.08900
   A15        2.09131  -0.00040   0.00000  -0.00221  -0.00221   2.08910
   A16        2.10519  -0.00006   0.00000  -0.00009  -0.00010   2.10509
   A17        2.05268  -0.00132   0.00000  -0.00382  -0.00381   2.04886
   A18        2.11733   0.00115   0.00000   0.00492   0.00492   2.12225
   A19        2.11318   0.00017   0.00000  -0.00110  -0.00110   2.11208
   A20        2.15769  -0.00027   0.00000   0.00072   0.00072   2.15840
   A21        2.11805  -0.00269   0.00000  -0.01772  -0.01772   2.10033
   A22        2.00745   0.00295   0.00000   0.01700   0.01700   2.02445
   A23        2.07375  -0.00071   0.00000  -0.00279  -0.00280   2.07095
    D1       -1.07192   0.00043   0.00000   0.00414   0.00416  -1.06776
    D2       -3.14126  -0.00001   0.00000  -0.00012  -0.00012  -3.14139
    D3        1.07225  -0.00042   0.00000  -0.00411  -0.00413   1.06813
    D4       -0.00034   0.00000   0.00000   0.00013   0.00013  -0.00020
    D5        3.14131   0.00000   0.00000   0.00005   0.00005   3.14136
    D6       -3.14151  -0.00000   0.00000  -0.00012  -0.00012   3.14156
    D7        0.00001  -0.00000   0.00000  -0.00005  -0.00005  -0.00005
    D8        0.00002  -0.00000   0.00000  -0.00002  -0.00002  -0.00001
    D9        3.14154   0.00000   0.00000   0.00004   0.00004   3.14157
   D10        3.14158  -0.00000   0.00000   0.00001   0.00001  -3.14159
   D11        0.00004  -0.00000   0.00000  -0.00007  -0.00007  -0.00003
   D12       -0.00007   0.00000   0.00000   0.00011   0.00011   0.00004
   D13       -3.14138  -0.00001   0.00000  -0.00020  -0.00020  -3.14159
   D14        3.14159   0.00000   0.00000   0.00005   0.00005  -3.14154
   D15        0.00028  -0.00001   0.00000  -0.00027  -0.00026   0.00002
   D16        0.00007  -0.00000   0.00000  -0.00011  -0.00011  -0.00004
   D17       -3.14143  -0.00000   0.00000  -0.00020  -0.00020   3.14156
   D18        3.14138   0.00001   0.00000   0.00021   0.00021   3.14159
   D19       -0.00012   0.00000   0.00000   0.00012   0.00012   0.00000
   D20       -0.00001   0.00000   0.00000   0.00001   0.00001   0.00000
   D21        3.14157   0.00000   0.00000   0.00002   0.00002   3.14159
   D22        3.14149   0.00000   0.00000   0.00010   0.00010   3.14159
   D23       -0.00011   0.00000   0.00000   0.00010   0.00010  -0.00001
   D24       -0.00005   0.00000   0.00000   0.00007   0.00008   0.00003
   D25        3.14155   0.00000   0.00000   0.00007   0.00007  -3.14156
         Item               Value     Threshold  Converged?
 Maximum Force            0.010597     0.000450     NO 
 RMS     Force            0.003772     0.000300     NO 
 Maximum Displacement     0.077863     0.001800     NO 
 RMS     Displacement     0.023451     0.001200     NO 
 Predicted change in Energy=-1.178662D-03
 GradGradGradGradGradGradGradGradGradGradGradGradGradGradGradGradGradGrad

                          Input orientation:                          
 ---------------------------------------------------------------------
 Center     Atomic      Atomic             Coordinates (Angstroms)
 Number     Number       Type             X           Y           Z
 ---------------------------------------------------------------------
      1          6           0        2.592037    0.950605   -0.000178
      2          8           0        1.838053   -0.235518    0.000091
      3          6           0        0.497608   -0.148473    0.000041
      4          6           0       -0.195404    1.073411   -0.000029
      5          6           0       -1.587136    1.031666   -0.000120
      6          6           0       -2.240557   -0.198654   -0.000093
      7          6           0       -1.447467   -1.346755   -0.000020
      8          7           0       -0.119402   -1.324301    0.000030
      9          1           0        2.393332    1.559501   -0.898956
     10          1           0        3.647030    0.651045   -0.000299
     11          1           0        2.393553    1.559731    0.898485
     12          1           0        0.327223    2.030649   -0.000001
     13          1           0       -2.156785    1.964372   -0.000181
     14          1           0       -3.329745   -0.267620   -0.000134
     15          1           0       -1.911349   -2.340479    0.000007
 ---------------------------------------------------------------------
                    Distance matrix (angstroms):
                    1          2          3          4          5
     1  C    0.000000
     2  O    1.405482   0.000000
     3  C    2.365292   1.343269   0.000000
     4  C    2.790145   2.418314   1.404730   0.000000
     5  C    4.179959   3.652078   2.395597   1.392358   0.000000
     6  C    4.967370   4.078777   2.738625   2.408485   1.393071
     7  C    4.647092   3.468356   2.284556   2.724861   2.382519
     8  N    3.539364   2.239884   1.327883   2.398916   2.775756
     9  H    1.103649   2.082957   2.705391   2.783147   4.114686
    10  H    1.096698   2.014545   3.249321   3.865578   5.247987
    11  H    1.103642   2.082933   2.705507   2.783259   4.114879
    12  H    2.509159   2.723622   2.185773   1.090616   2.159337
    13  H    4.855825   4.560509   3.392627   2.154258   1.092905
    14  H    6.045790   5.167898   3.829207   3.409172   2.173667
    15  H    5.577788   4.299870   3.256987   3.820879   3.387695
                    6          7          8          9         10
     6  C    0.000000
     7  C    1.395395   0.000000
     8  N    2.401328   1.328255   0.000000
     9  H    5.037062   4.899607   3.929163   0.000000
    10  H    5.948586   5.472212   4.252999   1.790149   0.000000
    11  H    5.037295   4.899838   3.929351   1.797441   1.790175
    12  H    3.400484   3.815283   3.384547   2.301936   3.595056
    13  H    2.164648   3.386251   3.868630   4.655672   5.950554
    14  H    1.091369   2.169678   3.379774   6.074526   7.036997
    15  H    2.166978   1.096665   2.060022   5.877777   6.312274
                   11         12         13         14         15
    11  H    0.000000
    12  H    2.301904   0.000000
    13  H    4.655847   2.484892   0.000000
    14  H    6.074773   4.319196   2.521433   0.000000
    15  H    5.878017   4.911005   4.311842   2.511691   0.000000
 Stoichiometry    C6H7NO
 Framework group  C1[X(C6H7NO)]
 Deg. of freedom    39
 Full point group                 C1      NOp   1
 Largest Abelian subgroup         C1      NOp   1
 Largest concise Abelian subgroup C1      NOp   1
                         Standard orientation:                         
 ---------------------------------------------------------------------
 Center     Atomic      Atomic             Coordinates (Angstroms)
 Number     Number       Type             X           Y           Z
 ---------------------------------------------------------------------
      1          6           0       -2.715333    0.308388    0.000134
      2          8           0       -1.713156   -0.677015   -0.000134
      3          6           0       -0.426921   -0.289755   -0.000084
      4          6           0       -0.027489    1.056989   -0.000015
      5          6           0        1.337770    1.330353    0.000076
      6          6           0        2.251951    0.279201    0.000049
      7          6           0        1.738374   -1.018245   -0.000024
      8          7           0        0.439492   -1.296036   -0.000074
      9          1           0       -2.659145    0.946417    0.898912
     10          1           0       -3.675525   -0.221496    0.000255
     11          1           0       -2.659412    0.946591   -0.898529
     12          1           0       -0.752630    1.871614   -0.000043
     13          1           0        1.682272    2.367541    0.000137
     14          1           0        3.328611    0.457779    0.000090
     15          1           0        2.414517   -1.881670   -0.000051
 ---------------------------------------------------------------------
 Rotational constants (GHZ):           5.2005155           1.6358828           1.2544903
 Standard basis: def2SVP (5D, 7F)
 There are   155 symmetry adapted cartesian basis functions of A   symmetry.
 There are   147 symmetry adapted basis functions of A   symmetry.
   147 basis functions,   249 primitive gaussians,   155 cartesian basis functions
    29 alpha electrons       29 beta electrons
       nuclear repulsion energy       350.9769980749 Hartrees.
 NAtoms=   15 NActive=   15 NUniq=   15 SFac= 1.00D+00 NAtFMM=   60 NAOKFM=F Big=F
 Integral buffers will be    131072 words long.
 Raffenetti 2 integral format.
 Two-electron integral symmetry is turned on.
 Nuclear repulsion after empirical dispersion term =      350.9708428774 Hartrees.
 One-electron integrals computed using PRISM.
   1 Symmetry operations used in ECPInt.
 ECPInt:  NShTT=    2415 NPrTT=    8771 LenC2=    2397 LenP2D=    7006.
 LDataN:  DoStor=T MaxTD1= 4 Len=   56
 NBasis=   147 RedAO= T EigKep=  6.52D-04  NBF=   147
 NBsUse=   147 1.00D-06 EigRej= -1.00D+00 NBFU=   147
 Initial guess from the checkpoint file:  "Py5_2.chk"
 B after Tr=     0.000000    0.000000    0.000000
         Rot=    0.999997   -0.000007   -0.000001   -0.002589 Ang=  -0.30 deg.
 ExpMin= 1.22D-01 ExpMax= 2.27D+03 ExpMxC= 3.41D+02 IAcc=3 IRadAn=         5 AccDes= 0.00D+00
 Harris functional with IExCor= 4639 and IRadAn=       5 diagonalized for initial guess.
 HarFok:  IExCor= 4639 AccDes= 0.00D+00 IRadAn=         5 IDoV= 1 UseB2=F ITyADJ=14
 ICtDFT=  3500011 ScaDFX=  1.000000  1.000000  1.000000  1.000000
 FoFCou: FMM=F IPFlag=           0 FMFlag=      100000 FMFlg1=           0
         NFxFlg=           0 DoJE=T BraDBF=F KetDBF=T FulRan=T
         wScrn=  0.000000 ICntrl=       500 IOpCl=  0 I1Cent=   200000004 NGrid=           0
         NMat0=    1 NMatS0=      1 NMatT0=    0 NMatD0=    1 NMtDS0=    0 NMtDT0=    0
 Petite list used in FoFCou.
 Requested convergence on RMS density matrix=1.00D-08 within 128 cycles.
 Requested convergence on MAX density matrix=1.00D-06.
 Requested convergence on             energy=1.00D-06.
 No special actions if energy rises.
 Integral accuracy reduced to 1.0D-05 until final iterations.
 Initial convergence to 1.0D-05 achieved.  Increase integral accuracy.
 SCF Done:  E(RwB97XD) =  -362.427685275     A.U. after   13 cycles
            NFock= 13  Conv=0.34D-08     -V/T= 2.0102
   1 Symmetry operations used in ECPInt.
 ECPInt:  NShTT=    2415 NPrTT=    8771 LenC2=    2397 LenP2D=    7006.
 LDataN:  DoStor=T MaxTD1= 5 Len=  102
 Calling FoFJK, ICntrl=      2127 FMM=F ISym2X=0 I1Cent= 0 IOpClX= 0 NMat=1 NMatS=1 NMatT=0.
 ***** Axes restored to original set *****
 -------------------------------------------------------------------
 Center     Atomic                   Forces (Hartrees/Bohr)
 Number     Number              X              Y              Z
 -------------------------------------------------------------------
      1        6          -0.000539762   -0.002733906   -0.000001636
      2        8           0.000356491    0.002229738   -0.000004086
      3        6          -0.000493908   -0.002113924   -0.000003944
      4        6          -0.001478582    0.001465685   -0.000000388
      5        6           0.000440179   -0.000333310    0.000003826
      6        6           0.000308493    0.000197143   -0.000002085
      7        6           0.000736665    0.000713638    0.000001739
      8        7           0.000526830    0.000763303    0.000002798
      9        1           0.000367224    0.000190362   -0.000000055
     10        1          -0.000215911   -0.000034154    0.000003170
     11        1           0.000371209    0.000194593    0.000002933
     12        1          -0.001201307   -0.000710777   -0.000000960
     13        1           0.000190791   -0.000199294   -0.000000044
     14        1           0.000569937   -0.000218462   -0.000000490
     15        1           0.000061652    0.000589365   -0.000000778
 -------------------------------------------------------------------
 Cartesian Forces:  Max     0.002733906 RMS     0.000780388

 GradGradGradGradGradGradGradGradGradGradGradGradGradGradGradGradGradGrad
 Berny optimization.
 Using GEDIIS/GDIIS optimizer.
 FormGI is forming the generalized inverse of G from B-inverse, IUseBI=4.
 Internal  Forces:  Max     0.004537974 RMS     0.000915130
 Search for a local minimum.
 Step number   2 out of a maximum of   73
 All quantities printed in internal units (Hartrees-Bohrs-Radians)
 Mixed Optimization -- En-DIIS/RFO-DIIS
 Update second derivatives using D2CorX and points    1    2
 DE= -1.04D-03 DEPred=-1.18D-03 R= 8.85D-01
 TightC=F SS=  1.41D+00  RLast= 8.27D-02 DXNew= 5.0454D-01 2.4799D-01
 Trust test= 8.85D-01 RLast= 8.27D-02 DXMaxT set to 3.00D-01
 ITU=  1  0
 Use linear search instead of GDIIS.
     Eigenvalues ---    0.01590   0.02187   0.02240   0.02278   0.02286
     Eigenvalues ---    0.02298   0.02319   0.02376   0.02438   0.02612
     Eigenvalues ---    0.10099   0.10631   0.15507   0.16000   0.16000
     Eigenvalues ---    0.16000   0.16000   0.16000   0.16145   0.21958
     Eigenvalues ---    0.22441   0.24019   0.24618   0.26532   0.34175
     Eigenvalues ---    0.34260   0.34972   0.35808   0.35856   0.36198
     Eigenvalues ---    0.37607   0.43119   0.44008   0.46393   0.47027
     Eigenvalues ---    0.49117   0.55431   0.59378   0.61739
 RFO step:  Lambda=-1.31240415D-04 EMin= 1.59019970D-02
 Quartic linear search produced a step of -0.09505.
 Iteration  1 RMS(Cart)=  0.01674668 RMS(Int)=  0.00009635
 Iteration  2 RMS(Cart)=  0.00013666 RMS(Int)=  0.00000245
 Iteration  3 RMS(Cart)=  0.00000001 RMS(Int)=  0.00000245
 Variable       Old X    -DE/DX   Delta X   Delta X   Delta X     New X
                                 (Linear)    (Quad)   (Total)
    R1        2.65598  -0.00202   0.00039  -0.00474  -0.00435   2.65163
    R2        2.08559   0.00004  -0.00158   0.00260   0.00102   2.08662
    R3        2.07246  -0.00020  -0.00142   0.00174   0.00032   2.07277
    R4        2.08558   0.00004  -0.00159   0.00263   0.00104   2.08662
    R5        2.53841   0.00035   0.00090  -0.00087   0.00004   2.53845
    R6        2.65455   0.00170  -0.00101   0.00510   0.00409   2.65865
    R7        2.50933  -0.00177  -0.00013  -0.00244  -0.00257   2.50676
    R8        2.63117  -0.00122  -0.00176   0.00066  -0.00110   2.63007
    R9        2.06097  -0.00120  -0.00228   0.00062  -0.00166   2.05931
   R10        2.63252  -0.00106  -0.00118  -0.00015  -0.00133   2.63119
   R11        2.06529  -0.00027  -0.00217   0.00276   0.00059   2.06588
   R12        2.63691  -0.00093  -0.00190   0.00112  -0.00077   2.63614
   R13        2.06239  -0.00056  -0.00239   0.00241   0.00001   2.06240
   R14        2.51004  -0.00111  -0.00164   0.00088  -0.00075   2.50929
   R15        2.07240  -0.00056  -0.00264   0.00276   0.00012   2.07252
    A1        1.94892   0.00055  -0.00008   0.00356   0.00348   1.95240
    A2        1.86037  -0.00045  -0.00171  -0.00049  -0.00220   1.85817
    A3        1.94889   0.00056  -0.00006   0.00357   0.00351   1.95239
    A4        1.90054  -0.00026   0.00056  -0.00294  -0.00237   1.89817
    A5        1.90311  -0.00018   0.00068  -0.00102  -0.00035   1.90277
    A6        1.90059  -0.00026   0.00057  -0.00300  -0.00242   1.89817
    A7        2.07219   0.00454   0.00049   0.01564   0.01613   2.08832
    A8        2.15157   0.00255   0.00233   0.00542   0.00774   2.15931
    A9        1.98920  -0.00232  -0.00155  -0.00606  -0.00761   1.98159
   A10        2.14242  -0.00024  -0.00077   0.00064  -0.00013   2.14228
   A11        2.05674  -0.00008   0.00043  -0.00041   0.00002   2.05676
   A12        2.12592   0.00077  -0.00011   0.00419   0.00408   2.13000
   A13        2.10053  -0.00070  -0.00033  -0.00378  -0.00410   2.09643
   A14        2.08900  -0.00020  -0.00022  -0.00023  -0.00045   2.08855
   A15        2.08910   0.00004   0.00021  -0.00039  -0.00018   2.08892
   A16        2.10509   0.00016   0.00001   0.00061   0.00062   2.10572
   A17        2.04886   0.00009   0.00036  -0.00055  -0.00019   2.04867
   A18        2.12225   0.00022  -0.00047   0.00221   0.00174   2.12399
   A19        2.11208  -0.00031   0.00011  -0.00166  -0.00155   2.11052
   A20        2.15840   0.00061  -0.00007   0.00204   0.00197   2.16038
   A21        2.10033  -0.00051   0.00168  -0.00475  -0.00307   2.09727
   A22        2.02445  -0.00011  -0.00162   0.00271   0.00109   2.02554
   A23        2.07095  -0.00020   0.00027  -0.00149  -0.00122   2.06973
    D1       -1.06776  -0.00028  -0.00040  -0.00194  -0.00234  -1.07010
    D2       -3.14139  -0.00000   0.00001  -0.00006  -0.00004  -3.14143
    D3        1.06813   0.00028   0.00039   0.00189   0.00230   1.07042
    D4       -0.00020   0.00000  -0.00001   0.00004   0.00003  -0.00017
    D5        3.14136   0.00000  -0.00000   0.00010   0.00010   3.14146
    D6        3.14156   0.00000   0.00001   0.00005   0.00006  -3.14157
    D7       -0.00005   0.00000   0.00001   0.00005   0.00006   0.00001
    D8       -0.00001  -0.00000   0.00000  -0.00002  -0.00001  -0.00002
    D9        3.14157  -0.00000  -0.00000  -0.00001  -0.00002   3.14156
   D10       -3.14159  -0.00000  -0.00000  -0.00003  -0.00003   3.14156
   D11       -0.00003   0.00000   0.00001   0.00003   0.00004   0.00001
   D12        0.00004  -0.00000  -0.00001  -0.00002  -0.00003   0.00001
   D13       -3.14159   0.00000   0.00002  -0.00002  -0.00000  -3.14159
   D14       -3.14154  -0.00000  -0.00001  -0.00002  -0.00003  -3.14157
   D15        0.00002   0.00000   0.00003  -0.00003  -0.00000   0.00002
   D16       -0.00004   0.00000   0.00001   0.00004   0.00005   0.00001
   D17        3.14156   0.00000   0.00002   0.00001   0.00003   3.14159
   D18        3.14159   0.00000  -0.00002   0.00004   0.00002  -3.14157
   D19        0.00000  -0.00000  -0.00001   0.00001   0.00000   0.00001
   D20        0.00000  -0.00000  -0.00000  -0.00003  -0.00003  -0.00002
   D21        3.14159  -0.00000  -0.00000  -0.00000  -0.00000   3.14158
   D22        3.14159  -0.00000  -0.00001   0.00000  -0.00001   3.14158
   D23       -0.00001   0.00000  -0.00001   0.00003   0.00002   0.00001
   D24        0.00003  -0.00000  -0.00001  -0.00001  -0.00002   0.00001
   D25       -3.14156  -0.00000  -0.00001  -0.00003  -0.00004   3.14159
         Item               Value     Threshold  Converged?
 Maximum Force            0.004538     0.000450     NO 
 RMS     Force            0.000915     0.000300     NO 
 Maximum Displacement     0.054162     0.001800     NO 
 RMS     Displacement     0.016719     0.001200     NO 
 Predicted change in Energy=-7.718125D-05
 GradGradGradGradGradGradGradGradGradGradGradGradGradGradGradGradGradGrad

                          Input orientation:                          
 ---------------------------------------------------------------------
 Center     Atomic      Atomic             Coordinates (Angstroms)
 Number     Number       Type             X           Y           Z
 ---------------------------------------------------------------------
      1          6           0        2.605829    0.944950   -0.000163
      2          8           0        1.832536   -0.225918    0.000033
      3          6           0        0.492186   -0.137110   -0.000028
      4          6           0       -0.209750    1.082170   -0.000078
      5          6           0       -1.600601    1.031528   -0.000109
      6          6           0       -2.245246   -0.202621   -0.000079
      7          6           0       -1.444320   -1.344770   -0.000004
      8          7           0       -0.116784   -1.315589    0.000015
      9          1           0        2.421994    1.559009   -0.899259
     10          1           0        3.654893    0.624677   -0.000239
     11          1           0        2.422173    1.559188    0.898850
     12          1           0        0.302372    2.044074   -0.000080
     13          1           0       -2.176217    1.960930   -0.000149
     14          1           0       -3.333806   -0.280950   -0.000100
     15          1           0       -1.904269   -2.340390    0.000030
 ---------------------------------------------------------------------
                    Distance matrix (angstroms):
                    1          2          3          4          5
     1  C    0.000000
     2  O    1.403180   0.000000
     3  C    2.374519   1.343289   0.000000
     4  C    2.818920   2.425288   1.406896   0.000000
     5  C    4.207321   3.656172   2.396971   1.391773   0.000000
     6  C    4.984962   4.077848   2.738215   2.407059   1.392368
     7  C    4.652582   3.462602   2.282213   2.722903   2.381431
     8  N    3.538737   2.233211   1.326520   2.399561   2.776809
     9  H    1.104190   2.083783   2.722057   2.821697   4.155475
    10  H    1.096865   2.011094   3.253158   3.891627   5.271219
    11  H    1.104192   2.083782   2.722179   2.821814   4.155630
    12  H    2.552251   2.737566   2.189428   1.089738   2.155588
    13  H    4.888780   4.566443   3.394428   2.153883   1.093216
    14  H    6.064824   5.166635   3.828694   3.408493   2.174074
    15  H    5.579825   4.293565   3.255371   3.819073   3.385565
                    6          7          8          9         10
     6  C    0.000000
     7  C    1.394986   0.000000
     8  N    2.401884   1.327856   0.000000
     9  H    5.069022   4.918228   3.939213   0.000000
    10  H    5.957857   5.466324   4.241483   1.789205   0.000000
    11  H    5.069205   4.918402   3.939359   1.798108   1.789209
    12  H    3.396763   3.812506   3.385709   2.352999   3.640616
    13  H    2.164652   3.385753   3.869992   4.702497   5.982258
    14  H    1.091375   2.168380   3.379306   6.109268   7.047132
    15  H    2.164792   1.096729   2.060418   5.893266   6.300469
                   11         12         13         14         15
    11  H    0.000000
    12  H    2.353029   0.000000
    13  H    4.702636   2.479983   0.000000
    14  H    6.109461   4.315962   2.523101   0.000000
    15  H    5.893445   4.908442   4.309909   2.506965   0.000000
 Stoichiometry    C6H7NO
 Framework group  C1[X(C6H7NO)]
 Deg. of freedom    39
 Full point group                 C1      NOp   1
 Largest Abelian subgroup         C1      NOp   1
 Largest concise Abelian subgroup C1      NOp   1
                         Standard orientation:                         
 ---------------------------------------------------------------------
 Center     Atomic      Atomic             Coordinates (Angstroms)
 Number     Number       Type             X           Y           Z
 ---------------------------------------------------------------------
      1          6           0       -2.728140    0.303460    0.000105
      2          8           0       -1.713159   -0.665419   -0.000090
      3          6           0       -0.426388   -0.279873   -0.000030
      4          6           0       -0.014108    1.065260    0.000020
      5          6           0        1.352998    1.326133    0.000051
      6          6           0        2.256687    0.266872    0.000021
      7          6           0        1.730706   -1.025154   -0.000054
      8          7           0        0.430108   -1.292825   -0.000073
      9          1           0       -2.685907    0.943054    0.899201
     10          1           0       -3.679334   -0.242746    0.000181
     11          1           0       -2.686122    0.943188   -0.898907
     12          1           0       -0.727887    1.888696    0.000022
     13          1           0        1.706800    2.360515    0.000092
     14          1           0        3.335293    0.433328    0.000043
     15          1           0        2.401148   -1.893095   -0.000087
 ---------------------------------------------------------------------
 Rotational constants (GHZ):           5.2137216           1.6280837           1.2506676
 Standard basis: def2SVP (5D, 7F)
 There are   155 symmetry adapted cartesian basis functions of A   symmetry.
 There are   147 symmetry adapted basis functions of A   symmetry.
   147 basis functions,   249 primitive gaussians,   155 cartesian basis functions
    29 alpha electrons       29 beta electrons
       nuclear repulsion energy       350.7714600219 Hartrees.
 NAtoms=   15 NActive=   15 NUniq=   15 SFac= 1.00D+00 NAtFMM=   60 NAOKFM=F Big=F
 Integral buffers will be    131072 words long.
 Raffenetti 2 integral format.
 Two-electron integral symmetry is turned on.
 Nuclear repulsion after empirical dispersion term =      350.7652986241 Hartrees.
 One-electron integrals computed using PRISM.
   1 Symmetry operations used in ECPInt.
 ECPInt:  NShTT=    2415 NPrTT=    8771 LenC2=    2397 LenP2D=    7002.
 LDataN:  DoStor=T MaxTD1= 4 Len=   56
 NBasis=   147 RedAO= T EigKep=  6.53D-04  NBF=   147
 NBsUse=   147 1.00D-06 EigRej= -1.00D+00 NBFU=   147
 Initial guess from the checkpoint file:  "Py5_2.chk"
 B after Tr=    -0.000000    0.000000   -0.000000
         Rot=    0.999998    0.000002   -0.000003    0.001738 Ang=   0.20 deg.
 ExpMin= 1.22D-01 ExpMax= 2.27D+03 ExpMxC= 3.41D+02 IAcc=3 IRadAn=         5 AccDes= 0.00D+00
 Harris functional with IExCor= 4639 and IRadAn=       5 diagonalized for initial guess.
 HarFok:  IExCor= 4639 AccDes= 0.00D+00 IRadAn=         5 IDoV= 1 UseB2=F ITyADJ=14
 ICtDFT=  3500011 ScaDFX=  1.000000  1.000000  1.000000  1.000000
 FoFCou: FMM=F IPFlag=           0 FMFlag=      100000 FMFlg1=           0
         NFxFlg=           0 DoJE=T BraDBF=F KetDBF=T FulRan=T
         wScrn=  0.000000 ICntrl=       500 IOpCl=  0 I1Cent=   200000004 NGrid=           0
         NMat0=    1 NMatS0=      1 NMatT0=    0 NMatD0=    1 NMtDS0=    0 NMtDT0=    0
 Petite list used in FoFCou.
 Requested convergence on RMS density matrix=1.00D-08 within 128 cycles.
 Requested convergence on MAX density matrix=1.00D-06.
 Requested convergence on             energy=1.00D-06.
 No special actions if energy rises.
 Integral accuracy reduced to 1.0D-05 until final iterations.
 Initial convergence to 1.0D-05 achieved.  Increase integral accuracy.
 SCF Done:  E(RwB97XD) =  -362.427731005     A.U. after   12 cycles
            NFock= 12  Conv=0.28D-08     -V/T= 2.0102
   1 Symmetry operations used in ECPInt.
 ECPInt:  NShTT=    2415 NPrTT=    8771 LenC2=    2397 LenP2D=    7002.
 LDataN:  DoStor=T MaxTD1= 5 Len=  102
 Calling FoFJK, ICntrl=      2127 FMM=F ISym2X=0 I1Cent= 0 IOpClX= 0 NMat=1 NMatS=1 NMatT=0.
 ***** Axes restored to original set *****
 -------------------------------------------------------------------
 Center     Atomic                   Forces (Hartrees/Bohr)
 Number     Number              X              Y              Z
 -------------------------------------------------------------------
      1        6          -0.000940444   -0.000893352    0.000001711
      2        8           0.000147661    0.001260845   -0.000004077
      3        6           0.000307048   -0.000238416    0.000005196
      4        6           0.000196720   -0.000027778   -0.000000954
      5        6           0.000289217    0.000204620   -0.000000242
      6        6          -0.000035800   -0.000314622    0.000000971
      7        6          -0.000193876   -0.000009014   -0.000002251
      8        7          -0.000794771    0.000111045    0.000000113
      9        1          -0.000082247    0.000016794    0.000190591
     10        1          -0.000201230    0.000144291    0.000000670
     11        1          -0.000081990    0.000016705   -0.000191608
     12        1           0.000243020   -0.000308404   -0.000000450
     13        1           0.000319020   -0.000373638   -0.000000064
     14        1           0.000574689   -0.000080177    0.000000057
     15        1           0.000252983    0.000491100    0.000000336
 -------------------------------------------------------------------
 Cartesian Forces:  Max     0.001260845 RMS     0.000352072

 GradGradGradGradGradGradGradGradGradGradGradGradGradGradGradGradGradGrad
 Berny optimization.
 Using GEDIIS/GDIIS optimizer.
 FormGI is forming the generalized inverse of G from B-inverse, IUseBI=4.
 Internal  Forces:  Max     0.002164698 RMS     0.000522090
 Search for a local minimum.
 Step number   3 out of a maximum of   73
 All quantities printed in internal units (Hartrees-Bohrs-Radians)
 Mixed Optimization -- En-DIIS/RFO-DIIS
 Swapping is turned off.
 Update second derivatives using D2CorX and points    1    2    3
 DE= -4.57D-05 DEPred=-7.72D-05 R= 5.93D-01
 TightC=F SS=  1.41D+00  RLast= 2.32D-02 DXNew= 5.0454D-01 6.9532D-02
 Trust test= 5.93D-01 RLast= 2.32D-02 DXMaxT set to 3.00D-01
 ITU=  1  1  0
     Eigenvalues ---    0.01590   0.02187   0.02240   0.02278   0.02285
     Eigenvalues ---    0.02298   0.02318   0.02376   0.02439   0.02611
     Eigenvalues ---    0.10106   0.10634   0.14979   0.16000   0.16000
     Eigenvalues ---    0.16000   0.16000   0.16046   0.16190   0.21990
     Eigenvalues ---    0.22401   0.23384   0.24699   0.33652   0.34260
     Eigenvalues ---    0.34947   0.35769   0.35820   0.35982   0.36566
     Eigenvalues ---    0.38721   0.41325   0.45717   0.46580   0.48184
     Eigenvalues ---    0.50032   0.57022   0.61232   0.61834
 En-DIIS/RFO-DIIS/Sim-DIIS IScMMF=       -3 using points:     3    2
 RFO step:  Lambda=-3.34876018D-05.
 DidBck=T Rises=F RFO-DIIS coefs:    0.77339    0.22661
 Iteration  1 RMS(Cart)=  0.00599581 RMS(Int)=  0.00000885
 Iteration  2 RMS(Cart)=  0.00001322 RMS(Int)=  0.00000050
 Iteration  3 RMS(Cart)=  0.00000000 RMS(Int)=  0.00000050
 Variable       Old X    -DE/DX   Delta X   Delta X   Delta X     New X
                                 (Linear)    (Quad)   (Total)
    R1        2.65163  -0.00132   0.00099  -0.00348  -0.00249   2.64913
    R2        2.08662  -0.00013  -0.00023  -0.00006  -0.00030   2.08632
    R3        2.07277  -0.00023  -0.00007  -0.00048  -0.00055   2.07222
    R4        2.08662  -0.00013  -0.00024  -0.00006  -0.00030   2.08632
    R5        2.53845  -0.00119  -0.00001  -0.00138  -0.00139   2.53706
    R6        2.65865  -0.00100  -0.00093  -0.00022  -0.00115   2.65750
    R7        2.50676  -0.00004   0.00058  -0.00094  -0.00035   2.50641
    R8        2.63007  -0.00069   0.00025  -0.00151  -0.00126   2.62881
    R9        2.05931  -0.00016   0.00038  -0.00107  -0.00069   2.05862
   R10        2.63119  -0.00005   0.00030  -0.00061  -0.00031   2.63088
   R11        2.06588  -0.00048  -0.00013  -0.00093  -0.00106   2.06482
   R12        2.63614  -0.00059   0.00018  -0.00126  -0.00108   2.63506
   R13        2.06240  -0.00057  -0.00000  -0.00129  -0.00129   2.06111
   R14        2.50929  -0.00051   0.00017  -0.00096  -0.00079   2.50849
   R15        2.07252  -0.00055  -0.00003  -0.00126  -0.00129   2.07123
    A1        1.95240  -0.00004  -0.00079   0.00086   0.00007   1.95247
    A2        1.85817   0.00020   0.00050   0.00020   0.00070   1.85887
    A3        1.95239  -0.00004  -0.00079   0.00087   0.00008   1.95248
    A4        1.89817   0.00004   0.00054  -0.00036   0.00018   1.89835
    A5        1.90277  -0.00017   0.00008  -0.00123  -0.00115   1.90162
    A6        1.89817   0.00004   0.00055  -0.00038   0.00017   1.89835
    A7        2.08832  -0.00216  -0.00366  -0.00047  -0.00413   2.08419
    A8        2.15931  -0.00185  -0.00175  -0.00224  -0.00400   2.15532
    A9        1.98159   0.00148   0.00172   0.00139   0.00312   1.98471
   A10        2.14228   0.00036   0.00003   0.00085   0.00088   2.14316
   A11        2.05676  -0.00009  -0.00000  -0.00026  -0.00026   2.05650
   A12        2.13000  -0.00033  -0.00093  -0.00008  -0.00100   2.12900
   A13        2.09643   0.00041   0.00093   0.00033   0.00126   2.09769
   A14        2.08855  -0.00006   0.00010  -0.00035  -0.00025   2.08830
   A15        2.08892  -0.00005   0.00004  -0.00029  -0.00025   2.08867
   A16        2.10572   0.00011  -0.00014   0.00064   0.00050   2.10622
   A17        2.04867   0.00009   0.00004   0.00032   0.00036   2.04903
   A18        2.12399   0.00008  -0.00039   0.00090   0.00050   2.12449
   A19        2.11052  -0.00017   0.00035  -0.00122  -0.00086   2.10966
   A20        2.16038  -0.00006  -0.00045   0.00053   0.00008   2.16046
   A21        2.09727   0.00005   0.00069  -0.00073  -0.00003   2.09723
   A22        2.02554   0.00001  -0.00025   0.00020  -0.00005   2.02549
   A23        2.06973  -0.00025   0.00028  -0.00108  -0.00080   2.06892
    D1       -1.07010   0.00014   0.00053   0.00013   0.00066  -1.06944
    D2       -3.14143  -0.00000   0.00001  -0.00004  -0.00003  -3.14146
    D3        1.07042  -0.00014  -0.00052  -0.00020  -0.00072   1.06970
    D4       -0.00017   0.00000  -0.00001   0.00005   0.00005  -0.00013
    D5        3.14146   0.00000  -0.00002   0.00003   0.00001   3.14147
    D6       -3.14157  -0.00000  -0.00001  -0.00001  -0.00002  -3.14159
    D7        0.00001  -0.00000  -0.00001  -0.00000  -0.00002  -0.00001
    D8       -0.00002   0.00000   0.00000   0.00001   0.00002  -0.00000
    D9        3.14156   0.00000   0.00000   0.00002   0.00002   3.14158
   D10        3.14156   0.00000   0.00001   0.00002   0.00003   3.14159
   D11        0.00001  -0.00000  -0.00001   0.00000  -0.00001   0.00000
   D12        0.00001  -0.00000   0.00001  -0.00002  -0.00001  -0.00000
   D13       -3.14159  -0.00000   0.00000  -0.00000  -0.00000   3.14159
   D14       -3.14157  -0.00000   0.00001  -0.00002  -0.00002  -3.14159
   D15        0.00002  -0.00000   0.00000  -0.00001  -0.00001   0.00001
   D16        0.00001  -0.00000  -0.00001   0.00001  -0.00000   0.00001
   D17        3.14159   0.00000  -0.00001   0.00001   0.00000  -3.14159
   D18       -3.14157  -0.00000  -0.00001  -0.00001  -0.00001  -3.14159
   D19        0.00001  -0.00000  -0.00000  -0.00000  -0.00000   0.00000
   D20       -0.00002   0.00000   0.00001   0.00001   0.00002  -0.00001
   D21        3.14158   0.00000   0.00000  -0.00000   0.00000   3.14159
   D22        3.14158   0.00000   0.00000   0.00001   0.00001   3.14159
   D23        0.00001  -0.00000  -0.00000  -0.00000  -0.00001  -0.00000
   D24        0.00001  -0.00000   0.00000  -0.00001  -0.00001   0.00000
   D25        3.14159   0.00000   0.00001  -0.00000   0.00000  -3.14159
         Item               Value     Threshold  Converged?
 Maximum Force            0.002165     0.000450     NO 
 RMS     Force            0.000522     0.000300     NO 
 Maximum Displacement     0.019630     0.001800     NO 
 RMS     Displacement     0.005998     0.001200     NO 
 Predicted change in Energy=-1.674490D-05
 GradGradGradGradGradGradGradGradGradGradGradGradGradGradGradGradGradGrad

                          Input orientation:                          
 ---------------------------------------------------------------------
 Center     Atomic      Atomic             Coordinates (Angstroms)
 Number     Number       Type             X           Y           Z
 ---------------------------------------------------------------------
      1          6           0        2.599326    0.945985   -0.000162
      2          8           0        1.833342   -0.228102    0.000017
      3          6           0        0.493595   -0.141335   -0.000017
      4          6           0       -0.204974    1.079175   -0.000079
      5          6           0       -1.595267    1.031685   -0.000105
      6          6           0       -2.242298   -0.201028   -0.000074
      7          6           0       -1.444394   -1.344592   -0.000008
      8          7           0       -0.117211   -1.318653    0.000020
      9          1           0        2.411612    1.559317   -0.898760
     10          1           0        3.650111    0.632424   -0.000233
     11          1           0        2.411785    1.559485    0.898358
     12          1           0        0.310353    2.038952   -0.000097
     13          1           0       -2.168265    1.962044   -0.000151
     14          1           0       -3.330292   -0.277684   -0.000096
     15          1           0       -1.906434   -2.338493    0.000026
 ---------------------------------------------------------------------
                    Distance matrix (angstroms):
                    1          2          3          4          5
     1  C    0.000000
     2  O    1.401860   0.000000
     3  C    2.369888   1.342553   0.000000
     4  C    2.807461   2.421508   1.406287   0.000000
     5  C    4.195468   3.652727   2.395688   1.391104   0.000000
     6  C    4.975636   4.075729   2.736544   2.406160   1.392203
     7  C    4.647409   3.462672   2.281146   2.722280   2.381061
     8  N    3.536688   2.234716   1.326334   2.399434   2.776462
     9  H    1.104033   2.082562   2.716385   2.807968   4.140176
    10  H    1.096572   2.010263   3.249969   3.880884   5.260551
    11  H    1.104035   2.082566   2.716491   2.808080   4.140323
    12  H    2.536528   2.731122   2.187974   1.089373   2.155452
    13  H    4.874659   4.561753   3.392595   2.152666   1.092655
    14  H    6.054563   5.163871   3.826317   3.407151   2.173650
    15  H    5.575811   4.294144   3.253866   3.817777   3.384512
                    6          7          8          9         10
     6  C    0.000000
     7  C    1.394414   0.000000
     8  N    2.401059   1.327436   0.000000
     9  H    5.056216   4.910114   3.935157   0.000000
    10  H    5.951061   5.464666   4.242572   1.788955   0.000000
    11  H    5.056389   4.910279   3.935291   1.797118   1.788954
    12  H    3.396105   3.811497   3.384719   2.335152   3.623853
    13  H    2.164338   3.384942   3.869082   4.684545   5.968365
    14  H    1.090691   2.166773   3.377500   6.095213   7.039483
    15  H    2.163692   1.096047   2.059465   5.886108   6.300916
                   11         12         13         14         15
    11  H    0.000000
    12  H    2.335194   0.000000
    13  H    4.684680   2.479810   0.000000
    14  H    6.095396   4.315216   2.523229   0.000000
    15  H    5.886276   4.906747   4.308500   2.504856   0.000000
 Stoichiometry    C6H7NO
 Framework group  C1[X(C6H7NO)]
 Deg. of freedom    39
 Full point group                 C1      NOp   1
 Largest Abelian subgroup         C1      NOp   1
 Largest concise Abelian subgroup C1      NOp   1
                         Standard orientation:                         
 ---------------------------------------------------------------------
 Center     Atomic      Atomic             Coordinates (Angstroms)
 Number     Number       Type             X           Y           Z
 ---------------------------------------------------------------------
      1          6           0       -2.721816    0.304451    0.000105
      2          8           0       -1.712327   -0.668249   -0.000075
      3          6           0       -0.426050   -0.283619   -0.000040
      4          6           0       -0.018589    1.062345    0.000021
      5          6           0        1.347020    1.327449    0.000047
      6          6           0        2.253708    0.270971    0.000016
      7          6           0        1.732202   -1.022250   -0.000050
      8          7           0        0.432926   -1.294224   -0.000077
      9          1           0       -2.676240    0.944244    0.898702
     10          1           0       -3.675677   -0.236492    0.000175
     11          1           0       -2.676447    0.944369   -0.898416
     12          1           0       -0.735788    1.882320    0.000039
     13          1           0        1.697086    2.362509    0.000093
     14          1           0        3.331231    0.439944    0.000038
     15          1           0        2.405112   -1.887416   -0.000084
 ---------------------------------------------------------------------
 Rotational constants (GHZ):           5.2119521           1.6327198           1.2532881
 Standard basis: def2SVP (5D, 7F)
 There are   155 symmetry adapted cartesian basis functions of A   symmetry.
 There are   147 symmetry adapted basis functions of A   symmetry.
   147 basis functions,   249 primitive gaussians,   155 cartesian basis functions
    29 alpha electrons       29 beta electrons
       nuclear repulsion energy       351.0136699298 Hartrees.
 NAtoms=   15 NActive=   15 NUniq=   15 SFac= 1.00D+00 NAtFMM=   60 NAOKFM=F Big=F
 Integral buffers will be    131072 words long.
 Raffenetti 2 integral format.
 Two-electron integral symmetry is turned on.
 Nuclear repulsion after empirical dispersion term =      351.0075082614 Hartrees.
 One-electron integrals computed using PRISM.
   1 Symmetry operations used in ECPInt.
 ECPInt:  NShTT=    2415 NPrTT=    8771 LenC2=    2397 LenP2D=    7006.
 LDataN:  DoStor=T MaxTD1= 4 Len=   56
 NBasis=   147 RedAO= T EigKep=  6.51D-04  NBF=   147
 NBsUse=   147 1.00D-06 EigRej= -1.00D+00 NBFU=   147
 Initial guess from the checkpoint file:  "Py5_2.chk"
 B after Tr=    -0.000000   -0.000000    0.000000
         Rot=    1.000000    0.000001   -0.000001   -0.000596 Ang=   0.07 deg.
 Requested convergence on RMS density matrix=1.00D-08 within 128 cycles.
 Requested convergence on MAX density matrix=1.00D-06.
 Requested convergence on             energy=1.00D-06.
 No special actions if energy rises.
 SCF Done:  E(RwB97XD) =  -362.427748845     A.U. after    9 cycles
            NFock=  9  Conv=0.67D-08     -V/T= 2.0101
   1 Symmetry operations used in ECPInt.
 ECPInt:  NShTT=    2415 NPrTT=    8771 LenC2=    2397 LenP2D=    7006.
 LDataN:  DoStor=T MaxTD1= 5 Len=  102
 Calling FoFJK, ICntrl=      2127 FMM=F ISym2X=0 I1Cent= 0 IOpClX= 0 NMat=1 NMatS=1 NMatT=0.
 ***** Axes restored to original set *****
 -------------------------------------------------------------------
 Center     Atomic                   Forces (Hartrees/Bohr)
 Number     Number              X              Y              Z
 -------------------------------------------------------------------
      1        6          -0.000127545   -0.000439206    0.000001261
      2        8           0.000172540    0.000383093   -0.000001713
      3        6           0.000079020   -0.000154575    0.000000671
      4        6          -0.000061043    0.000072309    0.000000157
      5        6           0.000034967    0.000164914   -0.000000486
      6        6          -0.000056390   -0.000126346    0.000000290
      7        6          -0.000230653   -0.000053349    0.000000139
      8        7          -0.000054892    0.000077112    0.000000280
      9        1           0.000017524    0.000045539    0.000047391
     10        1           0.000008759    0.000104398    0.000000198
     11        1           0.000016800    0.000045317   -0.000048118
     12        1           0.000019879   -0.000074131    0.000000018
     13        1           0.000046809   -0.000080325    0.000000001
     14        1           0.000089853   -0.000035529    0.000000026
     15        1           0.000044371    0.000070780   -0.000000115
 -------------------------------------------------------------------
 Cartesian Forces:  Max     0.000439206 RMS     0.000114355

 GradGradGradGradGradGradGradGradGradGradGradGradGradGradGradGradGradGrad
 Berny optimization.
 Using GEDIIS/GDIIS optimizer.
 FormGI is forming the generalized inverse of G from B-inverse, IUseBI=4.
 Internal  Forces:  Max     0.000253502 RMS     0.000063823
 Search for a local minimum.
 Step number   4 out of a maximum of   73
 All quantities printed in internal units (Hartrees-Bohrs-Radians)
 Mixed Optimization -- En-DIIS/RFO-DIIS
 Swapping is turned off.
 Update second derivatives using D2CorX and points    1    2    3    4
 DE= -1.78D-05 DEPred=-1.67D-05 R= 1.07D+00
 TightC=F SS=  1.41D+00  RLast= 8.35D-03 DXNew= 5.0454D-01 2.5048D-02
 Trust test= 1.07D+00 RLast= 8.35D-03 DXMaxT set to 3.00D-01
 ITU=  1  1  1  0
     Eigenvalues ---    0.01590   0.02187   0.02240   0.02278   0.02286
     Eigenvalues ---    0.02298   0.02319   0.02376   0.02439   0.02611
     Eigenvalues ---    0.10068   0.10628   0.14288   0.15940   0.16000
     Eigenvalues ---    0.16000   0.16000   0.16088   0.16176   0.21988
     Eigenvalues ---    0.22392   0.23177   0.24663   0.33583   0.34260
     Eigenvalues ---    0.34945   0.35707   0.35807   0.35854   0.36318
     Eigenvalues ---    0.38773   0.39371   0.45853   0.46619   0.48076
     Eigenvalues ---    0.48455   0.58172   0.61218   0.63343
 En-DIIS/RFO-DIIS/Sim-DIIS IScMMF=       -3 using points:     4    3    2
 RFO step:  Lambda=-1.06005365D-06.
 DidBck=F Rises=F RFO-DIIS coefs:    1.17892   -0.14916   -0.02976
 Iteration  1 RMS(Cart)=  0.00043911 RMS(Int)=  0.00000022
 Iteration  2 RMS(Cart)=  0.00000023 RMS(Int)=  0.00000010
 Variable       Old X    -DE/DX   Delta X   Delta X   Delta X     New X
                                 (Linear)    (Quad)   (Total)
    R1        2.64913  -0.00025  -0.00058  -0.00025  -0.00082   2.64831
    R2        2.08632  -0.00002  -0.00002   0.00000  -0.00002   2.08630
    R3        2.07222  -0.00002  -0.00009   0.00003  -0.00006   2.07216
    R4        2.08632  -0.00002  -0.00002  -0.00000  -0.00002   2.08630
    R5        2.53706   0.00008  -0.00025   0.00036   0.00012   2.53717
    R6        2.65750   0.00001  -0.00008   0.00017   0.00009   2.65759
    R7        2.50641   0.00004  -0.00014   0.00015   0.00001   2.50642
    R8        2.62881  -0.00002  -0.00026   0.00018  -0.00008   2.62872
    R9        2.05862  -0.00006  -0.00017  -0.00003  -0.00021   2.05841
   R10        2.63088   0.00011  -0.00010   0.00033   0.00023   2.63111
   R11        2.06482  -0.00009  -0.00017  -0.00011  -0.00028   2.06454
   R12        2.63506  -0.00011  -0.00022  -0.00007  -0.00029   2.63477
   R13        2.06111  -0.00009  -0.00023  -0.00005  -0.00028   2.06083
   R14        2.50849   0.00009  -0.00016   0.00031   0.00014   2.50863
   R15        2.07123  -0.00008  -0.00023  -0.00004  -0.00027   2.07096
    A1        1.95247   0.00004   0.00012   0.00018   0.00029   1.95276
    A2        1.85887   0.00015   0.00006   0.00106   0.00112   1.85999
    A3        1.95248   0.00004   0.00012   0.00017   0.00029   1.95276
    A4        1.89835  -0.00006  -0.00004  -0.00035  -0.00039   1.89796
    A5        1.90162  -0.00010  -0.00022  -0.00070  -0.00091   1.90071
    A6        1.89835  -0.00006  -0.00004  -0.00035  -0.00039   1.89795
    A7        2.08419   0.00004  -0.00026   0.00069   0.00043   2.08462
    A8        2.15532  -0.00012  -0.00048  -0.00001  -0.00049   2.15482
    A9        1.98471   0.00020   0.00033   0.00048   0.00082   1.98552
   A10        2.14316  -0.00008   0.00015  -0.00048  -0.00033   2.14284
   A11        2.05650   0.00003  -0.00005   0.00018   0.00014   2.05664
   A12        2.12900  -0.00007  -0.00006  -0.00034  -0.00039   2.12861
   A13        2.09769   0.00004   0.00010   0.00015   0.00026   2.09794
   A14        2.08830   0.00001  -0.00006   0.00005  -0.00001   2.08829
   A15        2.08867  -0.00000  -0.00005   0.00004  -0.00001   2.08866
   A16        2.10622  -0.00000   0.00011  -0.00009   0.00002   2.10623
   A17        2.04903   0.00000   0.00006  -0.00004   0.00002   2.04905
   A18        2.12449   0.00004   0.00014   0.00020   0.00035   2.12484
   A19        2.10966  -0.00004  -0.00020  -0.00016  -0.00036   2.10930
[...]
   XX=   -42.9598   YX=   -15.4044   ZX=    -0.0010
   XY=   -28.8854   YY=    61.6017   ZY=    -0.0050
   XZ=     0.0002   YZ=    -0.0043   ZZ=   178.3395
   Eigenvalues:   -47.4564    66.0983   178.3395
      7  C    Isotropic =    29.8871   Anisotropy =   172.5424
   XX=   -36.1652   YX=    62.7061   ZX=     0.0025
   XY=    42.2271   YY=   -19.0889   ZY=    -0.0072
   XZ=     0.0023   YZ=    -0.0076   ZZ=   144.9154
   Eigenvalues:   -80.7838    25.5297   144.9154
      8  N    Isotropic =   -52.8186   Anisotropy =   467.4914
   XX=  -297.9163   YX=    51.5904   ZX=     0.0031
   XY=    20.7676   YY=  -119.3819   ZY=    -0.0171
   XZ=    -0.0012   YZ=    -0.0145   ZZ=   258.8424
   Eigenvalues:  -304.9691  -112.3290   258.8424
      9  H    Isotropic =    28.0905   Anisotropy =     7.7586
   XX=    28.1985   YX=    -3.1662   ZX=    -2.4676
   XY=    -1.5703   YY=    28.7323   ZY=     3.1434
   XZ=    -2.6316   YZ=     2.4418   ZZ=    27.3407
   Eigenvalues:    24.9255    26.0831    33.2629
     10  H    Isotropic =    27.5971   Anisotropy =     7.8067
   XX=    32.8015   YX=     1.0234   ZX=    -0.0005
   XY=    -1.0811   YY=    26.5578   ZY=     0.0002
   XZ=    -0.0008   YZ=     0.0001   ZZ=    23.4321
   Eigenvalues:    23.4321    26.5577    32.8016
     11  H    Isotropic =    28.0904   Anisotropy =     7.7588
   XX=    28.1989   YX=    -3.1668   ZX=     2.4671
   XY=    -1.5711   YY=    28.7331   ZY=    -3.1432
   XZ=     2.6312   YZ=    -2.4414   ZZ=    27.3392
   Eigenvalues:    24.9253    26.0830    33.2629
     12  H    Isotropic =    24.9958   Anisotropy =     8.0658
   XX=    28.3840   YX=     2.9471   ZX=     0.0000
   XY=     3.2395   YY=    25.5626   ZY=     0.0001
   XZ=     0.0001   YZ=     0.0002   ZZ=    21.0410
   Eigenvalues:    21.0410    23.5735    30.3730
     13  H    Isotropic =    23.7827   Anisotropy =     5.5938
   XX=    27.3386   YX=    -0.7004   ZX=    -0.0000
   XY=    -1.0827   YY=    22.9240   ZY=     0.0001
   XZ=    -0.0001   YZ=     0.0001   ZZ=    21.0855
   Eigenvalues:    21.0855    22.7507    27.5119
     14  H    Isotropic =    24.6017   Anisotropy =     4.6292
   XX=    24.2109   YX=    -0.9243   ZX=    -0.0001
   XY=    -1.4297   YY=    27.2894   ZY=     0.0002
   XZ=     0.0000   YZ=     0.0002   ZZ=    22.3048
   Eigenvalues:    22.3048    23.8124    27.6878
     15  H    Isotropic =    23.0244   Anisotropy =     5.6918
   XX=    24.1740   YX=     1.5363   ZX=     0.0001
   XY=     1.8687   YY=    25.7230   ZY=     0.0003
   XZ=     0.0000   YZ=     0.0003   ZZ=    19.1760
   Eigenvalues:    19.1760    23.0782    26.8189
 End of Minotr F.D. properties file   721 does not exist.
 End of Minotr F.D. properties file   722 does not exist.
 End of Minotr F.D. properties file   788 does not exist.

 **********************************************************************

            Population analysis using the SCF Density.

 **********************************************************************

 Orbital symmetries:
       Occupied  (A) (A) (A) (A) (A) (A) (A) (A) (A) (A) (A) (A)
                 (A) (A) (A) (A) (A) (A) (A) (A) (A) (A) (A) (A)
                 (A) (A) (A) (A) (A)
       Virtual   (A) (A) (A) (A) (A) (A) (A) (A) (A) (A) (A) (A)
                 (A) (A) (A) (A) (A) (A) (A) (A) (A) (A) (A) (A)
                 (A) (A) (A) (A) (A) (A) (A) (A) (A) (A) (A) (A)
                 (A) (A) (A) (A) (A) (A) (A) (A) (A) (A) (A) (A)
                 (A) (A) (A) (A) (A) (A) (A) (A) (A) (A) (A) (A)
                 (A) (A) (A) (A) (A) (A) (A) (A) (A) (A) (A) (A)
                 (A) (A) (A) (A) (A) (A) (A) (A) (A) (A) (A) (A)
                 (A) (A) (A) (A) (A) (A) (A) (A) (A) (A) (A) (A)
                 (A) (A) (A) (A) (A) (A) (A) (A) (A) (A) (A) (A)
                 (A) (A) (A) (A) (A) (A) (A) (A) (A) (A) (A) (A)
                 (A) (A) (A) (A) (A) (A) (A) (A) (A) (A) (A) (A)
                 (A) (A) (A) (A) (A) (A) (A) (A) (A) (A) (A) (A)
                 (A) (A) (A) (A) (A) (A) (A) (A) (A) (A) (A) (A)
                 (A) (A) (A) (A) (A) (A) (A) (A) (A) (A) (A) (A)
                 (A) (A) (A) (A) (A) (A) (A) (A) (A) (A) (A) (A)
                 (A) (A) (A) (A) (A) (A) (A) (A) (A) (A) (A) (A)
                 (A) (A) (A) (A) (A) (A) (A) (A) (A) (A) (A) (A)
                 (A) (A) (A) (A) (A) (A) (A) (A) (A) (A) (A) (A)
                 (A) (A) (A) (A) (A) (A) (A) (A) (A) (A) (A) (A)
                 (A) (A) (A) (A) (A) (A) (A) (A) (A) (A) (A) (A)
                 (A) (A) (A) (A) (A) (A) (A) (A) (A) (A) (A) (A)
                 (A) (A) (A) (A) (A) (A) (A) (A) (A)
 The electronic state is 1-A.
 Alpha  occ. eigenvalues --  -19.28790 -14.42583 -10.38226 -10.34448 -10.32499
 Alpha  occ. eigenvalues --  -10.31148 -10.29868 -10.29100  -1.19037  -1.04394
 Alpha  occ. eigenvalues --   -0.90837  -0.86703  -0.81095  -0.73189  -0.70792
 Alpha  occ. eigenvalues --   -0.63935  -0.59619  -0.58026  -0.57250  -0.54221
 Alpha  occ. eigenvalues --   -0.52259  -0.49728  -0.49046  -0.46351  -0.43141
 Alpha  occ. eigenvalues --   -0.41994  -0.36808  -0.34631  -0.31488
 Alpha virt. eigenvalues --    0.03754   0.06301   0.11339   0.13314   0.15150
 Alpha virt. eigenvalues --    0.16352   0.17565   0.18641   0.18737   0.19626
 Alpha virt. eigenvalues --    0.21237   0.22182   0.25980   0.27237   0.27952
 Alpha virt. eigenvalues --    0.29298   0.29614   0.30868   0.31579   0.32864
 Alpha virt. eigenvalues --    0.33452   0.34982   0.36461   0.37944   0.38613
 Alpha virt. eigenvalues --    0.40335   0.41860   0.42936   0.44043   0.44146
 Alpha virt. eigenvalues --    0.44783   0.47415   0.48658   0.49260   0.50409
 Alpha virt. eigenvalues --    0.51266   0.52383   0.52639   0.55102   0.55112
 Alpha virt. eigenvalues --    0.55679   0.57628   0.59280   0.60287   0.60984
 Alpha virt. eigenvalues --    0.61577   0.65334   0.68658   0.71034   0.71613
 Alpha virt. eigenvalues --    0.72376   0.73122   0.73828   0.76289   0.78704
 Alpha virt. eigenvalues --    0.81365   0.81564   0.83024   0.83718   0.84225
 Alpha virt. eigenvalues --    0.87976   0.90696   0.94257   0.96106   0.98011
 Alpha virt. eigenvalues --    0.98395   1.01554   1.02709   1.06310   1.07331
 Alpha virt. eigenvalues --    1.10657   1.14454   1.16969   1.18326   1.19715
 Alpha virt. eigenvalues --    1.21596   1.23260   1.29590   1.30382   1.32610
 Alpha virt. eigenvalues --    1.36106   1.36727   1.38620   1.41138   1.41306
 Alpha virt. eigenvalues --    1.42740   1.51039   1.51585   1.54047   1.54768
 Alpha virt. eigenvalues --    1.55865   1.57832   1.59598   1.59931   1.60898
 Alpha virt. eigenvalues --    1.63563   1.64766   1.66144   1.67567   1.68431
 Alpha virt. eigenvalues --    1.72488   1.76349   1.77746   1.79670   1.79692
 Alpha virt. eigenvalues --    1.83797   1.87235   1.87701   1.89477   1.91226
 Alpha virt. eigenvalues --    1.95342   1.95785   2.02907   2.04122   2.04162
 Alpha virt. eigenvalues --    2.06410   2.09190   2.10877   2.12689   2.14586
 Alpha virt. eigenvalues --    2.18705   2.19719   2.26406   2.27746   2.29216
 Alpha virt. eigenvalues --    2.33614   2.33884   2.36070   2.37435   2.40838
 Alpha virt. eigenvalues --    2.45295   2.47273   2.47411   2.48322   2.55161
 Alpha virt. eigenvalues --    2.55473   2.59806   2.60575   2.62046   2.65370
 Alpha virt. eigenvalues --    2.66918   2.68772   2.70627   2.71973   2.75137
 Alpha virt. eigenvalues --    2.75642   2.76860   2.77273   2.80418   2.81993
 Alpha virt. eigenvalues --    2.86867   2.87046   2.89395   2.89955   2.92379
 Alpha virt. eigenvalues --    2.93094   2.96278   2.97887   3.00411   3.02762
 Alpha virt. eigenvalues --    3.06426   3.09184   3.10791   3.12261   3.15432
 Alpha virt. eigenvalues --    3.16171   3.18201   3.18857   3.20638   3.21963
 Alpha virt. eigenvalues --    3.24993   3.25324   3.26081   3.26534   3.28794
 Alpha virt. eigenvalues --    3.30439   3.32713   3.35395   3.35758   3.39349
 Alpha virt. eigenvalues --    3.39873   3.42845   3.44741   3.46593   3.46625
 Alpha virt. eigenvalues --    3.48052   3.49548   3.53766   3.53967   3.59716
 Alpha virt. eigenvalues --    3.60657   3.62986   3.64302   3.66290   3.67173
 Alpha virt. eigenvalues --    3.71826   3.79253   3.81680   3.84241   3.87157
 Alpha virt. eigenvalues --    3.93696   3.94934   3.98898   3.99582   4.05155
 Alpha virt. eigenvalues --    4.10919   4.17813   4.20249   4.22015   4.22861
 Alpha virt. eigenvalues --    4.26694   4.28951   4.34197   4.38276   4.41386
 Alpha virt. eigenvalues --    4.44433   4.46132   4.47833   4.51490   4.56642
 Alpha virt. eigenvalues --    4.57923   4.59979   4.78217   4.79731   4.82255
 Alpha virt. eigenvalues --    4.88345   4.95561   5.00186   5.04469   5.07535
 Alpha virt. eigenvalues --    5.12381   5.17124   5.21644   5.30118   5.34690
 Alpha virt. eigenvalues --    5.40941   5.47462   5.50513   5.51398   5.65677
 Alpha virt. eigenvalues --    5.77697   5.88291   5.88572   6.02595   6.03266
 Alpha virt. eigenvalues --    6.09288   6.50420   6.72882   6.73010   6.88336
 Alpha virt. eigenvalues --    6.95459   7.26267   7.46690  22.38698  22.47015
 Alpha virt. eigenvalues --   22.66101  22.74187  22.98363  23.32738  32.62714
 Alpha virt. eigenvalues --   44.31589
          Condensed to atoms (all electrons):
               1          2          3          4          5          6
     1  C    4.814711   0.238823  -0.078271   0.014392  -0.005432   0.001533
     2  O    0.238823   7.894470   0.413965  -0.095401   0.004811  -0.000083
     3  C   -0.078271   0.413965   4.540122   0.376807   0.009812  -0.044797
     4  C    0.014392  -0.095401   0.376807   5.287506   0.428816  -0.010709
     5  C   -0.005432   0.004811   0.009812   0.428816   4.892558   0.475694
     6  C    0.001533  -0.000083  -0.044797  -0.010709   0.475694   4.975810
     7  C   -0.001155  -0.000501  -0.071915  -0.036161  -0.006544   0.485877
     8  N    0.004883  -0.099656   0.559413  -0.103763  -0.011262  -0.068700
     9  H    0.414236  -0.038327  -0.018494   0.010792  -0.000490   0.000082
    10  H    0.400695  -0.031813   0.008309  -0.002177   0.000210  -0.000035
    11  H    0.414237  -0.038325  -0.018503   0.010796  -0.000490   0.000082
    12  H    0.006378  -0.002081  -0.040077   0.409888  -0.033161   0.008263
    13  H   -0.000087  -0.000098   0.003244  -0.034049   0.419054  -0.038448
    14  H    0.000000   0.000045  -0.000429   0.008311  -0.052989   0.419300
    15  H    0.000003   0.000064   0.005310  -0.003810   0.007424  -0.075221
               7          8          9         10         11         12
     1  C   -0.001155   0.004883   0.414236   0.400695   0.414237   0.006378
     2  O   -0.000501  -0.099656  -0.038327  -0.031813  -0.038325  -0.002081
     3  C   -0.071915   0.559413  -0.018494   0.008309  -0.018503  -0.040077
     4  C   -0.036161  -0.103763   0.010792  -0.002177   0.010796   0.409888
     5  C   -0.006544  -0.011262  -0.000490   0.000210  -0.000490  -0.033161
     6  C    0.485877  -0.068700   0.000082  -0.000035   0.000082   0.008263
     7  C    4.736643   0.516460  -0.000150   0.000057  -0.000150  -0.002196
     8  N    0.516460   6.486830  -0.000348   0.000257  -0.000348   0.004372
     9  H   -0.000150  -0.000348   0.584392  -0.018846  -0.055887  -0.000606
    10  H    0.000057   0.000257  -0.018846   0.516376  -0.018848  -0.000008
    11  H   -0.000150  -0.000348  -0.055887  -0.018848   0.584397  -0.000604
    12  H   -0.002196   0.004372  -0.000606  -0.000008  -0.000604   0.515842
    13  H    0.005100  -0.000974  -0.000021   0.000001  -0.000021  -0.005227
    14  H   -0.035457   0.005906   0.000001  -0.000000   0.000001   0.000069
    15  H    0.438227  -0.032475   0.000000  -0.000000   0.000000   0.000082
              13         14         15
     1  C   -0.000087   0.000000   0.000003
     2  O   -0.000098   0.000045   0.000064
     3  C    0.003244  -0.000429   0.005310
     4  C   -0.034049   0.008311  -0.003810
     5  C    0.419054  -0.052989   0.007424
     6  C   -0.038448   0.419300  -0.075221
     7  C    0.005100  -0.035457   0.438227
     8  N   -0.000974   0.005906  -0.032475
     9  H   -0.000021   0.000001   0.000000
    10  H    0.000001  -0.000000  -0.000000
    11  H   -0.000021   0.000001   0.000000
    12  H   -0.005227   0.000069   0.000082
    13  H    0.524392  -0.005583  -0.000169
    14  H   -0.005583   0.534280  -0.001860
    15  H   -0.000169  -0.001860   0.533975
 Mulliken charges:
               1
     1  C   -0.224949
     2  O   -0.245893
     3  C    0.355505
     4  C   -0.261237
     5  C   -0.128010
     6  C   -0.128648
     7  C   -0.028135
     8  N   -0.260593
     9  H    0.123665
    10  H    0.145822
    11  H    0.123663
    12  H    0.139067
    13  H    0.132887
    14  H    0.128404
    15  H    0.128451
 Sum of Mulliken charges =  -0.00000
 Mulliken charges with hydrogens summed into heavy atoms:
               1
     1  C    0.168201
     2  O   -0.245893
     3  C    0.355505
     4  C   -0.122170
     5  C    0.004877
     6  C   -0.000244
     7  C    0.100316
     8  N   -0.260593
 Electronic spatial extent (au):  <R**2>=            937.1228
 Charge=             -0.0000 electrons
 Dipole moment (field-independent basis, Debye):
    X=             -0.2040    Y=              3.0135    Z=              0.0002  Tot=              3.0204
 Quadrupole moment (field-independent basis, Debye-Ang):
   XX=            -36.8556   YY=            -47.8051   ZZ=            -49.2154
   XY=             -2.8189   XZ=             -0.0005   YZ=             -0.0000
 Traceless Quadrupole moment (field-independent basis, Debye-Ang):
   XX=              7.7697   YY=             -3.1797   ZZ=             -4.5901
   XY=             -2.8189   XZ=             -0.0005   YZ=             -0.0000
 Octapole moment (field-independent basis, Debye-Ang**2):
  XXX=            -14.4202  YYY=              9.5806  ZZZ=             -0.0001  XYY=              4.0802
  XXY=              0.8051  XXZ=              0.0009  XZZ=             -7.1207  YZZ=             -2.0476
  YYZ=              0.0005  XYZ=              0.0007
 Hexadecapole moment (field-independent basis, Debye-Ang**3):
 XXXX=           -771.5943 YYYY=           -306.2966 ZZZZ=            -59.7874 XXXY=             -1.2259
 XXXZ=              0.0031 YYYX=              0.6274 YYYZ=             -0.0058 ZZZX=              0.0061
 ZZZY=             -0.0063 XXYY=           -184.7728 XXZZ=           -166.3850 YYZZ=            -65.7066
 XXYZ=             -0.0016 YYXZ=              0.0021 ZZXY=             -1.4433
 N-N= 3.510097545772D+02 E-N=-1.547488832119D+03  KE= 3.609621812187D+02
 Breneman (CHELPG) radii used.
 Read replacement radii for each type of atom:
 Atom Element Radius
    1     6    1.50
    2     8    1.70
    3     6    1.50
    4     6    1.50
    5     6    1.50
    6     6    1.50
    7     6    1.50
    8     7    1.70
    9     1    1.45
   10     1    1.45
   11     1    1.45
   12     1    1.45
   13     1    1.45
   14     1    1.45
   15     1    1.45
 Generate Potential Derived Charges using the Breneman model, NDens= 1.
 Grid spacing= 0.300 Box extension= 2.800
 NStep X,Y,Z=   44     34     26   Total possible points=       38896
 Number of Points to Fit=   10782

 **********************************************************************

            Electrostatic Properties Using The SCF Density.

 **********************************************************************

       Atomic Center    1 is at  -2.721803  0.304107  0.000096
       Atomic Center    2 is at  -1.712538 -0.668200 -0.000052
       Atomic Center    3 is at  -0.426073 -0.283987 -0.000026
       Atomic Center    4 is at  -0.018806  1.062086  0.000026
       Atomic Center    5 is at   1.346684  1.327580  0.000041
       Atomic Center    6 is at   2.253752  0.271267 -0.000001
       Atomic Center    7 is at   1.732694 -1.021969 -0.000059
       Atomic Center    8 is at   0.433392 -1.294185 -0.000071
       Atomic Center    9 is at  -2.676335  0.944307  0.898394
       Atomic Center   10 is at  -3.676193 -0.235836  0.000131
       Atomic Center   11 is at  -2.676476  0.944435 -0.898119
       Atomic Center   12 is at  -0.736381  1.881587  0.000049
       Atomic Center   13 is at   1.696390  2.362603  0.000081
       Atomic Center   14 is at   3.331139  0.440152  0.000008
       Atomic Center   15 is at   2.405725 -1.886863 -0.000096
   10782 points will be used for fitting atomic charges
 Fitting point charges to electrostatic potential
 Charges from ESP fit, RMS=   0.00335 RRMS=   0.20392:
 ESP charges:
               1
     1  C    0.150955
     2  O   -0.435386
     3  C    0.860426
     4  C   -0.533818
     5  C    0.185922
     6  C   -0.433946
     7  C    0.405730
     8  N   -0.690775
     9  H    0.000350
    10  H    0.066957
    11  H    0.000363
    12  H    0.174199
    13  H    0.072241
    14  H    0.146145
    15  H    0.030636
 Sum of ESP charges =  -0.00000
 ESP charges with hydrogens summed into heavy atoms:
               1
     1  C    0.218626
     2  O   -0.435386
     3  C    0.860426
     4  C   -0.359619
     5  C    0.258163
     6  C   -0.287801
     7  C    0.436366
     8  N   -0.690775
 Charge=  -0.00000 Dipole=    -0.1877     2.9964     0.0002 Tot=     3.0023
 -----------------------------------------------------------------

              Electrostatic Properties (Atomic Units)

 -----------------------------------------------------------------
    Center     Electric         -------- Electric Field --------
               Potential          X             Y             Z
 -----------------------------------------------------------------
    1 Atom    -14.708380
    2 Atom    -22.321694
    3 Atom    -14.674636
    4 Atom    -14.759295
    5 Atom    -14.748449
    6 Atom    -14.767753
    7 Atom    -14.734375
    8 Atom    -18.405845
    9 Atom     -1.100444
   10 Atom     -1.100113
   11 Atom     -1.100445
   12 Atom     -1.087920
   13 Atom     -1.090856
   14 Atom     -1.097668
   15 Atom     -1.107773
 -----------------------------------------------------------------
 Unable to Open any file for archive entry.
 1\1\GINC-NOTCH141\SP\RwB97XD\def2TZVP\C6H7N1O1\U1112142\19-Dec-2025\0\
 \#N Guess=Read Geom=Check Integral(Ultrafine) Density Pop=(ChelpG,Read
 Radii) NMR wB97XD def2TZVP\\Py5_2\\0,1\C,0,2.5992713403,0.9458023381,-
 0.0001599385\O,0,1.8335188412,-0.2279173835,-0.0000115353\C,0,0.493674
 5845,-0.1417145797,-0.0000378899\C,0,-0.2048351916,1.0788839048,-0.000
 0901178\C,0,-1.5950941669,1.0316802908,-0.0001050011\C,0,-2.2424268726
 ,-0.2010121379,-0.000062551\C,0,-1.4448573719,-1.3446222257,-0.0000044
 872\N,0,-0.1175961474,-1.3187985213,0.0000068801\H,0,2.4115177656,1.55
 95386412,-0.8984581342\H,0,3.6503757254,0.6334247612,-0.0001951\H,0,2.
 4116269011,1.5596944352,0.8980555382\H,0,0.3108811577,2.0383277219,-0.
 0001132252\H,0,-2.1678144544,1.9620349179,-0.0001448146\H,0,-3.3302615
 766,-0.277817856,-0.0000721574\H,0,-1.9069905345,-2.338324307,0.000032
 5339\\Version=ES64L-G16RevC.01\State=1-A\HF=-362.824218\RMSD=3.056e-09
 \Dipole=-0.187423,1.1734441,-0.0000966\Quadrupole=4.4526567,-1.0400631
 ,-3.4125936,3.6629628,-0.0003483,-0.0000516\PG=C01 [X(C6H7N1O1)]\\@
 The archive entry for this job was punched.


 PENOTUS DIED A HUNDRED YEARS OLD WANTING BUT TWO...
 AND HE USED TO SAY BEFORE HE DIED, HAVING SPENT HIS
 WHOLE LIFE IN VAINLY SEARCHING AFTER THE PHILOSOPHER'S
 STONE, THAT IF HE HAD A MORTAL ENEMY HE DID NOT DARE
 TO ENCOUNTER OPENLY, HE WOULD ADVISE HIM ABOVE ALL
 THINGS TO GIVE HIMSELF UP TO THE STUDY AND PRACTICE
 OF ALCHEMY.  --  NICOLAS LEMERY, M.D.
 "A COURSE OF CHYMISTRY", WALTER KETTILBY, LONDON, 1686
 Job cpu time:       0 days  0 hours 23 minutes  7.4 seconds.
 Elapsed time:       0 days  0 hours  1 minutes 31.4 seconds.
 File lengths (MBytes):  RWF=     65 Int=      0 D2E=      0 Chk=      9 Scr=      2
 Normal termination of Gaussian 16 at Fri Dec 19 04:21:13 2025.
