 Entering Gaussian System, Link 0=g16
 Input=Py6_6.com
 Output=Py6_6.log
 Initial command:
 /uufs/chpc.utah.edu/sys/installdir/gaussian16/C01/AVX/g16/l1.exe "/scratch/general/vast/u1112142/9381410-notchpeak.peaks/Gau-161562.inp" -scrdir="/scratch/general/vast/u1112142/9381410-notchpeak.peaks/"
 Entering Link 1 = /uufs/chpc.utah.edu/sys/installdir/gaussian16/C01/AVX/g16/l1.exe PID=    161563.
  
 Copyright (c) 1988-2019, Gaussian, Inc.  All Rights Reserved.
  
 This is part of the Gaussian(R) 16 program.  It is based on
 the Gaussian(R) 09 system (copyright 2009, Gaussian, Inc.),
 the Gaussian(R) 03 system (copyright 2003, Gaussian, Inc.),
 the Gaussian(R) 98 system (copyright 1998, Gaussian, Inc.),
 the Gaussian(R) 94 system (copyright 1995, Gaussian, Inc.),
 the Gaussian 92(TM) system (copyright 1992, Gaussian, Inc.),
 the Gaussian 90(TM) system (copyright 1990, Gaussian, Inc.),
 the Gaussian 88(TM) system (copyright 1988, Gaussian, Inc.),
 the Gaussian 86(TM) system (copyright 1986, Carnegie Mellon
 University), and the Gaussian 82(TM) system (copyright 1983,
 Carnegie Mellon University). Gaussian is a federally registered
 trademark of Gaussian, Inc.
  
 This software contains proprietary and confidential information,
 including trade secrets, belonging to Gaussian, Inc.
  
 This software is provided under written license and may be
 used, copied, transmitted, or stored only in accord with that
 written license.
  
 The following legend is applicable only to US Government
 contracts under FAR:
  
                    RESTRICTED RIGHTS LEGEND
  
 Use, reproduction and disclosure by the US Government is
 subject to restrictions as set forth in subparagraphs (a)
 and (c) of the Commercial Computer Software - Restricted
 Rights clause in FAR 52.227-19.
  
 Gaussian, Inc.
 340 Quinnipiac St., Bldg. 40, Wallingford CT 06492
  
  
 ---------------------------------------------------------------
 Warning -- This program may not be used in any manner that
 competes with the business of Gaussian, Inc. or will provide
 assistance to any competitor of Gaussian, Inc.  The licensee
 of this program is prohibited from giving any competitor of
 Gaussian, Inc. access to this program.  By using this program,
 the user acknowledges that Gaussian, Inc. is engaged in the
 business of creating and licensing software in the field of
 computational chemistry and represents and warrants to the
 licensee that it is not a competitor of Gaussian, Inc. and that
 it will not use this program in any manner prohibited above.
 ---------------------------------------------------------------
  

 Cite this work as:
 Gaussian 16, Revision C.01,
 M. J. Frisch, G. W. Trucks, H. B. Schlegel, G. E. Scuseria, 
 M. A. Robb, J. R. Cheeseman, G. Scalmani, V. Barone, 
 G. A. Petersson, H. Nakatsuji, X. Li, M. Caricato, A. V. Marenich, 
 J. Bloino, B. G. Janesko, R. Gomperts, B. Mennucci, H. P. Hratchian, 
 J. V. Ortiz, A. F. Izmaylov, J. L. Sonnenberg, D. Williams-Young, 
 F. Ding, F. Lipparini, F. Egidi, J. Goings, B. Peng, A. Petrone, 
 T. Henderson, D. Ranasinghe, V. G. Zakrzewski, J. Gao, N. Rega, 
 G. Zheng, W. Liang, M. Hada, M. Ehara, K. Toyota, R. Fukuda, 
 J. Hasegawa, M. Ishida, T. Nakajima, Y. Honda, O. Kitao, H. Nakai, 
 T. Vreven, K. Throssell, J. A. Montgomery, Jr., J. E. Peralta, 
 F. Ogliaro, M. J. Bearpark, J. J. Heyd, E. N. Brothers, K. N. Kudin, 
 V. N. Staroverov, T. A. Keith, R. Kobayashi, J. Normand, 
 K. Raghavachari, A. P. Rendell, J. C. Burant, S. S. Iyengar, 
 J. Tomasi, M. Cossi, J. M. Millam, M. Klene, C. Adamo, R. Cammi, 
 J. W. Ochterski, R. L. Martin, K. Morokuma, O. Farkas, 
 J. B. Foresman, and D. J. Fox, Gaussian, Inc., Wallingford CT, 2019.
 
 ******************************************
 Gaussian 16:  ES64L-G16RevC.01  3-Jul-2019
                19-Dec-2025 
 ******************************************
 %NProcShared=16
 Will use up to   16 processors via shared memory.
 %Mem=40GB
 %chk=Py6_6.chk
 ------------------------------------------------------
 #N OPT FREQ=NORAMAN Integral(Ultrafine) wB97XD def2SVP
 ------------------------------------------------------
 1/18=20,19=15,26=4,38=1/1,3;
 2/9=110,12=2,17=6,18=5,40=1/2;
 3/5=43,7=101,11=2,25=1,30=1,71=1,74=-58,75=-5/1,2,3;
 4//1;
 5/5=2,38=5/2;
 6/7=2,8=2,9=2,10=2,28=1/1;
 7//1,2,3,16;
 1/18=20,19=15,26=4/3(2);
 2/9=110/2;
 99//99;
 2/9=110/2;
 3/5=43,7=101,11=2,25=1,30=1,71=1,74=-58,75=-5/1,2,3;
 4/5=5,16=3,69=1/1;
 5/5=2,38=5/2;
 7//1,2,3,16;
 1/18=20,19=15,26=4/3(-5);
 2/9=110/2;
 6/7=2,8=2,9=2,10=2,19=2,28=1/1;
 99/9=1/99;
 -----
 Py6_6
 -----
 Symbolic Z-matrix:
 Charge =  0 Multiplicity = 1
 C                    -1.23898   0.36023   0.57582 
 C                     0.00815   0.54255   1.40574 
 C                     1.23982   0.12015   0.6565 
 C                     1.90962   1.02129  -0.1594 
 C                     3.02805   0.62874  -0.87243 
 C                     3.48938  -0.67289  -0.77845 
 C                     2.82557  -1.57868   0.0306 
 C                     1.70747  -1.18348   0.74275 
 C                    -2.46789   0.83507   1.03295 
 C                    -3.5903    0.64352   0.24882 
 C                    -3.454    -0.01285  -0.96588 
 C                    -2.18994  -0.44628  -1.32957 
 N                    -1.11469  -0.26724  -0.58319 
 H                    -0.09831  -0.05015   2.31917 
 H                     0.08204   1.59355   1.69813 
 H                     1.55101   2.03811  -0.23839 
 H                     3.54108   1.33998  -1.50379 
 H                     4.36295  -0.98043  -1.33465 
 H                     3.1802   -2.59655   0.10653 
 H                     1.18987  -1.89528   1.37004 
 H                    -2.535     1.34269   1.98403 
 H                    -4.55657   1.00034   0.57688 
 H                    -4.30383  -0.18155  -1.60869 
 H                    -2.02093  -0.96405  -2.26516 
 

 GradGradGradGradGradGradGradGradGradGradGradGradGradGradGradGradGradGrad
 Berny optimization.
 Initialization pass.
                           ----------------------------
                           !    Initial Parameters    !
                           ! (Angstroms and Degrees)  !
 --------------------------                            --------------------------
 ! Name  Definition              Value          Derivative Info.                !
 --------------------------------------------------------------------------------
 ! R1    R(1,2)                  1.5091         estimate D2E/DX2                !
 ! R2    R(1,9)                  1.3945         estimate D2E/DX2                !
 ! R3    R(1,13)                 1.3238         estimate D2E/DX2                !
 ! R4    R(2,3)                  1.5023         estimate D2E/DX2                !
 ! R5    R(2,14)                 1.0941         estimate D2E/DX2                !
 ! R6    R(2,15)                 1.0934         estimate D2E/DX2                !
 ! R7    R(3,4)                  1.3879         estimate D2E/DX2                !
 ! R8    R(3,8)                  1.3877         estimate D2E/DX2                !
 ! R9    R(4,5)                  1.3833         estimate D2E/DX2                !
 ! R10   R(4,16)                 1.0811         estimate D2E/DX2                !
 ! R11   R(5,6)                  1.3842         estimate D2E/DX2                !
 ! R12   R(5,17)                 1.0806         estimate D2E/DX2                !
 ! R13   R(6,7)                  1.3841         estimate D2E/DX2                !
 ! R14   R(6,18)                 1.0803         estimate D2E/DX2                !
 ! R15   R(7,8)                  1.3833         estimate D2E/DX2                !
 ! R16   R(7,19)                 1.0805         estimate D2E/DX2                !
 ! R17   R(8,20)                 1.0808         estimate D2E/DX2                !
 ! R18   R(9,10)                 1.3825         estimate D2E/DX2                !
 ! R19   R(9,21)                 1.0802         estimate D2E/DX2                !
 ! R20   R(10,11)                1.3874         estimate D2E/DX2                !
 ! R21   R(10,22)                1.081          estimate D2E/DX2                !
 ! R22   R(11,12)                1.3849         estimate D2E/DX2                !
 ! R23   R(11,23)                1.0788         estimate D2E/DX2                !
 ! R24   R(12,13)                1.3211         estimate D2E/DX2                !
 ! R25   R(12,24)                1.0826         estimate D2E/DX2                !
 ! A1    A(2,1,9)              120.4549         estimate D2E/DX2                !
 ! A2    A(2,1,13)             117.462          estimate D2E/DX2                !
 ! A3    A(9,1,13)             122.0821         estimate D2E/DX2                !
 ! A4    A(1,2,3)              111.6728         estimate D2E/DX2                !
 ! A5    A(1,2,14)             108.2572         estimate D2E/DX2                !
 ! A6    A(1,2,15)             108.6047         estimate D2E/DX2                !
 ! A7    A(3,2,14)             110.1117         estimate D2E/DX2                !
 ! A8    A(3,2,15)             110.3792         estimate D2E/DX2                !
 ! A9    A(14,2,15)            107.7006         estimate D2E/DX2                !
 ! A10   A(2,3,4)              120.4169         estimate D2E/DX2                !
 ! A11   A(2,3,8)              120.6275         estimate D2E/DX2                !
 ! A12   A(4,3,8)              118.9374         estimate D2E/DX2                !
 ! A13   A(3,4,5)              120.5947         estimate D2E/DX2                !
 ! A14   A(3,4,16)             119.5733         estimate D2E/DX2                !
 ! A15   A(5,4,16)             119.8319         estimate D2E/DX2                !
 ! A16   A(4,5,6)              120.0894         estimate D2E/DX2                !
 ! A17   A(4,5,17)             119.8851         estimate D2E/DX2                !
 ! A18   A(6,5,17)             120.0254         estimate D2E/DX2                !
 ! A19   A(5,6,7)              119.6867         estimate D2E/DX2                !
 ! A20   A(5,6,18)             120.1495         estimate D2E/DX2                !
 ! A21   A(7,6,18)             120.1638         estimate D2E/DX2                !
 ! A22   A(6,7,8)              120.1077         estimate D2E/DX2                !
 ! A23   A(6,7,19)             120.0098         estimate D2E/DX2                !
 ! A24   A(8,7,19)             119.8825         estimate D2E/DX2                !
 ! A25   A(3,8,7)              120.5838         estimate D2E/DX2                !
 ! A26   A(3,8,20)             119.5644         estimate D2E/DX2                !
 ! A27   A(7,8,20)             119.8515         estimate D2E/DX2                !
 ! A28   A(1,9,10)             118.8389         estimate D2E/DX2                !
 ! A29   A(1,9,21)             120.2257         estimate D2E/DX2                !
 ! A30   A(10,9,21)            120.9354         estimate D2E/DX2                !
 ! A31   A(9,10,11)            118.8398         estimate D2E/DX2                !
 ! A32   A(9,10,22)            120.5189         estimate D2E/DX2                !
 ! A33   A(11,10,22)           120.6413         estimate D2E/DX2                !
 ! A34   A(10,11,12)           117.8818         estimate D2E/DX2                !
 ! A35   A(10,11,23)           121.2156         estimate D2E/DX2                !
 ! A36   A(12,11,23)           120.9026         estimate D2E/DX2                !
 ! A37   A(11,12,13)           123.5113         estimate D2E/DX2                !
 ! A38   A(11,12,24)           121.274          estimate D2E/DX2                !
 ! A39   A(13,12,24)           115.2147         estimate D2E/DX2                !
 ! A40   A(1,13,12)            118.846          estimate D2E/DX2                !
 ! D1    D(9,1,2,3)           -172.6802         estimate D2E/DX2                !
 ! D2    D(9,1,2,14)            65.9393         estimate D2E/DX2                !
 ! D3    D(9,1,2,15)           -50.7315         estimate D2E/DX2                !
 ! D4    D(13,1,2,3)             7.6699         estimate D2E/DX2                !
 ! D5    D(13,1,2,14)         -113.7106         estimate D2E/DX2                !
 ! D6    D(13,1,2,15)          129.6187         estimate D2E/DX2                !
 ! D7    D(2,1,9,10)          -179.6532         estimate D2E/DX2                !
 ! D8    D(2,1,9,21)             0.3367         estimate D2E/DX2                !
 ! D9    D(13,1,9,10)           -0.0199         estimate D2E/DX2                !
 ! D10   D(13,1,9,21)          179.97           estimate D2E/DX2                !
 ! D11   D(2,1,13,12)          179.7486         estimate D2E/DX2                !
 ! D12   D(9,1,13,12)            0.1048         estimate D2E/DX2                !
 ! D13   D(1,2,3,4)             87.6396         estimate D2E/DX2                !
 ! D14   D(1,2,3,8)            -90.7915         estimate D2E/DX2                !
 ! D15   D(14,2,3,4)          -152.0606         estimate D2E/DX2                !
 ! D16   D(14,2,3,8)            29.5083         estimate D2E/DX2                !
 ! D17   D(15,2,3,4)           -33.2814         estimate D2E/DX2                !
 ! D18   D(15,2,3,8)           148.2875         estimate D2E/DX2                !
 ! D19   D(2,3,4,5)           -178.6609         estimate D2E/DX2                !
 ! D20   D(2,3,4,16)             1.2136         estimate D2E/DX2                !
 ! D21   D(8,3,4,5)             -0.2036         estimate D2E/DX2                !
 ! D22   D(8,3,4,16)           179.671          estimate D2E/DX2                !
 ! D23   D(2,3,8,7)            178.6476         estimate D2E/DX2                !
 ! D24   D(2,3,8,20)            -1.1506         estimate D2E/DX2                !
 ! D25   D(4,3,8,7)              0.1936         estimate D2E/DX2                !
 ! D26   D(4,3,8,20)          -179.6046         estimate D2E/DX2                !
 ! D27   D(3,4,5,6)              0.073          estimate D2E/DX2                !
 ! D28   D(3,4,5,17)          -179.9639         estimate D2E/DX2                !
 ! D29   D(16,4,5,6)          -179.8012         estimate D2E/DX2                !
 ! D30   D(16,4,5,17)            0.1619         estimate D2E/DX2                !
 ! D31   D(4,5,6,7)              0.0704         estimate D2E/DX2                !
 ! D32   D(4,5,6,18)          -179.9808         estimate D2E/DX2                !
 ! D33   D(17,5,6,7)          -179.8926         estimate D2E/DX2                !
 ! D34   D(17,5,6,18)            0.0562         estimate D2E/DX2                !
 ! D35   D(5,6,7,8)             -0.0803         estimate D2E/DX2                !
 ! D36   D(5,6,7,19)           179.8967         estimate D2E/DX2                !
 ! D37   D(18,6,7,8)           179.9708         estimate D2E/DX2                !
 ! D38   D(18,6,7,19)           -0.0521         estimate D2E/DX2                !
 ! D39   D(6,7,8,3)             -0.053          estimate D2E/DX2                !
 ! D40   D(6,7,8,20)           179.7445         estimate D2E/DX2                !
 ! D41   D(19,7,8,3)           179.9699         estimate D2E/DX2                !
 ! D42   D(19,7,8,20)           -0.2326         estimate D2E/DX2                !
 ! D43   D(1,9,10,11)           -0.0803         estimate D2E/DX2                !
 ! D44   D(1,9,10,22)          179.9885         estimate D2E/DX2                !
 ! D45   D(21,9,10,11)         179.9299         estimate D2E/DX2                !
 ! D46   D(21,9,10,22)          -0.0014         estimate D2E/DX2                !
 ! D47   D(9,10,11,12)           0.0935         estimate D2E/DX2                !
 ! D48   D(9,10,11,23)        -179.9016         estimate D2E/DX2                !
 ! D49   D(22,10,11,12)       -179.9753         estimate D2E/DX2                !
 ! D50   D(22,10,11,23)          0.0296         estimate D2E/DX2                !
 ! D51   D(10,11,12,13)         -0.0088         estimate D2E/DX2                !
 ! D52   D(10,11,12,24)       -179.9902         estimate D2E/DX2                !
 ! D53   D(23,11,12,13)        179.9863         estimate D2E/DX2                !
 ! D54   D(23,11,12,24)          0.005          estimate D2E/DX2                !
 ! D55   D(11,12,13,1)          -0.0909         estimate D2E/DX2                !
 ! D56   D(24,12,13,1)         179.8915         estimate D2E/DX2                !
 --------------------------------------------------------------------------------
 Trust Radius=3.00D-01 FncErr=1.00D-07 GrdErr=1.00D-06 EigMax=2.50D+02 EigMin=1.00D-04
 Number of steps in this run=    131 maximum allowed number of steps=    144.
 GradGradGradGradGradGradGradGradGradGradGradGradGradGradGradGradGradGrad

                          Input orientation:                          
 ---------------------------------------------------------------------
 Center     Atomic      Atomic             Coordinates (Angstroms)
 Number     Number       Type             X           Y           Z
 ---------------------------------------------------------------------
      1          6           0       -1.238980    0.360230    0.575820
      2          6           0        0.008150    0.542550    1.405740
      3          6           0        1.239820    0.120150    0.656500
      4          6           0        1.909620    1.021290   -0.159400
      5          6           0        3.028050    0.628740   -0.872430
      6          6           0        3.489380   -0.672890   -0.778450
      7          6           0        2.825570   -1.578680    0.030600
      8          6           0        1.707470   -1.183480    0.742750
      9          6           0       -2.467890    0.835070    1.032950
     10          6           0       -3.590300    0.643520    0.248820
     11          6           0       -3.454000   -0.012850   -0.965880
     12          6           0       -2.189940   -0.446280   -1.329570
     13          7           0       -1.114690   -0.267240   -0.583190
     14          1           0       -0.098310   -0.050150    2.319170
     15          1           0        0.082040    1.593550    1.698130
     16          1           0        1.551010    2.038110   -0.238390
     17          1           0        3.541080    1.339980   -1.503790
     18          1           0        4.362950   -0.980430   -1.334650
     19          1           0        3.180200   -2.596550    0.106530
     20          1           0        1.189870   -1.895280    1.370040
     21          1           0       -2.535000    1.342690    1.984030
     22          1           0       -4.556570    1.000340    0.576880
     23          1           0       -4.303830   -0.181550   -1.608690
     24          1           0       -2.020930   -0.964050   -2.265160
 ---------------------------------------------------------------------
                    Distance matrix (angstroms):
                    1          2          3          4          5
     1  C    0.000000
     2  C    1.509086   0.000000
     3  C    2.491706   1.502263   0.000000
     4  C    3.300186   2.508873   1.387940   0.000000
     5  C    4.514097   3.783819   2.407085   1.383254   0.000000
     6  C    5.025811   4.285667   2.783615   2.397730   1.384160
     7  C    4.536210   3.785298   2.406736   2.763134   2.393567
     8  C    3.330537   2.511259   1.387655   2.390763   2.763490
     9  C    1.394511   2.520975   3.794725   4.540812   5.820516
    10  C    2.390792   3.781204   4.875467   5.527972   6.712673
    11  C    2.724397   4.233147   4.968073   5.521619   6.514395
    12  C    2.277124   3.645724   4.003570   4.508819   5.347155
    13  N    1.323809   2.423298   2.688981   3.314568   4.248380
    14  H    2.123396   1.094066   2.141043   3.364978   4.518996
    15  H    2.127381   1.093413   2.143911   2.667948   4.027110
    16  H    3.355930   2.705602   2.139214   1.081094   2.137751
    17  H    5.304117   4.645735   3.383879   2.137898   1.080591
    18  H    6.068681   5.365956   3.863922   3.377414   2.141269
    19  H    5.337784   4.647988   3.383489   3.843678   3.374020
    20  H    3.408434   2.709382   2.138596   3.370995   3.844250
    21  H    2.151267   2.728050   4.184042   4.944920   6.294173
    22  H    3.378779   4.661893   5.863379   6.508007   7.730786
    23  H    3.802488   5.310770   5.996179   6.492629   7.413172
    24  H    3.230531   4.456738   4.510441   4.881088   5.474384
                    6          7          8          9         10
     6  C    0.000000
     7  C    1.384074   0.000000
     8  C    2.397906   1.383289   0.000000
     9  C    6.406573   5.903526   4.646761   0.000000
    10  C    7.273932   6.793319   5.625679   1.382518   0.000000
    11  C    6.977199   6.548114   5.561525   2.384681   1.387406
    12  C    5.710496   5.318621   4.475241   2.701965   2.374866
    13  N    4.626028   4.197888   3.249954   2.378686   2.765930
    14  H    4.780646   4.015349   2.651486   2.837761   4.118437
    15  H    4.783322   4.513386   3.356586   2.742243   4.060682
    16  H    3.376161   3.844220   3.371314   4.383511   5.349329
    17  H    2.140195   3.374149   3.844076   6.541995   7.376536
    18  H    1.080307   2.141343   3.377631   7.453989   8.270355
    19  H    2.139918   1.080549   2.137867   6.673469   7.507195
    20  H    3.376091   2.137721   1.080769   4.576860   5.527447
    21  H    6.927266   6.409836   5.091254   1.080155   2.147894
    22  H    8.329101   7.838734   6.635871   2.144271   1.081028
    23  H    7.852696   7.447657   6.532141   3.373789   2.154114
    24  H    5.714770   5.397856   4.795481   3.783403   3.371543
                   11         12         13         14         15
    11  C    0.000000
    12  C    1.384911   0.000000
    13  N    2.384017   1.321098   0.000000
    14  H    4.696126   4.224351   3.082831   0.000000
    15  H    4.709676   4.299973   3.177912   1.766343   0.000000
    16  H    5.457637   4.621426   3.541113   3.690826   2.470955
    17  H    7.144973   6.005470   5.010674   5.458264   4.720333
    18  H    7.885234   6.574626   5.574753   5.841118   5.843742
    19  H    7.199874   5.960239   4.934316   4.704100   5.448736
    20  H    5.528616   4.561865   3.431708   2.442286   3.675169
    21  H    3.374021   3.781458   3.346606   2.826620   2.644535
    22  H    2.149959   3.365739   3.846955   4.900529   4.808929
    23  H    1.078831   2.148609   3.351061   5.756018   5.772512
    24  H    2.155597   1.082580   2.033676   5.054479   5.164443
                   16         17         18         19         20
    16  H    0.000000
    17  H    2.459472   0.000000
    18  H    4.268533   2.467465   0.000000
    19  H    4.924764   4.268446   2.467335   0.000000
    20  H    4.264859   4.924834   4.268575   2.459604   0.000000
    21  H    4.703003   7.005972   7.999515   7.190697   4.973539
    22  H    6.248533   8.367585   9.334626   8.544967   6.483463
    23  H    6.409662   7.991788   8.707835   8.048907   6.480003
    24  H    5.087191   6.068294   6.451360   5.944890   4.938735
                   21         22         23         24
    21  H    0.000000
    22  H    2.486769   0.000000
    23  H    4.284823   2.497490   0.000000
    24  H    4.862194   4.285498   2.500978   0.000000
 Stoichiometry    C12H11N
 Framework group  C1[X(C12H11N)]
 Deg. of freedom    66
 Full point group                 C1      NOp   1
 Largest Abelian subgroup         C1      NOp   1
 Largest concise Abelian subgroup C1      NOp   1
                         Standard orientation:                         
 ---------------------------------------------------------------------
 Center     Atomic      Atomic             Coordinates (Angstroms)
 Number     Number       Type             X           Y           Z
 ---------------------------------------------------------------------
      1          6           0       -1.289111   -0.569294   -0.079180
      2          6           0       -0.094585   -1.485240   -0.186377
      3          6           0        1.197638   -0.726366   -0.081185
      4          6           0        1.768435   -0.479263    1.159585
      5          6           0        2.943747    0.242829    1.262623
      6          6           0        3.562064    0.728335    0.123384
      7          6           0        2.997952    0.488956   -1.117639
      8          6           0        1.822656   -0.233618   -1.217907
      9          6           0       -2.578259   -1.095195   -0.000523
     10          6           0       -3.649009   -0.225274    0.089411
     11          6           0       -3.402935    1.140095    0.099922
     12          6           0       -2.086317    1.561551    0.017034
     13          7           0       -1.059885    0.734491   -0.070769
     14          1           0       -0.147555   -2.006633   -1.146754
     15          1           0       -0.159794   -2.237567    0.604385
     16          1           0        1.287306   -0.853762    2.052349
     17          1           0        3.378467    0.427991    2.234432
     18          1           0        4.480162    1.292132    0.202706
     19          1           0        3.475337    0.866959   -2.010278
     20          1           0        1.383570   -0.414567   -2.188743
     21          1           0       -2.730852   -2.164473   -0.010338
     22          1           0       -4.659830   -0.603428    0.151542
     23          1           0       -4.209527    1.853059    0.170406
     24          1           0       -1.831749    2.613767    0.020786
 ---------------------------------------------------------------------
 Rotational constants (GHZ):           2.1546297           0.4542664           0.4323380
 Standard basis: def2SVP (5D, 7F)
 There are   250 symmetry adapted cartesian basis functions of A   symmetry.
 There are   237 symmetry adapted basis functions of A   symmetry.
   237 basis functions,   402 primitive gaussians,   250 cartesian basis functions
    45 alpha electrons       45 beta electrons
       nuclear repulsion energy       705.3208286460 Hartrees.
 NAtoms=   24 NActive=   24 NUniq=   24 SFac= 1.00D+00 NAtFMM=   60 NAOKFM=F Big=F
 Integral buffers will be    131072 words long.
 Raffenetti 2 integral format.
 Two-electron integral symmetry is turned on.
 Nuclear repulsion after empirical dispersion term =      705.3070347501 Hartrees.
 One-electron integrals computed using PRISM.
   1 Symmetry operations used in ECPInt.
 ECPInt:  NShTT=    6216 NPrTT=   22568 LenC2=    5957 LenP2D=   16152.
 LDataN:  DoStor=T MaxTD1= 4 Len=   56
 NBasis=   237 RedAO= T EigKep=  2.68D-04  NBF=   237
 NBsUse=   237 1.00D-06 EigRej= -1.00D+00 NBFU=   237
 ExpMin= 1.22D-01 ExpMax= 1.71D+03 ExpMxC= 2.58D+02 IAcc=3 IRadAn=         5 AccDes= 0.00D+00
 Harris functional with IExCor= 4639 and IRadAn=       5 diagonalized for initial guess.
 HarFok:  IExCor= 4639 AccDes= 0.00D+00 IRadAn=         5 IDoV= 1 UseB2=F ITyADJ=14
 ICtDFT=  3500011 ScaDFX=  1.000000  1.000000  1.000000  1.000000
 FoFCou: FMM=F IPFlag=           0 FMFlag=      100000 FMFlg1=           0
         NFxFlg=           0 DoJE=T BraDBF=F KetDBF=T FulRan=T
         wScrn=  0.000000 ICntrl=       500 IOpCl=  0 I1Cent=   200000004 NGrid=           0
         NMat0=    1 NMatS0=      1 NMatT0=    0 NMatD0=    1 NMtDS0=    0 NMtDT0=    0
 Petite list used in FoFCou.
 Requested convergence on RMS density matrix=1.00D-08 within 128 cycles.
 Requested convergence on MAX density matrix=1.00D-06.
 Requested convergence on             energy=1.00D-06.
 No special actions if energy rises.
 Integral accuracy reduced to 1.0D-05 until final iterations.
 Initial convergence to 1.0D-05 achieved.  Increase integral accuracy.
 SCF Done:  E(RwB97XD) =  -518.102992572     A.U. after   14 cycles
            NFock= 14  Conv=0.75D-08     -V/T= 2.0103

 **********************************************************************

            Population analysis using the SCF Density.

 **********************************************************************

 Orbital symmetries:
       Occupied  (A) (A) (A) (A) (A) (A) (A) (A) (A) (A) (A) (A)
                 (A) (A) (A) (A) (A) (A) (A) (A) (A) (A) (A) (A)
                 (A) (A) (A) (A) (A) (A) (A) (A) (A) (A) (A) (A)
                 (A) (A) (A) (A) (A) (A) (A) (A) (A)
       Virtual   (A) (A) (A) (A) (A) (A) (A) (A) (A) (A) (A) (A)
                 (A) (A) (A) (A) (A) (A) (A) (A) (A) (A) (A) (A)
                 (A) (A) (A) (A) (A) (A) (A) (A) (A) (A) (A) (A)
                 (A) (A) (A) (A) (A) (A) (A) (A) (A) (A) (A) (A)
                 (A) (A) (A) (A) (A) (A) (A) (A) (A) (A) (A) (A)
                 (A) (A) (A) (A) (A) (A) (A) (A) (A) (A) (A) (A)
                 (A) (A) (A) (A) (A) (A) (A) (A) (A) (A) (A) (A)
                 (A) (A) (A) (A) (A) (A) (A) (A) (A) (A) (A) (A)
                 (A) (A) (A) (A) (A) (A) (A) (A) (A) (A) (A) (A)
                 (A) (A) (A) (A) (A) (A) (A) (A) (A) (A) (A) (A)
                 (A) (A) (A) (A) (A) (A) (A) (A) (A) (A) (A) (A)
                 (A) (A) (A) (A) (A) (A) (A) (A) (A) (A) (A) (A)
                 (A) (A) (A) (A) (A) (A) (A) (A) (A) (A) (A) (A)
                 (A) (A) (A) (A) (A) (A) (A) (A) (A) (A) (A) (A)
                 (A) (A) (A) (A) (A) (A) (A) (A) (A) (A) (A) (A)
                 (A) (A) (A) (A) (A) (A) (A) (A) (A) (A) (A) (A)
 The electronic state is 1-A.
 Alpha  occ. eigenvalues --  -14.43280 -10.33996 -10.33093 -10.31986 -10.30715
 Alpha  occ. eigenvalues --  -10.30643 -10.30156 -10.29612 -10.28877 -10.28852
 Alpha  occ. eigenvalues --  -10.28714 -10.28669 -10.28626  -1.04679  -0.94982
 Alpha  occ. eigenvalues --   -0.90184  -0.89062  -0.84228  -0.83070  -0.78071
 Alpha  occ. eigenvalues --   -0.72590  -0.70423  -0.68904  -0.66412  -0.61430
 Alpha  occ. eigenvalues --   -0.60010  -0.57540  -0.55436  -0.54861  -0.52894
 Alpha  occ. eigenvalues --   -0.51185  -0.50825  -0.50002  -0.49753  -0.47906
 Alpha  occ. eigenvalues --   -0.46593  -0.45550  -0.43776  -0.41580  -0.41440
 Alpha  occ. eigenvalues --   -0.37199  -0.33617  -0.33560  -0.32162  -0.31144
 Alpha virt. eigenvalues --    0.04476   0.05123   0.07336   0.07730   0.14397
 Alpha virt. eigenvalues --    0.14982   0.16808   0.17962   0.18963   0.20496
 Alpha virt. eigenvalues --    0.20764   0.21959   0.23027   0.23304   0.24371
 Alpha virt. eigenvalues --    0.25656   0.26342   0.29308   0.31736   0.34405
 Alpha virt. eigenvalues --    0.36098   0.37486   0.38437   0.38778   0.39111
 Alpha virt. eigenvalues --    0.41496   0.42066   0.44039   0.46599   0.47209
 Alpha virt. eigenvalues --    0.48651   0.48906   0.50780   0.50990   0.53914
 Alpha virt. eigenvalues --    0.54126   0.54776   0.55102   0.55740   0.56941
 Alpha virt. eigenvalues --    0.58193   0.58333   0.59855   0.60470   0.61638
 Alpha virt. eigenvalues --    0.62214   0.63792   0.64846   0.65840   0.66120
 Alpha virt. eigenvalues --    0.69175   0.70322   0.71334   0.73249   0.73728
 Alpha virt. eigenvalues --    0.73856   0.74199   0.74337   0.75855   0.77209
 Alpha virt. eigenvalues --    0.77942   0.78131   0.78461   0.79111   0.80262
 Alpha virt. eigenvalues --    0.81215   0.82089   0.83050   0.83658   0.84576
 Alpha virt. eigenvalues --    0.85280   0.86493   0.88274   0.88776   0.89870
 Alpha virt. eigenvalues --    0.92238   0.93067   0.97076   1.00419   1.04201
 Alpha virt. eigenvalues --    1.06785   1.07968   1.10851   1.13514   1.15900
 Alpha virt. eigenvalues --    1.20169   1.20868   1.27377   1.27816   1.31000
 Alpha virt. eigenvalues --    1.33122   1.33565   1.34098   1.34471   1.34966
 Alpha virt. eigenvalues --    1.37633   1.39039   1.39349   1.40219   1.42120
 Alpha virt. eigenvalues --    1.43923   1.47955   1.54893   1.56515   1.59336
 Alpha virt. eigenvalues --    1.63120   1.68206   1.74032   1.76242   1.76400
 Alpha virt. eigenvalues --    1.78289   1.79753   1.80080   1.81446   1.82855
 Alpha virt. eigenvalues --    1.83938   1.85473   1.85944   1.86041   1.87123
 Alpha virt. eigenvalues --    1.87688   1.88108   1.88904   1.89861   1.90159
 Alpha virt. eigenvalues --    1.92562   1.94754   1.96222   1.97012   1.99055
 Alpha virt. eigenvalues --    2.01842   2.02649   2.04127   2.05520   2.06068
 Alpha virt. eigenvalues --    2.08453   2.09099   2.10283   2.11678   2.12333
 Alpha virt. eigenvalues --    2.16414   2.20964   2.21447   2.23968   2.24079
 Alpha virt. eigenvalues --    2.25211   2.26913   2.27224   2.30099   2.31839
 Alpha virt. eigenvalues --    2.37607   2.39151   2.40150   2.40862   2.42229
 Alpha virt. eigenvalues --    2.45185   2.45751   2.48087   2.50036   2.52116
 Alpha virt. eigenvalues --    2.54258   2.55547   2.58376   2.66459   2.67671
 Alpha virt. eigenvalues --    2.69000   2.72553   2.73094   2.74118   2.76447
 Alpha virt. eigenvalues --    2.79168   2.82103   2.83059   2.85006   2.85171
 Alpha virt. eigenvalues --    2.92061   2.94392   2.98719   3.00188   3.00662
 Alpha virt. eigenvalues --    3.01798   3.04119   3.09849   3.15094   3.21330
 Alpha virt. eigenvalues --    3.21573   3.25640   3.26052   3.38263   3.46259
 Alpha virt. eigenvalues --    3.76991   3.78139
          Condensed to atoms (all electrons):
               1          2          3          4          5          6
     1  C    5.082774   0.208285  -0.037076   0.002577  -0.000707   0.000120
     2  C    0.208285   5.064966   0.349875  -0.108227   0.014404  -0.001009
     3  C   -0.037076   0.349875   5.201500   0.295871   0.095122  -0.156603
     4  C    0.002577  -0.108227   0.295871   5.082830   0.313406   0.082668
     5  C   -0.000707   0.014404   0.095122   0.313406   5.015894   0.299435
     6  C    0.000120  -0.001009  -0.156603   0.082668   0.299435   5.074769
     7  C   -0.000558   0.013834   0.093537  -0.138327   0.079520   0.299671
     8  C   -0.001352  -0.097083   0.297558   0.074499  -0.139183   0.082707
     9  C    0.446448  -0.115274   0.011879   0.000501  -0.000009   0.000002
    10  C   -0.006537   0.005840  -0.000470  -0.000001  -0.000001   0.000000
    11  C   -0.076711   0.000156   0.000167   0.000004  -0.000003   0.000001
    12  C   -0.050914   0.007898  -0.000299   0.000081  -0.000033   0.000023
    13  N    0.598632  -0.151205  -0.002922   0.013308  -0.002031   0.000815
    14  H   -0.002985   0.343536  -0.003489   0.008834  -0.000482   0.000037
    15  H   -0.008210   0.355952  -0.010114  -0.008968   0.000535   0.000027
    16  H    0.000806  -0.015847  -0.071601   0.449510  -0.064035   0.014152
    17  H    0.000004  -0.000287   0.015754  -0.069149   0.451354  -0.071877
    18  H    0.000000   0.000025  -0.001507   0.013744  -0.067623   0.448795
    19  H   -0.000000  -0.000263   0.015872  -0.002028   0.014167  -0.072135
    20  H    0.000566  -0.016240  -0.070207   0.014641  -0.001907   0.014164
    21  H   -0.050407  -0.005688   0.000324  -0.000020   0.000003  -0.000000
    22  H    0.011553  -0.000429   0.000012   0.000000  -0.000000   0.000000
    23  H    0.000634   0.000137  -0.000005  -0.000001   0.000000  -0.000000
    24  H    0.006402   0.000205   0.000007  -0.000061   0.000025  -0.000013
               7          8          9         10         11         12
     1  C   -0.000558  -0.001352   0.446448  -0.006537  -0.076711  -0.050914
     2  C    0.013834  -0.097083  -0.115274   0.005840   0.000156   0.007898
     3  C    0.093537   0.297558   0.011879  -0.000470   0.000167  -0.000299
     4  C   -0.138327   0.074499   0.000501  -0.000001   0.000004   0.000081
     5  C    0.079520  -0.139183  -0.000009  -0.000001  -0.000003  -0.000033
     6  C    0.299671   0.082707   0.000002   0.000000   0.000001   0.000023
     7  C    5.015408   0.315694   0.000000  -0.000001  -0.000003  -0.000036
     8  C    0.315694   5.064682   0.000304   0.000023   0.000019   0.000178
     9  C    0.000000   0.000304   4.990946   0.430269   0.015718  -0.081876
    10  C   -0.000001   0.000023   0.430269   4.824725   0.415191  -0.003289
    11  C   -0.000003   0.000019   0.015718   0.415191   5.001003   0.429270
    12  C   -0.000036   0.000178  -0.081876  -0.003289   0.429270   4.734285
    13  N   -0.002352   0.017365  -0.053440  -0.040987  -0.038602   0.530335
    14  H    0.000542  -0.008645  -0.004529   0.000224   0.000019  -0.000234
    15  H   -0.000491   0.007998  -0.007253   0.000882  -0.000070  -0.000179
    16  H   -0.001853   0.014398  -0.000244   0.000011  -0.000006   0.000009
    17  H    0.014139  -0.002012  -0.000001   0.000000  -0.000000  -0.000001
    18  H   -0.067507   0.013712   0.000000  -0.000000   0.000000  -0.000000
    19  H    0.451191  -0.068887  -0.000001   0.000000  -0.000000  -0.000001
    20  H   -0.063964   0.448108  -0.000166   0.000008  -0.000002   0.000009
    21  H    0.000002  -0.000038   0.431031  -0.054713   0.011184  -0.000237
    22  H   -0.000000   0.000000  -0.056418   0.440693  -0.060845   0.009564
    23  H    0.000000  -0.000001   0.010200  -0.056007   0.425738  -0.043456
    24  H    0.000033  -0.000090   0.000516   0.006669  -0.073636   0.429892
              13         14         15         16         17         18
     1  C    0.598632  -0.002985  -0.008210   0.000806   0.000004   0.000000
     2  C   -0.151205   0.343536   0.355952  -0.015847  -0.000287   0.000025
     3  C   -0.002922  -0.003489  -0.010114  -0.071601   0.015754  -0.001507
     4  C    0.013308   0.008834  -0.008968   0.449510  -0.069149   0.013744
     5  C   -0.002031  -0.000482   0.000535  -0.064035   0.451354  -0.067623
     6  C    0.000815   0.000037   0.000027   0.014152  -0.071877   0.448795
     7  C   -0.002352   0.000542  -0.000491  -0.001853   0.014139  -0.067507
     8  C    0.017365  -0.008645   0.007998   0.014398  -0.002012   0.013712
     9  C   -0.053440  -0.004529  -0.007253  -0.000244  -0.000001   0.000000
    10  C   -0.040987   0.000224   0.000882   0.000011   0.000000  -0.000000
    11  C   -0.038602   0.000019  -0.000070  -0.000006  -0.000000   0.000000
    12  C    0.530335  -0.000234  -0.000179   0.000009  -0.000001  -0.000000
    13  N    6.261463   0.000636   0.002788   0.000660  -0.000016  -0.000000
    14  H    0.000636   0.640113  -0.021498   0.000295   0.000009  -0.000001
    15  H    0.002788  -0.021498   0.645936   0.004346  -0.000003  -0.000001
    16  H    0.000660   0.000295   0.004346   0.689734  -0.012630  -0.000256
    17  H   -0.000016   0.000009  -0.000003  -0.012630   0.679779  -0.012230
    18  H   -0.000000  -0.000001  -0.000001  -0.000256  -0.012230   0.676786
    19  H   -0.000025  -0.000005   0.000009   0.000029  -0.000249  -0.012237
    20  H    0.001076   0.004983   0.000299  -0.000244   0.000028  -0.000255
    21  H    0.005268   0.001093   0.001715  -0.000005   0.000000   0.000000
    22  H   -0.000239   0.000011   0.000013  -0.000000  -0.000000   0.000000
    23  H    0.005243  -0.000002  -0.000003  -0.000000   0.000000   0.000000
    24  H   -0.040866   0.000011   0.000009  -0.000002   0.000000  -0.000000
              19         20         21         22         23         24
     1  C   -0.000000   0.000566  -0.050407   0.011553   0.000634   0.006402
     2  C   -0.000263  -0.016240  -0.005688  -0.000429   0.000137   0.000205
     3  C    0.015872  -0.070207   0.000324   0.000012  -0.000005   0.000007
     4  C   -0.002028   0.014641  -0.000020   0.000000  -0.000001  -0.000061
     5  C    0.014167  -0.001907   0.000003  -0.000000   0.000000   0.000025
     6  C   -0.072135   0.014164  -0.000000   0.000000  -0.000000  -0.000013
     7  C    0.451191  -0.063964   0.000002  -0.000000   0.000000   0.000033
     8  C   -0.068887   0.448108  -0.000038   0.000000  -0.000001  -0.000090
     9  C   -0.000001  -0.000166   0.431031  -0.056418   0.010200   0.000516
    10  C    0.000000   0.000008  -0.054713   0.440693  -0.056007   0.006669
    11  C   -0.000000  -0.000002   0.011184  -0.060845   0.425738  -0.073636
    12  C   -0.000001   0.000009  -0.000237   0.009564  -0.043456   0.429892
    13  N   -0.000025   0.001076   0.005268  -0.000239   0.005243  -0.040866
    14  H   -0.000005   0.004983   0.001093   0.000011  -0.000002   0.000011
    15  H    0.000009   0.000299   0.001715   0.000013  -0.000003   0.000009
    16  H    0.000029  -0.000244  -0.000005  -0.000000  -0.000000  -0.000002
    17  H   -0.000249   0.000028   0.000000  -0.000000   0.000000   0.000000
    18  H   -0.012237  -0.000255   0.000000   0.000000   0.000000  -0.000000
    19  H    0.679760  -0.012641   0.000000  -0.000000   0.000000   0.000001
    20  H   -0.012641   0.689391  -0.000002  -0.000000  -0.000000  -0.000005
    21  H    0.000000  -0.000002   0.662811  -0.010667  -0.000154   0.000068
    22  H   -0.000000  -0.000000  -0.010667   0.652725  -0.010923  -0.000259
    23  H    0.000000  -0.000000  -0.000154  -0.010923   0.651006  -0.006320
    24  H    0.000001  -0.000005   0.000068  -0.000259  -0.006320   0.647863
 Mulliken charges:
               1
     1  C   -0.123343
     2  C    0.146441
     3  C   -0.023188
     4  C   -0.025691
     5  C   -0.007849
     6  C   -0.015748
     7  C   -0.008480
     8  C   -0.019954
     9  C   -0.018604
    10  C    0.037469
    11  C   -0.048592
    12  C    0.039008
    13  N   -0.104903
    14  H    0.041529
    15  H    0.036281
    16  H   -0.007226
    17  H    0.007387
    18  H    0.008555
    19  H    0.007443
    20  H   -0.007639
    21  H    0.008434
    22  H    0.025207
    23  H    0.023915
    24  H    0.029551
 Sum of Mulliken charges =  -0.00000
 Mulliken charges with hydrogens summed into heavy atoms:
               1
     1  C   -0.123343
     2  C    0.224250
     3  C   -0.023188
     4  C   -0.032918
     5  C   -0.000463
     6  C   -0.007193
     7  C   -0.001037
     8  C   -0.027593
     9  C   -0.010170
    10  C    0.062676
    11  C   -0.024677
    12  C    0.068559
    13  N   -0.104903
 Electronic spatial extent (au):  <R**2>=           2661.4357
 Charge=             -0.0000 electrons
 Dipole moment (field-independent basis, Debye):
    X=             -2.0964    Y=             -0.7405    Z=              0.0556  Tot=              2.2240
 Quadrupole moment (field-independent basis, Debye-Ang):
   XX=            -66.7306   YY=            -72.3465   ZZ=            -73.6707
   XY=              2.6555   XZ=             -0.2213   YZ=             -0.1237
 Traceless Quadrupole moment (field-independent basis, Debye-Ang):
   XX=              4.1853   YY=             -1.4306   ZZ=             -2.7548
   XY=              2.6555   XZ=             -0.2213   YZ=             -0.1237
 Octapole moment (field-independent basis, Debye-Ang**2):
  XXX=            -36.9877  YYY=              3.2946  ZZZ=             -0.7318  XYY=            -16.5864
  XXY=             18.4050  XXZ=              3.7623  XZZ=             13.3843  YZZ=             -1.0514
  YYZ=              0.1681  XYZ=             -1.4903
 Hexadecapole moment (field-independent basis, Debye-Ang**3):
 XXXX=          -2638.9588 YYYY=           -471.0728 ZZZZ=           -320.5517 XXXY=             59.3054
 XXXZ=             -6.5071 YYYX=             -7.1834 YYYZ=             -0.0157 ZZZX=              3.5303
 ZZZY=             -1.9150 XXYY=           -533.6570 XXZZ=           -536.1472 YYZZ=           -142.9663
 XXYZ=             -0.7436 YYXZ=             -2.4498 ZZXY=              8.3758
 N-N= 7.053070347501D+02 E-N=-2.610445437571D+03  KE= 5.128052711148D+02
   1 Symmetry operations used in ECPInt.
 ECPInt:  NShTT=    6216 NPrTT=   22568 LenC2=    5957 LenP2D=   16152.
 LDataN:  DoStor=T MaxTD1= 5 Len=  102
 Calling FoFJK, ICntrl=      2127 FMM=F ISym2X=0 I1Cent= 0 IOpClX= 0 NMat=1 NMatS=1 NMatT=0.
 ***** Axes restored to original set *****
 -------------------------------------------------------------------
 Center     Atomic                   Forces (Hartrees/Bohr)
 Number     Number              X              Y              Z
 -------------------------------------------------------------------
      1        6           0.000804710    0.001190546    0.002832478
      2        6           0.002176211   -0.002713561   -0.006761807
      3        6          -0.002543937    0.003376874    0.007705367
      4        6           0.000402617   -0.000099434    0.000774392
      5        6           0.000897169    0.001262865   -0.001381036
      6        6           0.001707545   -0.000639982   -0.001426942
      7        6           0.000564763   -0.001895255    0.000186455
      8        6           0.000707672    0.000556083    0.000410622
      9        6          -0.000527231   -0.000917622   -0.001933135
     10        6           0.000590424   -0.000281976   -0.000161604
     11        6           0.000237280    0.000300874    0.000748699
     12        6          -0.002049511   -0.000539765   -0.001490142
     13        7           0.005830925   -0.001401961   -0.000084310
     14        1          -0.000155037   -0.001344917    0.005634023
     15        1           0.000477435    0.004550511    0.003412370
     16        1          -0.003012822    0.008290432   -0.000644136
     17        1           0.004089875    0.005690078   -0.004926095
     18        1           0.007042794   -0.002455153   -0.004398626
     19        1           0.002792560   -0.008103427    0.000663419
     20        1          -0.004401039   -0.005815226    0.005085806
     21        1          -0.000384369    0.004181558    0.007743570
     22        1          -0.007351778    0.002771513    0.002506773
     23        1          -0.006792718   -0.001596129   -0.005710074
     24        1          -0.001103538   -0.004366928   -0.008786068
 -------------------------------------------------------------------
 Cartesian Forces:  Max     0.008786068 RMS     0.003687989

 GradGradGradGradGradGradGradGradGradGradGradGradGradGradGradGradGradGrad
 Berny optimization.
 FormGI is forming the generalized inverse of G from B-inverse, IUseBI=4.
 Internal  Forces:  Max     0.013231183 RMS     0.004447310
 Search for a local minimum.
 Step number   1 out of a maximum of  131
 All quantities printed in internal units (Hartrees-Bohrs-Radians)
 Mixed Optimization -- RFO/linear search
 Second derivative matrix not updated -- first step.
 ITU=  0
     Eigenvalues ---    0.00646   0.00736   0.01576   0.01639   0.02227
     Eigenvalues ---    0.02257   0.02261   0.02271   0.02277   0.02282
     Eigenvalues ---    0.02293   0.02295   0.02299   0.02302   0.02305
     Eigenvalues ---    0.02305   0.02316   0.02427   0.02615   0.05074
     Eigenvalues ---    0.06517   0.09837   0.13187   0.16000   0.16000
     Eigenvalues ---    0.16000   0.16000   0.16000   0.16000   0.16000
     Eigenvalues ---    0.16000   0.16000   0.21998   0.22000   0.22000
     Eigenvalues ---    0.22000   0.22426   0.23475   0.24432   0.24990
     Eigenvalues ---    0.25000   0.31442   0.32141   0.34347   0.34421
     Eigenvalues ---    0.35684   0.35863   0.35870   0.35902   0.35923
     Eigenvalues ---    0.35928   0.35957   0.35976   0.36136   0.43219
     Eigenvalues ---    0.43546   0.43578   0.45704   0.47339   0.47850
     Eigenvalues ---    0.48050   0.48270   0.48390   0.48509   0.58731
     Eigenvalues ---    0.60426
 RFO step:  Lambda=-6.56581411D-03 EMin= 6.45755103D-03
 Linear search not attempted -- first point.
 Iteration  1 RMS(Cart)=  0.09356601 RMS(Int)=  0.00079273
 Iteration  2 RMS(Cart)=  0.00280570 RMS(Int)=  0.00008207
 Iteration  3 RMS(Cart)=  0.00000508 RMS(Int)=  0.00008206
 Iteration  4 RMS(Cart)=  0.00000000 RMS(Int)=  0.00008206
 Variable       Old X    -DE/DX   Delta X   Delta X   Delta X     New X
                                 (Linear)    (Quad)   (Total)
    R1        2.85176   0.01135   0.00000   0.03535   0.03535   2.88711
    R2        2.63524   0.00827   0.00000   0.01736   0.01736   2.65261
    R3        2.50164   0.00953   0.00000   0.01588   0.01588   2.51752
    R4        2.83887   0.00569   0.00000   0.01735   0.01735   2.85621
    R5        2.06749   0.00545   0.00000   0.01556   0.01556   2.08305
    R6        2.06625   0.00532   0.00000   0.01516   0.01516   2.08141
    R7        2.62283   0.00993   0.00000   0.02043   0.02043   2.64326
    R8        2.62229   0.00989   0.00000   0.02032   0.02032   2.64261
    R9        2.61397   0.01075   0.00000   0.02187   0.02187   2.63584
   R10        2.04297   0.00884   0.00000   0.02422   0.02422   2.06719
   R11        2.61568   0.01022   0.00000   0.02096   0.02096   2.63665
   R12        2.04202   0.00857   0.00000   0.02342   0.02342   2.06544
   R13        2.61552   0.01032   0.00000   0.02116   0.02116   2.63668
   R14        2.04148   0.00866   0.00000   0.02365   0.02365   2.06513
   R15        2.61404   0.01063   0.00000   0.02162   0.02162   2.63566
   R16        2.04194   0.00860   0.00000   0.02350   0.02350   2.06544
   R17        2.04236   0.00889   0.00000   0.02432   0.02432   2.06667
   R18        2.61258   0.00796   0.00000   0.01545   0.01544   2.62802
   R19        2.04120   0.00881   0.00000   0.02404   0.02404   2.06524
   R20        2.62182   0.00712   0.00000   0.01418   0.01417   2.63599
   R21        2.04285   0.00825   0.00000   0.02258   0.02258   2.06542
   R22        2.61710   0.00689   0.00000   0.01431   0.01431   2.63141
   R23        2.03869   0.00900   0.00000   0.02447   0.02447   2.06316
   R24        2.49651   0.01323   0.00000   0.02179   0.02179   2.51830
   R25        2.04578   0.00951   0.00000   0.02617   0.02617   2.07195
    A1        2.10234  -0.00389   0.00000  -0.01539  -0.01540   2.08693
    A2        2.05010   0.00719   0.00000   0.02778   0.02777   2.07787
    A3        2.13073  -0.00331   0.00000  -0.01243  -0.01243   2.11831
    A4        1.94906   0.01268   0.00000   0.06370   0.06336   2.01242
    A5        1.88944  -0.00318   0.00000  -0.00721  -0.00754   1.88190
    A6        1.89551  -0.00322   0.00000  -0.00870  -0.00888   1.88663
    A7        1.92181  -0.00314   0.00000  -0.00970  -0.01017   1.91164
    A8        1.92648  -0.00351   0.00000  -0.01360  -0.01395   1.91253
    A9        1.87973  -0.00007   0.00000  -0.02758  -0.02794   1.85179
   A10        2.10167   0.00059   0.00000   0.00268   0.00266   2.10433
   A11        2.10535   0.00084   0.00000   0.00364   0.00362   2.10897
   A12        2.07585  -0.00143   0.00000  -0.00605  -0.00607   2.06977
   A13        2.10477   0.00103   0.00000   0.00419   0.00418   2.10896
   A14        2.08695  -0.00059   0.00000  -0.00251  -0.00251   2.08444
   A15        2.09146  -0.00045   0.00000  -0.00169  -0.00169   2.08977
   A16        2.09596  -0.00001   0.00000   0.00010   0.00010   2.09606
   A17        2.09239  -0.00004   0.00000  -0.00031  -0.00031   2.09208
   A18        2.09484   0.00005   0.00000   0.00021   0.00021   2.09505
   A19        2.08893  -0.00067   0.00000  -0.00259  -0.00260   2.08633
   A20        2.09700   0.00034   0.00000   0.00135   0.00135   2.09836
   A21        2.09725   0.00033   0.00000   0.00124   0.00124   2.09849
   A22        2.09628   0.00003   0.00000   0.00022   0.00022   2.09649
   A23        2.09457   0.00005   0.00000   0.00026   0.00026   2.09482
   A24        2.09234  -0.00008   0.00000  -0.00048  -0.00047   2.09187
   A25        2.10458   0.00104   0.00000   0.00416   0.00416   2.10874
   A26        2.08679  -0.00062   0.00000  -0.00272  -0.00272   2.08407
   A27        2.09180  -0.00041   0.00000  -0.00146  -0.00146   2.09034
   A28        2.07413   0.00222   0.00000   0.00760   0.00760   2.08173
   A29        2.09833  -0.00127   0.00000  -0.00474  -0.00474   2.09360
   A30        2.11072  -0.00095   0.00000  -0.00286  -0.00286   2.10786
   A31        2.07415   0.00089   0.00000   0.00091   0.00091   2.07505
   A32        2.10345  -0.00047   0.00000  -0.00063  -0.00063   2.10283
   A33        2.10559  -0.00041   0.00000  -0.00028  -0.00028   2.10531
   A34        2.05742  -0.00021   0.00000  -0.00198  -0.00199   2.05543
   A35        2.11561   0.00061   0.00000   0.00401   0.00402   2.11963
   A36        2.11015  -0.00040   0.00000  -0.00203  -0.00203   2.10812
   A37        2.15568  -0.00087   0.00000  -0.00224  -0.00224   2.15344
   A38        2.11663  -0.00228   0.00000  -0.01519  -0.01519   2.10144
   A39        2.01088   0.00315   0.00000   0.01743   0.01743   2.02830
   A40        2.07425   0.00128   0.00000   0.00814   0.00815   2.08241
    D1       -3.01384   0.00023   0.00000   0.01287   0.01286  -3.00098
    D2        1.15086  -0.00172   0.00000  -0.01029  -0.01038   1.14048
    D3       -0.88543   0.00181   0.00000   0.03097   0.03099  -0.85444
    D4        0.13387   0.00039   0.00000   0.01980   0.01984   0.15371
    D5       -1.98462  -0.00155   0.00000  -0.00336  -0.00340  -1.98802
    D6        2.26227   0.00198   0.00000   0.03790   0.03797   2.30024
    D7       -3.13554   0.00011   0.00000   0.00519   0.00511  -3.13043
    D8        0.00588   0.00014   0.00000   0.00631   0.00623   0.01211
    D9       -0.00035  -0.00003   0.00000  -0.00192  -0.00189  -0.00224
   D10        3.14107   0.00000   0.00000  -0.00080  -0.00077   3.14030
   D11        3.13720  -0.00018   0.00000  -0.00641  -0.00648   3.13072
   D12        0.00183  -0.00001   0.00000   0.00064   0.00063   0.00246
   D13        1.52960   0.00006   0.00000   0.00448   0.00445   1.53405
   D14       -1.58461  -0.00018   0.00000  -0.00666  -0.00672  -1.59133
   D15       -2.65396   0.00227   0.00000   0.03066   0.03062  -2.62334
   D16        0.51502   0.00203   0.00000   0.01952   0.01945   0.53447
   D17       -0.58087  -0.00196   0.00000  -0.01791  -0.01779  -0.59866
   D18        2.58810  -0.00220   0.00000  -0.02905  -0.02896   2.55915
   D19       -3.11822  -0.00001   0.00000  -0.00136  -0.00135  -3.11957
   D20        0.02118  -0.00013   0.00000  -0.00568  -0.00567   0.01551
   D21       -0.00355   0.00026   0.00000   0.00974   0.00972   0.00617
   D22        3.13585   0.00014   0.00000   0.00542   0.00540   3.14125
   D23        3.11799   0.00003   0.00000   0.00198   0.00197   3.11996
   D24       -0.02008   0.00017   0.00000   0.00708   0.00707  -0.01301
   D25        0.00338  -0.00024   0.00000  -0.00913  -0.00911  -0.00573
   D26       -3.13469  -0.00010   0.00000  -0.00403  -0.00401  -3.13870
   D27        0.00127  -0.00011   0.00000  -0.00400  -0.00401  -0.00273
   D28       -3.14096  -0.00005   0.00000  -0.00189  -0.00190   3.14032
   D29       -3.13812   0.00002   0.00000   0.00034   0.00033  -3.13779
   D30        0.00283   0.00008   0.00000   0.00244   0.00244   0.00527
   D31        0.00123  -0.00007   0.00000  -0.00248  -0.00249  -0.00126
   D32       -3.14126   0.00006   0.00000   0.00194   0.00194  -3.13931
   D33       -3.13972  -0.00013   0.00000  -0.00459  -0.00460   3.13886
   D34        0.00098  -0.00000   0.00000  -0.00017  -0.00017   0.00081
   D35       -0.00140   0.00009   0.00000   0.00309   0.00310   0.00170
   D36        3.13979   0.00008   0.00000   0.00318   0.00318  -3.14021
   D37        3.14108  -0.00004   0.00000  -0.00133  -0.00134   3.13975
   D38       -0.00091  -0.00004   0.00000  -0.00125  -0.00125  -0.00216
   D39       -0.00093   0.00007   0.00000   0.00277   0.00278   0.00186
   D40        3.13713  -0.00008   0.00000  -0.00235  -0.00234   3.13480
   D41        3.14107   0.00007   0.00000   0.00269   0.00270  -3.13942
   D42       -0.00406  -0.00008   0.00000  -0.00243  -0.00242  -0.00648
   D43       -0.00140   0.00004   0.00000   0.00159   0.00158   0.00018
   D44        3.14139   0.00004   0.00000   0.00175   0.00176  -3.14004
   D45        3.14037   0.00001   0.00000   0.00047   0.00045   3.14082
   D46       -0.00002   0.00001   0.00000   0.00063   0.00062   0.00060
   D47        0.00163  -0.00001   0.00000  -0.00013  -0.00012   0.00151
   D48       -3.13988   0.00001   0.00000   0.00022   0.00023  -3.13964
   D49       -3.14116  -0.00002   0.00000  -0.00029  -0.00030  -3.14146
   D50        0.00052  -0.00000   0.00000   0.00006   0.00006   0.00057
   D51       -0.00015  -0.00003   0.00000  -0.00121  -0.00120  -0.00135
   D52       -3.14142  -0.00000   0.00000  -0.00038  -0.00038   3.14138
   D53        3.14135  -0.00005   0.00000  -0.00156  -0.00155   3.13981
   D54        0.00009  -0.00002   0.00000  -0.00073  -0.00073  -0.00065
   D55       -0.00159   0.00004   0.00000   0.00095   0.00093  -0.00065
   D56        3.13970   0.00001   0.00000   0.00016   0.00015   3.13985
         Item               Value     Threshold  Converged?
 Maximum Force            0.013231     0.000450     NO 
 RMS     Force            0.004447     0.000300     NO 
 Maximum Displacement     0.409820     0.001800     NO 
 RMS     Displacement     0.095755     0.001200     NO 
 Predicted change in Energy=-3.366299D-03
 GradGradGradGradGradGradGradGradGradGradGradGradGradGradGradGradGradGrad

                          Input orientation:                          
 ---------------------------------------------------------------------
 Center     Atomic      Atomic             Coordinates (Angstroms)
 Number     Number       Type             X           Y           Z
 ---------------------------------------------------------------------
      1          6           0       -1.281493    0.339345    0.519388
      2          6           0       -0.000436    0.508955    1.334418
      3          6           0        1.272896    0.103280    0.628363
      4          6           0        1.970362    1.021046   -0.163944
      5          6           0        3.131716    0.645340   -0.838955
      6          6           0        3.615007   -0.658767   -0.727303
      7          6           0        2.929592   -1.580949    0.064257
      8          6           0        1.768535   -1.199864    0.736559
      9          6           0       -2.492339    0.843947    1.018985
     10          6           0       -3.657020    0.674327    0.278198
     11          6           0       -3.587117    0.005123   -0.943704
     12          6           0       -2.342268   -0.462278   -1.357098
     13          7           0       -1.225745   -0.300438   -0.647816
     14          1           0       -0.110353   -0.076939    2.261627
     15          1           0        0.069917    1.563129    1.645756
     16          1           0        1.594718    2.044074   -0.258503
     17          1           0        3.663579    1.375070   -1.454767
     18          1           0        4.525875   -0.954866   -1.253518
     19          1           0        3.301821   -2.604276    0.158384
     20          1           0        1.232329   -1.929111    1.350337
     21          1           0       -2.511672    1.364107    1.979944
     22          1           0       -4.610361    1.060544    0.647754
     23          1           0       -4.474977   -0.149715   -1.559910
     24          1           0       -2.237797   -0.994294   -2.310092
 ---------------------------------------------------------------------
                    Distance matrix (angstroms):
                    1          2          3          4          5
     1  C    0.000000
     2  C    1.527792   0.000000
     3  C    2.567587   1.511443   0.000000
     4  C    3.392081   2.528115   1.398750   0.000000
     5  C    4.627649   3.814777   2.429416   1.394826   0.000000
     6  C    5.150357   4.322695   2.811410   2.417437   1.395253
     7  C    4.650582   3.816553   2.428886   2.782548   2.411018
     8  C    3.423302   2.531157   1.398409   2.405011   2.783035
     9  C    1.403698   2.534028   3.857223   4.620214   5.926329
    10  C    2.411123   3.809666   4.975217   5.655363   6.880102
    11  C    2.751044   4.278780   5.108889   5.703130   6.750078
    12  C    2.299792   3.697530   4.163091   4.714090   5.608903
    13  N    1.332215   2.466932   2.834578   3.492213   4.463014
    14  H    2.140153   1.102302   2.147884   3.379103   4.543820
    15  H    2.143049   1.101437   2.147884   2.679656   4.048547
    16  H    3.432754   2.727361   2.157958   1.093909   2.157718
    17  H    5.424366   4.685586   3.416467   2.158366   1.092982
    18  H    6.208357   5.415503   3.904231   3.409112   2.162452
    19  H    5.459121   4.688301   3.415886   3.875518   3.403472
    20  H    3.486499   2.732056   2.157198   3.397228   3.876656
    21  H    2.167187   2.730255   4.211817   4.980217   6.349066
    22  H    3.408514   4.693311   5.960658   6.630711   7.894457
    23  H    3.842005   5.369591   6.155534   6.697895   7.682035
    24  H    3.270943   4.532990   4.707882   5.135772   5.803819
                    6          7          8          9         10
     6  C    0.000000
     7  C    1.395270   0.000000
     8  C    2.417672   1.394729   0.000000
     9  C    6.527430   6.015726   4.734129   0.000000
    10  C    7.461270   6.965307   5.758414   1.390690   0.000000
    11  C    7.235894   6.782264   5.740931   2.398815   1.394906
    12  C    5.993695   5.573526   4.671845   2.715606   2.386343
    13  N    4.854647   4.406085   3.419236   2.385813   2.778266
    14  H    4.811500   4.041256   2.667773   2.840078   4.132461
    15  H    4.809978   4.534766   3.368393   2.734085   4.068199
    16  H    3.406859   3.876449   3.397572   4.447056   5.453898
    17  H    2.160569   3.403560   3.876002   6.655589   7.555486
    18  H    1.092821   2.162552   3.409304   7.593110   8.482935
    19  H    2.160447   1.092983   2.158154   6.797291   7.693443
    20  H    3.406980   2.157758   1.093637   4.655405   5.642084
    21  H    6.996956   6.476925   5.141996   1.092877   2.164153
    22  H    8.514898   8.010546   6.768134   2.161190   1.092975
    23  H    8.148633   7.714532   6.734837   3.401312   2.174107
    24  H    6.072324   5.716958   5.037365   3.811388   3.390831
                   11         12         13         14         15
    11  C    0.000000
    12  C    1.392482   0.000000
    13  N    2.399373   1.332627   0.000000
    14  H    4.729563   4.269087   3.123925   0.000000
    15  H    4.744110   4.351786   3.226778   1.761140   0.000000
    16  H    5.610546   4.794639   3.688267   3.709045   2.486469
    17  H    7.396656   6.281368   5.231060   5.492038   4.750054
    18  H    8.175463   6.886564   5.820334   5.884013   5.882317
    19  H    7.448559   6.224194   5.143587   4.738565   5.479484
    20  H    5.677231   4.718003   3.561927   2.462476   3.692454
    21  H    3.398695   3.807916   3.365923   2.814656   2.610726
    22  H    2.166490   3.388608   3.871227   4.914114   4.811819
    23  H    1.091779   2.165012   3.378186   5.801671   5.819467
    24  H    2.164836   1.096428   2.066119   5.125249   5.245445
                   16         17         18         19         20
    16  H    0.000000
    17  H    2.481693   0.000000
    18  H    4.309917   2.492520   0.000000
    19  H    4.969422   4.309098   2.492454   0.000000
    20  H    4.301848   4.969628   4.310065   2.481813   0.000000
    21  H    4.726038   7.066193   8.084551   7.270684   5.025856
    22  H    6.347569   8.542693   9.547121   8.733442   6.600658
    23  H    6.583887   8.280829   9.041985   8.334027   6.648996
    24  H    5.303666   6.416519   6.845814   6.274774   5.129757
                   21         22         23         24
    21  H    0.000000
    22  H    2.504271   0.000000
    23  H    4.321665   2.521277   0.000000
    24  H    4.903210   4.312803   2.506205   0.000000
 Stoichiometry    C12H11N
 Framework group  C1[X(C12H11N)]
 Deg. of freedom    66
 Full point group                 C1      NOp   1
 Largest Abelian subgroup         C1      NOp   1
 Largest concise Abelian subgroup C1      NOp   1
                         Standard orientation:                         
 ---------------------------------------------------------------------
 Center     Atomic      Atomic             Coordinates (Angstroms)
 Number     Number       Type             X           Y           Z
 ---------------------------------------------------------------------
      1          6           0       -1.317632   -0.526442   -0.095272
      2          6           0       -0.076836   -1.406240   -0.238549
      3          6           0        1.245013   -0.685244   -0.106871
      4          6           0        1.838466   -0.511117    1.147720
      5          6           0        3.045161    0.176115    1.278622
      6          6           0        3.679011    0.698023    0.150536
      7          6           0        3.098059    0.525888   -1.106303
      8          6           0        1.891052   -0.161721   -1.231195
      9          6           0       -2.586515   -1.123325   -0.031743
     10          6           0       -3.712756   -0.315907    0.085197
     11          6           0       -3.547392    1.068236    0.135852
     12          6           0       -2.250329    1.569692    0.063914
     13          7           0       -1.170553    0.796799   -0.048406
     14          1           0       -0.128347   -1.904971   -1.220224
     15          1           0       -0.136828   -2.207601    0.514699
     16          1           0        1.344781   -0.914771    2.036526
     17          1           0        3.494298    0.303973    2.266821
     18          1           0        4.625569    1.234978    0.250360
     19          1           0        3.588395    0.930309   -1.995475
     20          1           0        1.437573   -0.287755   -2.218370
     21          1           0       -2.680449   -2.211361   -0.073407
     22          1           0       -4.710156   -0.759784    0.137749
     23          1           0       -4.402223    1.740949    0.229134
     24          1           0       -2.070563    2.650694    0.099581
 ---------------------------------------------------------------------
 Rotational constants (GHZ):           2.1790539           0.4272257           0.4093634
 Standard basis: def2SVP (5D, 7F)
 There are   250 symmetry adapted cartesian basis functions of A   symmetry.
 There are   237 symmetry adapted basis functions of A   symmetry.
   237 basis functions,   402 primitive gaussians,   250 cartesian basis functions
    45 alpha electrons       45 beta electrons
       nuclear repulsion energy       695.1176027963 Hartrees.
 NAtoms=   24 NActive=   24 NUniq=   24 SFac= 1.00D+00 NAtFMM=   60 NAOKFM=F Big=F
 Integral buffers will be    131072 words long.
 Raffenetti 2 integral format.
 Two-electron integral symmetry is turned on.
 Nuclear repulsion after empirical dispersion term =      695.1041600251 Hartrees.
 One-electron integrals computed using PRISM.
   1 Symmetry operations used in ECPInt.
 ECPInt:  NShTT=    6216 NPrTT=   22568 LenC2=    5929 LenP2D=   15991.
 LDataN:  DoStor=T MaxTD1= 4 Len=   56
 NBasis=   237 RedAO= T EigKep=  2.89D-04  NBF=   237
 NBsUse=   237 1.00D-06 EigRej= -1.00D+00 NBFU=   237
 Initial guess from the checkpoint file:  "Py6_6.chk"
 B after Tr=     0.000000    0.000000    0.000000
         Rot=    0.999792   -0.019712   -0.000022   -0.005169 Ang=  -2.34 deg.
 ExpMin= 1.22D-01 ExpMax= 1.71D+03 ExpMxC= 2.58D+02 IAcc=3 IRadAn=         5 AccDes= 0.00D+00
 Harris functional with IExCor= 4639 and IRadAn=       5 diagonalized for initial guess.
 HarFok:  IExCor= 4639 AccDes= 0.00D+00 IRadAn=         5 IDoV= 1 UseB2=F ITyADJ=14
 ICtDFT=  3500011 ScaDFX=  1.000000  1.000000  1.000000  1.000000
 FoFCou: FMM=F IPFlag=           0 FMFlag=      100000 FMFlg1=           0
         NFxFlg=           0 DoJE=T BraDBF=F KetDBF=T FulRan=T
         wScrn=  0.000000 ICntrl=       500 IOpCl=  0 I1Cent=   200000004 NGrid=           0
         NMat0=    1 NMatS0=      1 NMatT0=    0 NMatD0=    1 NMtDS0=    0 NMtDT0=    0
 Petite list used in FoFCou.
 Requested convergence on RMS density matrix=1.00D-08 within 128 cycles.
 Requested convergence on MAX density matrix=1.00D-06.
 Requested convergence on             energy=1.00D-06.
 No special actions if energy rises.
 Integral accuracy reduced to 1.0D-05 until final iterations.
 Initial convergence to 1.0D-05 achieved.  Increase integral accuracy.
 SCF Done:  E(RwB97XD) =  -518.105679269     A.U. after   13 cycles
            NFock= 13  Conv=0.74D-08     -V/T= 2.0114
   1 Symmetry operations used in ECPInt.
 ECPInt:  NShTT=    6216 NPrTT=   22568 LenC2=    5929 LenP2D=   15991.
 LDataN:  DoStor=T MaxTD1= 5 Len=  102
 Calling FoFJK, ICntrl=      2127 FMM=F ISym2X=0 I1Cent= 0 IOpClX= 0 NMat=1 NMatS=1 NMatT=0.
 ***** Axes restored to original set *****
 -------------------------------------------------------------------
 Center     Atomic                   Forces (Hartrees/Bohr)
 Number     Number              X              Y              Z
 -------------------------------------------------------------------
      1        6           0.000042258   -0.000891738   -0.001304565
      2        6          -0.000739446   -0.001142689   -0.003667610
      3        6          -0.002140294    0.000221235    0.000007002
      4        6           0.000371528   -0.000799651   -0.000556950
      5        6          -0.000357592   -0.000308929    0.000599211
      6        6          -0.000723980    0.000261041    0.000559279
      7        6          -0.000195479    0.000694706    0.000119209
      8        6           0.000327389    0.000144528   -0.000945104
      9        6          -0.000231830    0.000387861    0.000131516
     10        6           0.000789680    0.000000230    0.000467985
     11        6           0.000468127    0.000063213    0.000366068
     12        6           0.000414274    0.000711991    0.001301757
     13        7           0.002671840    0.000097536    0.001326783
     14        1          -0.000242120    0.000001071    0.000394460
     15        1          -0.000362764    0.000214329    0.000572998
     16        1           0.000084554   -0.000276766   -0.000071682
     17        1          -0.000252172   -0.000180835    0.000256474
     18        1          -0.000364431    0.000088348    0.000149972
     19        1          -0.000203819    0.000355056    0.000052311
     20        1           0.000093561    0.000138642   -0.000244140
     21        1          -0.000168568    0.000033599   -0.000151597
     22        1           0.000376318   -0.000033981    0.000047259
     23        1           0.000355872   -0.000024307    0.000104037
     24        1          -0.000012905    0.000245512    0.000485327
 -------------------------------------------------------------------
 Cartesian Forces:  Max     0.003667610 RMS     0.000757285

 GradGradGradGradGradGradGradGradGradGradGradGradGradGradGradGradGradGrad
 Berny optimization.
 Using GEDIIS/GDIIS optimizer.
 FormGI is forming the generalized inverse of G from B-inverse, IUseBI=4.
 Internal  Forces:  Max     0.005494034 RMS     0.000937813
 Search for a local minimum.
 Step number   2 out of a maximum of  131
 All quantities printed in internal units (Hartrees-Bohrs-Radians)
 Mixed Optimization -- En-DIIS/RFO-DIIS
 Update second derivatives using D2CorX and points    1    2
 DE= -2.69D-03 DEPred=-3.37D-03 R= 7.98D-01
 TightC=F SS=  1.41D+00  RLast= 1.58D-01 DXNew= 5.0454D-01 4.7392D-01
 Trust test= 7.98D-01 RLast= 1.58D-01 DXMaxT set to 4.74D-01
 ITU=  1  0
 Use linear search instead of GDIIS.
     Eigenvalues ---    0.00645   0.00736   0.01568   0.01636   0.02227
     Eigenvalues ---    0.02259   0.02261   0.02271   0.02277   0.02283
     Eigenvalues ---    0.02293   0.02295   0.02299   0.02302   0.02305
     Eigenvalues ---    0.02305   0.02316   0.02430   0.02616   0.04616
     Eigenvalues ---    0.06426   0.10439   0.13549   0.15959   0.15999
     Eigenvalues ---    0.16000   0.16000   0.16000   0.16000   0.16000
     Eigenvalues ---    0.16000   0.16013   0.21992   0.22000   0.22000
     Eigenvalues ---    0.22416   0.22512   0.23454   0.24596   0.24997
     Eigenvalues ---    0.25740   0.31888   0.32418   0.34338   0.34412
     Eigenvalues ---    0.35716   0.35865   0.35882   0.35907   0.35926
     Eigenvalues ---    0.35947   0.35962   0.36105   0.36885   0.43343
     Eigenvalues ---    0.43588   0.43653   0.45825   0.47205   0.47851
     Eigenvalues ---    0.48129   0.48346   0.48390   0.49674   0.60334
     Eigenvalues ---    0.60510
 RFO step:  Lambda=-1.60776480D-04 EMin= 6.45261930D-03
 Quartic linear search produced a step of -0.14101.
 Iteration  1 RMS(Cart)=  0.01945719 RMS(Int)=  0.00005339
 Iteration  2 RMS(Cart)=  0.00008787 RMS(Int)=  0.00001054
 Iteration  3 RMS(Cart)=  0.00000000 RMS(Int)=  0.00001054
 Variable       Old X    -DE/DX   Delta X   Delta X   Delta X     New X
                                 (Linear)    (Quad)   (Total)
    R1        2.88711  -0.00549  -0.00498  -0.00938  -0.01437   2.87274
    R2        2.65261  -0.00067  -0.00245   0.00151  -0.00094   2.65167
    R3        2.51752  -0.00298  -0.00224  -0.00175  -0.00399   2.51353
    R4        2.85621  -0.00288  -0.00245  -0.00494  -0.00739   2.84882
    R5        2.08305   0.00036  -0.00219   0.00337   0.00118   2.08423
    R6        2.08141   0.00034  -0.00214   0.00328   0.00114   2.08255
    R7        2.64326  -0.00087  -0.00288   0.00174  -0.00114   2.64211
    R8        2.64261  -0.00093  -0.00287   0.00162  -0.00125   2.64136
    R9        2.63584  -0.00145  -0.00308   0.00096  -0.00212   2.63371
   R10        2.06719  -0.00028  -0.00341   0.00319  -0.00022   2.06697
   R11        2.63665  -0.00103  -0.00296   0.00152  -0.00143   2.63521
   R12        2.06544  -0.00039  -0.00330   0.00281  -0.00049   2.06495
   R13        2.63668  -0.00107  -0.00298   0.00148  -0.00150   2.63518
   R14        2.06513  -0.00040  -0.00333   0.00282  -0.00051   2.06462
   R15        2.63566  -0.00138  -0.00305   0.00104  -0.00201   2.63365
   R16        2.06544  -0.00040  -0.00331   0.00280  -0.00051   2.06493
   R17        2.06667  -0.00028  -0.00343   0.00323  -0.00020   2.06647
   R18        2.62802  -0.00212  -0.00218  -0.00114  -0.00332   2.62471
   R19        2.06524  -0.00011  -0.00339   0.00357   0.00018   2.06542
   R20        2.63599  -0.00052  -0.00200   0.00151  -0.00049   2.63550
   R21        2.06542  -0.00032  -0.00318   0.00283  -0.00035   2.06507
   R22        2.63141  -0.00020  -0.00202   0.00199  -0.00003   2.63138
   R23        2.06316  -0.00034  -0.00345   0.00309  -0.00036   2.06280
   R24        2.51830  -0.00148  -0.00307   0.00138  -0.00169   2.51661
   R25        2.07195  -0.00054  -0.00369   0.00287  -0.00082   2.07113
    A1        2.08693   0.00018   0.00217  -0.00164   0.00053   2.08746
    A2        2.07787  -0.00321  -0.00392  -0.00649  -0.01040   2.06746
    A3        2.11831   0.00304   0.00175   0.00814   0.00990   2.12821
    A4        2.01242  -0.00300  -0.00893  -0.00235  -0.01124   2.00118
    A5        1.88190   0.00067   0.00106  -0.00074   0.00037   1.88227
    A6        1.88663   0.00080   0.00125   0.00112   0.00242   1.88904
    A7        1.91164   0.00107   0.00143   0.00252   0.00400   1.91564
    A8        1.91253   0.00117   0.00197   0.00385   0.00586   1.91839
    A9        1.85179  -0.00056   0.00394  -0.00476  -0.00078   1.85101
   A10        2.10433   0.00003  -0.00037   0.00047   0.00010   2.10443
   A11        2.10897  -0.00006  -0.00051   0.00028  -0.00022   2.10875
   A12        2.06977   0.00003   0.00086  -0.00078   0.00006   2.06984
   A13        2.10896  -0.00003  -0.00059   0.00061   0.00000   2.10896
   A14        2.08444   0.00006   0.00035  -0.00010   0.00025   2.08469
   A15        2.08977  -0.00003   0.00024  -0.00048  -0.00024   2.08953
   A16        2.09606  -0.00006  -0.00001  -0.00025  -0.00027   2.09579
   A17        2.09208  -0.00008   0.00004  -0.00050  -0.00046   2.09162
   A18        2.09505   0.00014  -0.00003   0.00076   0.00073   2.09578
   A19        2.08633   0.00015   0.00037   0.00012   0.00048   2.08681
   A20        2.09836  -0.00007  -0.00019  -0.00002  -0.00021   2.09814
   A21        2.09849  -0.00008  -0.00017  -0.00009  -0.00027   2.09823
   A22        2.09649  -0.00006  -0.00003  -0.00021  -0.00025   2.09624
   A23        2.09482   0.00014  -0.00004   0.00076   0.00073   2.09555
   A24        2.09187  -0.00008   0.00007  -0.00055  -0.00048   2.09139
   A25        2.10874  -0.00004  -0.00059   0.00057  -0.00003   2.10872
   A26        2.08407   0.00004   0.00038  -0.00024   0.00015   2.08422
   A27        2.09034  -0.00001   0.00021  -0.00031  -0.00010   2.09024
   A28        2.08173  -0.00100  -0.00107  -0.00248  -0.00355   2.07818
   A29        2.09360   0.00069   0.00067   0.00212   0.00279   2.09638
   A30        2.10786   0.00031   0.00040   0.00036   0.00076   2.10862
   A31        2.07505  -0.00077  -0.00013  -0.00214  -0.00227   2.07278
   A32        2.10283   0.00018   0.00009  -0.00007   0.00002   2.10285
   A33        2.10531   0.00059   0.00004   0.00220   0.00224   2.10755
   A34        2.05543   0.00043   0.00028   0.00193   0.00220   2.05764
   A35        2.11963  -0.00008  -0.00057   0.00026  -0.00031   2.11932
   A36        2.10812  -0.00036   0.00029  -0.00219  -0.00190   2.10622
   A37        2.15344   0.00064   0.00032   0.00203   0.00235   2.15579
   A38        2.10144  -0.00027   0.00214  -0.00328  -0.00114   2.10030
   A39        2.02830  -0.00036  -0.00246   0.00125  -0.00121   2.02709
   A40        2.08241  -0.00234  -0.00115  -0.00748  -0.00863   2.07377
    D1       -3.00098   0.00008  -0.00181   0.01319   0.01138  -2.98960
    D2        1.14048   0.00022   0.00146   0.01210   0.01356   1.15404
    D3       -0.85444   0.00013  -0.00437   0.01745   0.01308  -0.84137
    D4        0.15371   0.00002  -0.00280   0.01181   0.00902   0.16272
    D5       -1.98802   0.00017   0.00048   0.01072   0.01120  -1.97682
    D6        2.30024   0.00008  -0.00535   0.01608   0.01072   2.31096
    D7       -3.13043   0.00006  -0.00072   0.00163   0.00091  -3.12952
    D8        0.01211   0.00005  -0.00088   0.00122   0.00035   0.01246
    D9       -0.00224   0.00006   0.00027   0.00292   0.00319   0.00095
   D10        3.14030   0.00005   0.00011   0.00252   0.00263  -3.14025
   D11        3.13072  -0.00001   0.00091  -0.00062   0.00031   3.13103
   D12        0.00246  -0.00004  -0.00009  -0.00194  -0.00203   0.00043
   D13        1.53405   0.00009  -0.00063   0.00487   0.00424   1.53829
   D14       -1.59133   0.00015   0.00095   0.00734   0.00829  -1.58304
   D15       -2.62334  -0.00032  -0.00432   0.00417  -0.00015  -2.62349
   D16        0.53447  -0.00027  -0.00274   0.00665   0.00390   0.53837
   D17       -0.59866   0.00028   0.00251   0.00206   0.00457  -0.59409
   D18        2.55915   0.00033   0.00408   0.00454   0.00862   2.56777
   D19       -3.11957  -0.00018   0.00019  -0.00635  -0.00617  -3.12573
   D20        0.01551  -0.00007   0.00080  -0.00235  -0.00155   0.01396
   D21        0.00617  -0.00024  -0.00137  -0.00876  -0.01013  -0.00396
   D22        3.14125  -0.00013  -0.00076  -0.00476  -0.00552   3.13573
   D23        3.11996   0.00018  -0.00028   0.00633   0.00606   3.12602
   D24       -0.01301   0.00008  -0.00100   0.00280   0.00180  -0.01121
   D25       -0.00573   0.00024   0.00128   0.00875   0.01003   0.00430
   D26       -3.13870   0.00013   0.00057   0.00521   0.00578  -3.13293
   D27       -0.00273   0.00010   0.00056   0.00374   0.00431   0.00157
   D28        3.14032   0.00009   0.00027   0.00335   0.00362  -3.13924
   D29       -3.13779  -0.00001  -0.00005  -0.00028  -0.00032  -3.13811
   D30        0.00527  -0.00003  -0.00034  -0.00067  -0.00101   0.00425
   D31       -0.00126   0.00004   0.00035   0.00147   0.00182   0.00056
   D32       -3.13931  -0.00003  -0.00027  -0.00107  -0.00134  -3.14066
   D33        3.13886   0.00005   0.00065   0.00186   0.00251   3.14138
   D34        0.00081  -0.00002   0.00002  -0.00068  -0.00065   0.00016
   D35        0.00170  -0.00004  -0.00044  -0.00149  -0.00193  -0.00023
   D36       -3.14021  -0.00005  -0.00045  -0.00190  -0.00235   3.14062
   D37        3.13975   0.00003   0.00019   0.00105   0.00124   3.14099
   D38       -0.00216   0.00002   0.00018   0.00064   0.00082  -0.00134
   D39        0.00186  -0.00010  -0.00039  -0.00371  -0.00410  -0.00224
   D40        3.13480   0.00001   0.00033  -0.00016   0.00017   3.13496
[...]
 Alpha virt. eigenvalues --    2.71694   2.74262   2.74466   2.74780   2.75352
 Alpha virt. eigenvalues --    2.76516   2.77403   2.77839   2.78220   2.79649
 Alpha virt. eigenvalues --    2.80651   2.80708   2.83350   2.85391   2.86129
 Alpha virt. eigenvalues --    2.86602   2.87983   2.88349   2.88514   2.89607
 Alpha virt. eigenvalues --    2.90062   2.92023   2.92707   2.93219   2.94646
 Alpha virt. eigenvalues --    2.95576   2.96193   2.97727   2.98980   3.00949
 Alpha virt. eigenvalues --    3.01558   3.02384   3.05582   3.06087   3.08417
 Alpha virt. eigenvalues --    3.10580   3.10777   3.12063   3.12322   3.14218
 Alpha virt. eigenvalues --    3.15842   3.17697   3.18579   3.19882   3.20786
 Alpha virt. eigenvalues --    3.21232   3.22239   3.22550   3.23517   3.23894
 Alpha virt. eigenvalues --    3.24634   3.25308   3.25948   3.27025   3.27859
 Alpha virt. eigenvalues --    3.29101   3.30651   3.31824   3.32679   3.33961
 Alpha virt. eigenvalues --    3.34966   3.36246   3.36986   3.37622   3.39062
 Alpha virt. eigenvalues --    3.40491   3.41491   3.41998   3.43284   3.43857
 Alpha virt. eigenvalues --    3.44682   3.45737   3.46954   3.48300   3.49475
 Alpha virt. eigenvalues --    3.50960   3.52298   3.52799   3.53866   3.54267
 Alpha virt. eigenvalues --    3.55128   3.57707   3.58435   3.59064   3.59881
 Alpha virt. eigenvalues --    3.61952   3.63696   3.64861   3.65527   3.68167
 Alpha virt. eigenvalues --    3.68925   3.70467   3.73250   3.74369   3.78380
 Alpha virt. eigenvalues --    3.79762   3.81324   3.84082   3.85004   3.85668
 Alpha virt. eigenvalues --    3.88909   3.89483   3.92256   3.94140   3.95328
 Alpha virt. eigenvalues --    3.96989   3.98428   3.99579   4.02101   4.04944
 Alpha virt. eigenvalues --    4.06691   4.09307   4.09568   4.11392   4.12852
 Alpha virt. eigenvalues --    4.14751   4.16491   4.20843   4.22610   4.23548
 Alpha virt. eigenvalues --    4.25412   4.27193   4.28768   4.29269   4.29868
 Alpha virt. eigenvalues --    4.30694   4.33234   4.33922   4.36904   4.39350
 Alpha virt. eigenvalues --    4.39620   4.40630   4.42822   4.44748   4.45883
 Alpha virt. eigenvalues --    4.49829   4.52262   4.54169   4.58986   4.61023
 Alpha virt. eigenvalues --    4.64827   4.69071   4.70403   4.76037   4.77083
 Alpha virt. eigenvalues --    4.79591   4.80513   4.81831   4.84156   4.85099
 Alpha virt. eigenvalues --    4.95097   4.96917   5.01708   5.02095   5.03829
 Alpha virt. eigenvalues --    5.06489   5.06847   5.12901   5.17123   5.17387
 Alpha virt. eigenvalues --    5.23429   5.27510   5.30338   5.31479   5.36413
 Alpha virt. eigenvalues --    5.41503   5.45808   5.49844   5.51574   5.53558
 Alpha virt. eigenvalues --    5.55937   5.73189   5.75237   5.82240   5.90844
 Alpha virt. eigenvalues --    6.19951  22.13454  22.42372  22.61173  22.67808
 Alpha virt. eigenvalues --   22.69761  22.71802  22.78660  22.83981  22.89501
 Alpha virt. eigenvalues --   22.99016  23.20342  23.30673  32.63794
          Condensed to atoms (all electrons):
               1          2          3          4          5          6
     1  C    4.824195   0.300954  -0.014701  -0.006992   0.000925  -0.000418
     2  C    0.300954   5.075805   0.306152  -0.067723   0.014943  -0.004682
     3  C   -0.014701   0.306152   5.042939   0.383407   0.029427  -0.099064
     4  C   -0.006992  -0.067723   0.383407   5.082241   0.420314   0.037773
     5  C    0.000925   0.014943   0.029427   0.420314   4.921208   0.443582
     6  C   -0.000418  -0.004682  -0.099064   0.037773   0.443582   4.942719
     7  C    0.002408   0.010364   0.027828  -0.088228   0.020346   0.423646
     8  C   -0.008113  -0.102388   0.376617   0.047701  -0.090646   0.045933
     9  C    0.494080  -0.063281   0.000152   0.004893  -0.001185   0.000315
    10  C   -0.022357  -0.000214   0.002080  -0.000830   0.000082  -0.000034
    11  C   -0.045258   0.000845  -0.000487   0.000048   0.000001   0.000008
    12  C   -0.083830   0.000389   0.000115  -0.000122  -0.000033   0.000016
    13  N    0.452399  -0.084316  -0.011912   0.001993  -0.000318   0.000326
    14  H   -0.057016   0.392710  -0.017246   0.005556  -0.001386   0.000466
    15  H   -0.039498   0.432288  -0.069100   0.004533   0.000617   0.000283
    16  H   -0.001997  -0.003760  -0.069086   0.439469  -0.049012   0.009849
    17  H    0.000031  -0.000193   0.013261  -0.058695   0.442799  -0.055109
    18  H    0.000002   0.000067  -0.002641   0.009790  -0.053538   0.440212
    19  H    0.000087  -0.000143   0.012694  -0.003154   0.010199  -0.056590
    20  H   -0.007054  -0.010178  -0.055875   0.013659  -0.004619   0.011047
    21  H   -0.044284   0.008129  -0.002898   0.001598   0.000037  -0.000017
    22  H    0.007004  -0.000377   0.000038  -0.000010  -0.000003   0.000001
    23  H   -0.000610   0.000165   0.000001  -0.000002   0.000000  -0.000000
    24  H    0.006752  -0.000149   0.000172   0.000001   0.000001  -0.000002
               7          8          9         10         11         12
     1  C    0.002408  -0.008113   0.494080  -0.022357  -0.045258  -0.083830
     2  C    0.010364  -0.102388  -0.063281  -0.000214   0.000845   0.000389
     3  C    0.027828   0.376617   0.000152   0.002080  -0.000487   0.000115
     4  C   -0.088228   0.047701   0.004893  -0.000830   0.000048  -0.000122
     5  C    0.020346  -0.090646  -0.001185   0.000082   0.000001  -0.000033
     6  C    0.423646   0.045933   0.000315  -0.000034   0.000008   0.000016
     7  C    4.942358   0.414622  -0.000956   0.000127  -0.000027   0.000080
     8  C    0.414622   5.133254   0.006841  -0.000531   0.000029   0.000960
     9  C   -0.000956   0.006841   4.963075   0.504558  -0.020190  -0.043642
    10  C    0.000127  -0.000531   0.504558   4.826847   0.490823  -0.003824
    11  C   -0.000027   0.000029  -0.020190   0.490823   4.937365   0.492590
    12  C    0.000080   0.000960  -0.043642  -0.003824   0.492590   4.742380
    13  N   -0.000648   0.003006  -0.051038  -0.023067  -0.057078   0.530717
    14  H   -0.000088  -0.004288   0.010006  -0.000931   0.000456   0.001065
    15  H   -0.000737   0.008434   0.001670   0.000579   0.000077  -0.000373
    16  H   -0.003739   0.014344   0.001219  -0.000146   0.000016  -0.000013
    17  H    0.011031  -0.004182  -0.000011   0.000000  -0.000000   0.000000
    18  H   -0.054197   0.009972  -0.000001   0.000000  -0.000000   0.000000
    19  H    0.442905  -0.056542   0.000007  -0.000001  -0.000002  -0.000010
    20  H   -0.050500   0.432095   0.002140  -0.000082   0.000613   0.000311
    21  H   -0.000013  -0.000667   0.414780  -0.042999   0.007380  -0.001383
    22  H   -0.000001   0.000035  -0.041379   0.428010  -0.043099   0.004459
    23  H    0.000001  -0.000009   0.006288  -0.050611   0.417876  -0.033795
    24  H   -0.000008   0.000085  -0.001824   0.005665  -0.073918   0.434668
              13         14         15         16         17         18
     1  C    0.452399  -0.057016  -0.039498  -0.001997   0.000031   0.000002
     2  C   -0.084316   0.392710   0.432288  -0.003760  -0.000193   0.000067
     3  C   -0.011912  -0.017246  -0.069100  -0.069086   0.013261  -0.002641
     4  C    0.001993   0.005556   0.004533   0.439469  -0.058695   0.009790
     5  C   -0.000318  -0.001386   0.000617  -0.049012   0.442799  -0.053538
     6  C    0.000326   0.000466   0.000283   0.009849  -0.055109   0.440212
     7  C   -0.000648  -0.000088  -0.000737  -0.003739   0.011031  -0.054197
     8  C    0.003006  -0.004288   0.008434   0.014344  -0.004182   0.009972
     9  C   -0.051038   0.010006   0.001670   0.001219  -0.000011  -0.000001
    10  C   -0.023067  -0.000931   0.000579  -0.000146   0.000000   0.000000
    11  C   -0.057078   0.000456   0.000077   0.000016  -0.000000  -0.000000
    12  C    0.530717   0.001065  -0.000373  -0.000013   0.000000   0.000000
    13  N    6.544304   0.010355   0.003592   0.000036  -0.000000   0.000000
    14  H    0.010355   0.551120  -0.020681   0.000875   0.000004  -0.000001
    15  H    0.003592  -0.020681   0.546165   0.002668  -0.000068  -0.000001
    16  H    0.000036   0.000875   0.002668   0.557360  -0.007109  -0.000160
    17  H   -0.000000   0.000004  -0.000068  -0.007109   0.548388  -0.006933
    18  H    0.000000  -0.000001  -0.000001  -0.000160  -0.006933   0.546295
    19  H   -0.000080  -0.000017   0.000004   0.000044  -0.000129  -0.006962
    20  H    0.024211   0.003211   0.000433   0.000000   0.000014  -0.000075
    21  H    0.005185   0.000131  -0.001034   0.000405  -0.000004  -0.000000
    22  H   -0.001155   0.000014  -0.000007  -0.000001  -0.000000   0.000000
    23  H    0.005868  -0.000013  -0.000004  -0.000000   0.000000  -0.000000
    24  H   -0.032607  -0.000138   0.000000  -0.000000   0.000000  -0.000000
              19         20         21         22         23         24
     1  C    0.000087  -0.007054  -0.044284   0.007004  -0.000610   0.006752
     2  C   -0.000143  -0.010178   0.008129  -0.000377   0.000165  -0.000149
     3  C    0.012694  -0.055875  -0.002898   0.000038   0.000001   0.000172
     4  C   -0.003154   0.013659   0.001598  -0.000010  -0.000002   0.000001
     5  C    0.010199  -0.004619   0.000037  -0.000003   0.000000   0.000001
     6  C   -0.056590   0.011047  -0.000017   0.000001  -0.000000  -0.000002
     7  C    0.442905  -0.050500  -0.000013  -0.000001   0.000001  -0.000008
     8  C   -0.056542   0.432095  -0.000667   0.000035  -0.000009   0.000085
     9  C    0.000007   0.002140   0.414780  -0.041379   0.006288  -0.001824
    10  C   -0.000001  -0.000082  -0.042999   0.428010  -0.050611   0.005665
    11  C   -0.000002   0.000613   0.007380  -0.043099   0.417876  -0.073918
    12  C   -0.000010   0.000311  -0.001383   0.004459  -0.033795   0.434668
    13  N   -0.000080   0.024211   0.005185  -0.001155   0.005868  -0.032607
    14  H   -0.000017   0.003211   0.000131   0.000014  -0.000013  -0.000138
    15  H    0.000004   0.000433  -0.001034  -0.000007  -0.000004   0.000000
    16  H    0.000044   0.000000   0.000405  -0.000001  -0.000000  -0.000000
    17  H   -0.000129   0.000014  -0.000004  -0.000000   0.000000   0.000000
    18  H   -0.006962  -0.000075  -0.000000   0.000000  -0.000000  -0.000000
    19  H    0.545939  -0.006737   0.000001  -0.000000   0.000000   0.000002
    20  H   -0.006737   0.505301  -0.000140   0.000007  -0.000025  -0.000544
    21  H    0.000001  -0.000140   0.535068  -0.005876  -0.000021   0.000103
    22  H   -0.000000   0.000007  -0.005876   0.525692  -0.005951  -0.000197
    23  H    0.000000  -0.000025  -0.000021  -0.005951   0.532502  -0.002148
    24  H    0.000002  -0.000544   0.000103  -0.000197  -0.002148   0.538382
 Mulliken charges:
               1
     1  C    0.243292
     2  C   -0.205406
     3  C    0.148126
     4  C   -0.227221
     5  C   -0.103743
     6  C   -0.140261
     7  C   -0.096575
     8  C   -0.226564
     9  C   -0.186518
    10  C   -0.113145
    11  C   -0.108068
    12  C   -0.040727
    13  N   -0.319774
    14  H    0.125833
    15  H    0.130158
    16  H    0.108739
    17  H    0.116906
    18  H    0.118170
    19  H    0.118482
    20  H    0.142787
    21  H    0.126520
    22  H    0.132796
    23  H    0.130489
    24  H    0.125704
 Sum of Mulliken charges =  -0.00000
 Mulliken charges with hydrogens summed into heavy atoms:
               1
     1  C    0.243292
     2  C    0.050584
     3  C    0.148126
     4  C   -0.118481
     5  C    0.013163
     6  C   -0.022091
     7  C    0.021908
     8  C   -0.083777
     9  C   -0.059997
    10  C    0.019651
    11  C    0.022420
    12  C    0.084977
    13  N   -0.319774
 Electronic spatial extent (au):  <R**2>=           2689.3276
 Charge=             -0.0000 electrons
 Dipole moment (field-independent basis, Debye):
    X=             -0.9685    Y=             -1.2484    Z=              1.1447  Tot=              1.9511
 Quadrupole moment (field-independent basis, Debye-Ang):
   XX=            -69.1063   YY=            -69.6172   ZZ=            -77.9331
   XY=             -0.1904   XZ=             -2.0538   YZ=              1.0072
 Traceless Quadrupole moment (field-independent basis, Debye-Ang):
   XX=              3.1126   YY=              2.6017   ZZ=             -5.7142
   XY=             -0.1904   XZ=             -2.0538   YZ=              1.0072
 Octapole moment (field-independent basis, Debye-Ang**2):
  XXX=            -19.1352  YYY=             -0.8715  ZZZ=             -2.8365  XYY=             -0.1622
  XXY=              6.0126  XXZ=             35.3950  XZZ=             -5.5454  YZZ=             -3.8503
  YYZ=              4.3431  XYZ=              3.9424
 Hexadecapole moment (field-independent basis, Debye-Ang**3):
 XXXX=          -2685.7710 YYYY=           -531.0108 ZZZZ=           -356.8061 XXXY=            -45.7995
 XXXZ=              1.0026 YYYX=             -7.1893 YYYZ=              0.6115 ZZZX=             -9.7728
 ZZZY=             -1.4956 XXYY=           -517.6434 XXZZ=           -523.1498 YYZZ=           -157.6322
 XXYZ=             -2.9965 YYXZ=             -1.7843 ZZXY=             10.8726
 N-N= 6.986234908954D+02 E-N=-2.601003672517D+03  KE= 5.157550202807D+02
 Breneman (CHELPG) radii used.
 Read replacement radii for each type of atom:
 Atom Element Radius
    1     6    1.50
    2     6    1.50
    3     6    1.50
    4     6    1.50
    5     6    1.50
    6     6    1.50
    7     6    1.50
    8     6    1.50
    9     6    1.50
   10     6    1.50
   11     6    1.50
   12     6    1.50
   13     7    1.70
   14     1    1.45
   15     1    1.45
   16     1    1.45
   17     1    1.45
   18     1    1.45
   19     1    1.45
   20     1    1.45
   21     1    1.45
   22     1    1.45
   23     1    1.45
   24     1    1.45
 Generate Potential Derived Charges using the Breneman model, NDens= 1.
 Grid spacing= 0.300 Box extension= 2.800
 NStep X,Y,Z=   50     36     34   Total possible points=       61200
 Number of Points to Fit=   15855

 **********************************************************************

            Electrostatic Properties Using The SCF Density.

 **********************************************************************

       Atomic Center    1 is at  -1.273181 -0.322152 -0.602481
       Atomic Center    2 is at  -0.015318 -0.640471 -1.378662
       Atomic Center    3 is at   1.236033 -0.251576 -0.615905
       Atomic Center    4 is at   2.150497 -1.217232 -0.187407
       Atomic Center    5 is at   3.292080 -0.852459  0.527646
       Atomic Center    6 is at   3.530959  0.487038  0.825060
       Atomic Center    7 is at   2.621651  1.458816  0.403889
       Atomic Center    8 is at   1.483732  1.092698 -0.309576
       Atomic Center    9 is at  -1.838062 -1.257161  0.273610
       Atomic Center   10 is at  -2.970420 -0.904698  0.999176
       Atomic Center   11 is at  -3.503945  0.371270  0.830824
       Atomic Center   12 is at  -2.869970  1.232606 -0.061765
       Atomic Center   13 is at  -1.787331  0.899684 -0.761355
       Atomic Center   14 is at  -0.058501 -0.085703 -2.327334
       Atomic Center   15 is at   0.017109 -1.713565 -1.616746
       Atomic Center   16 is at   1.970638 -2.270881 -0.418831
       Atomic Center   17 is at   3.997338 -1.620788  0.852760
       Atomic Center   18 is at   4.423938  0.775223  1.384090
       Atomic Center   19 is at   2.801528  2.511570  0.633765
       Atomic Center   20 is at   0.763160  1.849234 -0.630527
       Atomic Center   21 is at  -1.386781 -2.245645  0.382141
       Atomic Center   22 is at  -3.431395 -1.616137  1.688193
       Atomic Center   23 is at  -4.391523  0.694425  1.377276
       Atomic Center   24 is at  -3.258526  2.244397 -0.221762
   15855 points will be used for fitting atomic charges
 Fitting point charges to electrostatic potential
 Charges from ESP fit, RMS=   0.00409 RRMS=   0.35352:
 ESP charges:
               1
     1  C    0.618858
     2  C   -0.378066
     3  C    0.264551
     4  C   -0.225491
     5  C   -0.065718
     6  C   -0.130269
     7  C   -0.059011
     8  C   -0.206890
     9  C   -0.447735
    10  C    0.171316
    11  C   -0.350507
    12  C    0.347176
    13  N   -0.611323
    14  H    0.094839
    15  H    0.102074
    16  H    0.112615
    17  H    0.089215
    18  H    0.094048
    19  H    0.089622
    20  H    0.118925
    21  H    0.149009
    22  H    0.065748
    23  H    0.127559
    24  H    0.029453
 Sum of ESP charges =   0.00000
 ESP charges with hydrogens summed into heavy atoms:
               1
     1  C    0.618858
     2  C   -0.181153
     3  C    0.264551
     4  C   -0.112876
     5  C    0.023497
     6  C   -0.036221
     7  C    0.030611
     8  C   -0.087965
     9  C   -0.298726
    10  C    0.237065
    11  C   -0.222947
    12  C    0.376629
    13  N   -0.611323
 Charge=   0.00000 Dipole=    -0.9381    -1.2721     1.0540 Tot=     1.8998
 -----------------------------------------------------------------

              Electrostatic Properties (Atomic Units)

 -----------------------------------------------------------------
    Center     Electric         -------- Electric Field --------
               Potential          X             Y             Z
 -----------------------------------------------------------------
    1 Atom    -14.726549
    2 Atom    -14.761234
    3 Atom    -14.760941
    4 Atom    -14.772706
    5 Atom    -14.771847
    6 Atom    -14.773680
    7 Atom    -14.773077
    8 Atom    -14.777554
    9 Atom    -14.761184
   10 Atom    -14.749269
   11 Atom    -14.761301
   12 Atom    -14.735518
   13 Atom    -18.401526
   14 Atom     -1.115344
   15 Atom     -1.112454
   16 Atom     -1.108245
   17 Atom     -1.109739
   18 Atom     -1.111063
   19 Atom     -1.112119
   20 Atom     -1.116163
   21 Atom     -1.094268
   22 Atom     -1.090541
   23 Atom     -1.093868
   24 Atom     -1.105589
 -----------------------------------------------------------------
 Unable to Open any file for archive entry.
 1\1\GINC-NOTCH056\SP\RwB97XD\def2TZVP\C12H11N1\U1112142\19-Dec-2025\0\
 \#N Guess=Read Geom=Check Integral(Ultrafine) Density Pop=(ChelpG,Read
 Radii) NMR wB97XD def2TZVP\\Py6_6\\0,1\C,0,-1.307607112,0.0581015807,0
 .7541064408\C,0,-0.0447541839,0.1887739392,1.575162166\C,0,1.202405614
 1,0.0675327048,0.7214581689\C,0,2.0811106616,1.1431637592,0.5690136084
 \C,0,3.2187880472,1.0282963611,-0.2310290182\C,0,3.489563503,-0.167515
 1266,-0.8916985153\C,0,2.6160448971,-1.2468246434,-0.7480466664\C,0,1.
 4819618406,-1.1301063729,0.0508065345\C,0,-1.9149898179,1.1808825146,0
 .1785065259\C,0,-3.0504935107,1.0074201506,-0.6047258798\C,0,-3.544668
 4511,-0.2816340177,-0.7923863517\C,0,-2.8699908338,-1.3360325074,-0.18
 11631856\N,0,-1.7841189293,-1.17572184,0.572197544\H,0,-0.0544039821,-
 0.6086871016,2.3325075683\H,0,-0.0380124728,1.1540267297,2.101952491\H
 ,0,1.8761093041,2.0847497199,1.0861913469\H,0,3.8959059055,1.879014974
 2,-0.3368943021\H,0,4.379573838,-0.2601886704,-1.5180137257\H,0,2.8210
 681657,-2.1879807516,-1.2634894027\H,0,0.7891292004,-1.9688400907,0.15
 61113406\H,0,-1.4938009809,2.1746508001,0.3445191611\H,0,-3.5442133759
 ,1.8669500315,-1.0638952834\H,0,-4.4329737408,-0.4687971272,-1.3979573
 574\H,0,-3.2268635859,-2.3644450161,-0.3048732082\\Version=ES64L-G16Re
 vC.01\State=1-A\HF=-518.6546174\RMSD=3.633e-09\Dipole=-0.4031376,0.584
 3285,-0.2920376\Quadrupole=2.3603574,1.0401294,-3.4004867,-0.2230246,1
 .3725371,2.3331\PG=C01 [X(C12H11N1)]\\@
 The archive entry for this job was punched.


 UNDER MOST GREENE GRASSE LY MOST GREATE SNAKES.
 -- PROVERBS AND REASONS OF THE YEAR 1585
           AS REPRINTED IN PAISLEY MAGAZINE 1828.
 Job cpu time:       0 days  1 hours  4 minutes  1.8 seconds.
 Elapsed time:       0 days  0 hours  4 minutes 12.4 seconds.
 File lengths (MBytes):  RWF=    141 Int=      0 D2E=      0 Chk=     21 Scr=      2
 Normal termination of Gaussian 16 at Fri Dec 19 04:54:51 2025.
