 Entering Gaussian System, Link 0=g16
 Input=Py6_2.com
 Output=Py6_2.log
 Initial command:
 /uufs/chpc.utah.edu/sys/installdir/gaussian16/C01/AVX/g16/l1.exe "/scratch/general/vast/u1112142/9381406-notchpeak.peaks/Gau-269109.inp" -scrdir="/scratch/general/vast/u1112142/9381406-notchpeak.peaks/"
 Entering Link 1 = /uufs/chpc.utah.edu/sys/installdir/gaussian16/C01/AVX/g16/l1.exe PID=    269110.
  
 Copyright (c) 1988-2019, Gaussian, Inc.  All Rights Reserved.
  
 This is part of the Gaussian(R) 16 program.  It is based on
 the Gaussian(R) 09 system (copyright 2009, Gaussian, Inc.),
 the Gaussian(R) 03 system (copyright 2003, Gaussian, Inc.),
 the Gaussian(R) 98 system (copyright 1998, Gaussian, Inc.),
 the Gaussian(R) 94 system (copyright 1995, Gaussian, Inc.),
 the Gaussian 92(TM) system (copyright 1992, Gaussian, Inc.),
 the Gaussian 90(TM) system (copyright 1990, Gaussian, Inc.),
 the Gaussian 88(TM) system (copyright 1988, Gaussian, Inc.),
 the Gaussian 86(TM) system (copyright 1986, Carnegie Mellon
 University), and the Gaussian 82(TM) system (copyright 1983,
 Carnegie Mellon University). Gaussian is a federally registered
 trademark of Gaussian, Inc.
  
 This software contains proprietary and confidential information,
 including trade secrets, belonging to Gaussian, Inc.
  
 This software is provided under written license and may be
 used, copied, transmitted, or stored only in accord with that
 written license.
  
 The following legend is applicable only to US Government
 contracts under FAR:
  
                    RESTRICTED RIGHTS LEGEND
  
 Use, reproduction and disclosure by the US Government is
 subject to restrictions as set forth in subparagraphs (a)
 and (c) of the Commercial Computer Software - Restricted
 Rights clause in FAR 52.227-19.
  
 Gaussian, Inc.
 340 Quinnipiac St., Bldg. 40, Wallingford CT 06492
  
  
 ---------------------------------------------------------------
 Warning -- This program may not be used in any manner that
 competes with the business of Gaussian, Inc. or will provide
 assistance to any competitor of Gaussian, Inc.  The licensee
 of this program is prohibited from giving any competitor of
 Gaussian, Inc. access to this program.  By using this program,
 the user acknowledges that Gaussian, Inc. is engaged in the
 business of creating and licensing software in the field of
 computational chemistry and represents and warrants to the
 licensee that it is not a competitor of Gaussian, Inc. and that
 it will not use this program in any manner prohibited above.
 ---------------------------------------------------------------
  

 Cite this work as:
 Gaussian 16, Revision C.01,
 M. J. Frisch, G. W. Trucks, H. B. Schlegel, G. E. Scuseria, 
 M. A. Robb, J. R. Cheeseman, G. Scalmani, V. Barone, 
 G. A. Petersson, H. Nakatsuji, X. Li, M. Caricato, A. V. Marenich, 
 J. Bloino, B. G. Janesko, R. Gomperts, B. Mennucci, H. P. Hratchian, 
 J. V. Ortiz, A. F. Izmaylov, J. L. Sonnenberg, D. Williams-Young, 
 F. Ding, F. Lipparini, F. Egidi, J. Goings, B. Peng, A. Petrone, 
 T. Henderson, D. Ranasinghe, V. G. Zakrzewski, J. Gao, N. Rega, 
 G. Zheng, W. Liang, M. Hada, M. Ehara, K. Toyota, R. Fukuda, 
 J. Hasegawa, M. Ishida, T. Nakajima, Y. Honda, O. Kitao, H. Nakai, 
 T. Vreven, K. Throssell, J. A. Montgomery, Jr., J. E. Peralta, 
 F. Ogliaro, M. J. Bearpark, J. J. Heyd, E. N. Brothers, K. N. Kudin, 
 V. N. Staroverov, T. A. Keith, R. Kobayashi, J. Normand, 
 K. Raghavachari, A. P. Rendell, J. C. Burant, S. S. Iyengar, 
 J. Tomasi, M. Cossi, J. M. Millam, M. Klene, C. Adamo, R. Cammi, 
 J. W. Ochterski, R. L. Martin, K. Morokuma, O. Farkas, 
 J. B. Foresman, and D. J. Fox, Gaussian, Inc., Wallingford CT, 2019.
 
 ******************************************
 Gaussian 16:  ES64L-G16RevC.01  3-Jul-2019
                19-Dec-2025 
 ******************************************
 %NProcShared=16
 Will use up to   16 processors via shared memory.
 %Mem=40GB
 %chk=Py6_2.chk
 ------------------------------------------------------
 #N OPT FREQ=NORAMAN Integral(Ultrafine) wB97XD def2SVP
 ------------------------------------------------------
 1/18=20,19=15,26=4,38=1/1,3;
 2/9=110,12=2,17=6,18=5,40=1/2;
 3/5=43,7=101,11=2,25=1,30=1,71=1,74=-58,75=-5/1,2,3;
 4//1;
 5/5=2,38=5/2;
 6/7=2,8=2,9=2,10=2,28=1/1;
 7//1,2,3,16;
 1/18=20,19=15,26=4/3(2);
 2/9=110/2;
 99//99;
 2/9=110/2;
 3/5=43,7=101,11=2,25=1,30=1,71=1,74=-58,75=-5/1,2,3;
 4/5=5,16=3,69=1/1;
 5/5=2,38=5/2;
 7//1,2,3,16;
 1/18=20,19=15,26=4/3(-5);
 2/9=110/2;
 6/7=2,8=2,9=2,10=2,19=2,28=1/1;
 99/9=1/99;
 -----
 Py6_2
 -----
 Symbolic Z-matrix:
 Charge =  0 Multiplicity = 1
 C                    -1.24792  -0.2267    0.63004 
 C                    -0.05952  -0.62703   1.46223 
 C                     1.18625  -0.35385   0.65831 
 C                     1.70309   0.93405   0.59925 
 C                     2.82433   1.2057   -0.16316 
 C                     3.43874   0.19344  -0.88162 
 C                     2.92443  -1.09043  -0.83445 
 C                     1.80297  -1.36164  -0.0697 
 C                    -1.83612  -1.11623  -0.2652 
 C                    -2.89668  -0.67985  -1.03866 
 C                    -3.3325    0.62901  -0.8986 
 C                    -2.67913   1.43628   0.01849 
 N                    -1.66862   1.02359   0.76224 
 H                    -0.12044  -1.68501   1.72017 
 H                    -0.05185  -0.02595   2.37153 
 H                     1.21488   1.72297   1.15187 
 H                     3.22111   2.20997  -0.19773 
 H                     4.31483   0.40485  -1.47704 
 H                     3.39738  -1.88394  -1.39494 
 H                     1.40851  -2.36771  -0.03549 
 H                    -1.46938  -2.12817  -0.34819 
 H                    -3.37682  -1.34846  -1.73923 
 H                    -4.15553   1.00992  -1.48296 
 H                    -2.97737   2.46589   0.17093 
 

 GradGradGradGradGradGradGradGradGradGradGradGradGradGradGradGradGradGrad
 Berny optimization.
 Initialization pass.
                           ----------------------------
                           !    Initial Parameters    !
                           ! (Angstroms and Degrees)  !
 --------------------------                            --------------------------
 ! Name  Definition              Value          Derivative Info.                !
 --------------------------------------------------------------------------------
 ! R1    R(1,2)                  1.505          estimate D2E/DX2                !
 ! R2    R(1,9)                  1.3924         estimate D2E/DX2                !
 ! R3    R(1,13)                 1.3258         estimate D2E/DX2                !
 ! R4    R(2,3)                  1.5076         estimate D2E/DX2                !
 ! R5    R(2,14)                 1.0907         estimate D2E/DX2                !
 ! R6    R(2,15)                 1.09           estimate D2E/DX2                !
 ! R7    R(3,4)                  1.389          estimate D2E/DX2                !
 ! R8    R(3,8)                  1.3878         estimate D2E/DX2                !
 ! R9    R(4,5)                  1.3828         estimate D2E/DX2                !
 ! R10   R(4,16)                 1.0799         estimate D2E/DX2                !
 ! R11   R(5,6)                  1.385          estimate D2E/DX2                !
 ! R12   R(5,17)                 1.0804         estimate D2E/DX2                !
 ! R13   R(6,7)                  1.3839         estimate D2E/DX2                !
 ! R14   R(6,18)                 1.0802         estimate D2E/DX2                !
 ! R15   R(7,8)                  1.3842         estimate D2E/DX2                !
 ! R16   R(7,19)                 1.0805         estimate D2E/DX2                !
 ! R17   R(8,20)                 1.0812         estimate D2E/DX2                !
 ! R18   R(9,10)                 1.3833         estimate D2E/DX2                !
 ! R19   R(9,21)                 1.0795         estimate D2E/DX2                !
 ! R20   R(10,11)                1.3866         estimate D2E/DX2                !
 ! R21   R(10,22)                1.0809         estimate D2E/DX2                !
 ! R22   R(11,12)                1.3855         estimate D2E/DX2                !
 ! R23   R(11,23)                1.0789         estimate D2E/DX2                !
 ! R24   R(12,13)                1.3208         estimate D2E/DX2                !
 ! R25   R(12,24)                1.0827         estimate D2E/DX2                !
 ! A1    A(2,1,9)              121.2757         estimate D2E/DX2                !
 ! A2    A(2,1,13)             116.5052         estimate D2E/DX2                !
 ! A3    A(9,1,13)             122.1776         estimate D2E/DX2                !
 ! A4    A(1,2,3)              108.0251         estimate D2E/DX2                !
 ! A5    A(1,2,14)             110.1627         estimate D2E/DX2                !
 ! A6    A(1,2,15)             108.6712         estimate D2E/DX2                !
 ! A7    A(3,2,14)             110.3672         estimate D2E/DX2                !
 ! A8    A(3,2,15)             109.8217         estimate D2E/DX2                !
 ! A9    A(14,2,15)            109.7558         estimate D2E/DX2                !
 ! A10   A(2,3,4)              119.8784         estimate D2E/DX2                !
 ! A11   A(2,3,8)              121.0211         estimate D2E/DX2                !
 ! A12   A(4,3,8)              119.0562         estimate D2E/DX2                !
 ! A13   A(3,4,5)              120.4838         estimate D2E/DX2                !
 ! A14   A(3,4,16)             119.1705         estimate D2E/DX2                !
 ! A15   A(5,4,16)             120.3447         estimate D2E/DX2                !
 ! A16   A(4,5,6)              120.1394         estimate D2E/DX2                !
 ! A17   A(4,5,17)             119.8702         estimate D2E/DX2                !
 ! A18   A(6,5,17)             119.9904         estimate D2E/DX2                !
 ! A19   A(5,6,7)              119.7025         estimate D2E/DX2                !
 ! A20   A(5,6,18)             120.1781         estimate D2E/DX2                !
 ! A21   A(7,6,18)             120.1193         estimate D2E/DX2                !
 ! A22   A(6,7,8)              120.1129         estimate D2E/DX2                !
 ! A23   A(6,7,19)             120.0642         estimate D2E/DX2                !
 ! A24   A(8,7,19)             119.8229         estimate D2E/DX2                !
 ! A25   A(3,8,7)              120.502          estimate D2E/DX2                !
 ! A26   A(3,8,20)             119.8019         estimate D2E/DX2                !
 ! A27   A(7,8,20)             119.6952         estimate D2E/DX2                !
 ! A28   A(1,9,10)             118.807          estimate D2E/DX2                !
 ! A29   A(1,9,21)             120.3161         estimate D2E/DX2                !
 ! A30   A(10,9,21)            120.8766         estimate D2E/DX2                !
 ! A31   A(9,10,11)            118.8345         estimate D2E/DX2                !
 ! A32   A(9,10,22)            120.5196         estimate D2E/DX2                !
 ! A33   A(11,10,22)           120.6459         estimate D2E/DX2                !
 ! A34   A(10,11,12)           117.9451         estimate D2E/DX2                !
 ! A35   A(10,11,23)           121.2206         estimate D2E/DX2                !
 ! A36   A(12,11,23)           120.8343         estimate D2E/DX2                !
 ! A37   A(11,12,13)           123.4666         estimate D2E/DX2                !
 ! A38   A(11,12,24)           121.1559         estimate D2E/DX2                !
 ! A39   A(13,12,24)           115.3773         estimate D2E/DX2                !
 ! A40   A(1,13,12)            118.7688         estimate D2E/DX2                !
 ! D1    D(9,1,2,3)             87.2735         estimate D2E/DX2                !
 ! D2    D(9,1,2,14)           -33.3488         estimate D2E/DX2                !
 ! D3    D(9,1,2,15)          -153.6245         estimate D2E/DX2                !
 ! D4    D(13,1,2,3)           -90.4314         estimate D2E/DX2                !
 ! D5    D(13,1,2,14)          148.9463         estimate D2E/DX2                !
 ! D6    D(13,1,2,15)           28.6706         estimate D2E/DX2                !
 ! D7    D(2,1,9,10)          -177.7496         estimate D2E/DX2                !
 ! D8    D(2,1,9,21)             2.4406         estimate D2E/DX2                !
 ! D9    D(13,1,9,10)           -0.1762         estimate D2E/DX2                !
 ! D10   D(13,1,9,21)         -179.986          estimate D2E/DX2                !
 ! D11   D(2,1,13,12)          177.6641         estimate D2E/DX2                !
 ! D12   D(9,1,13,12)           -0.0183         estimate D2E/DX2                !
 ! D13   D(1,2,3,4)             80.8948         estimate D2E/DX2                !
 ! D14   D(1,2,3,8)            -96.6612         estimate D2E/DX2                !
 ! D15   D(14,2,3,4)          -158.6108         estimate D2E/DX2                !
 ! D16   D(14,2,3,8)            23.8332         estimate D2E/DX2                !
 ! D17   D(15,2,3,4)           -37.4745         estimate D2E/DX2                !
 ! D18   D(15,2,3,8)           144.9694         estimate D2E/DX2                !
 ! D19   D(2,3,4,5)           -178.261          estimate D2E/DX2                !
 ! D20   D(2,3,4,16)             1.3811         estimate D2E/DX2                !
 ! D21   D(8,3,4,5)             -0.6569         estimate D2E/DX2                !
 ! D22   D(8,3,4,16)           178.9852         estimate D2E/DX2                !
 ! D23   D(2,3,8,7)            178.155          estimate D2E/DX2                !
 ! D24   D(2,3,8,20)            -2.1911         estimate D2E/DX2                !
 ! D25   D(4,3,8,7)              0.5791         estimate D2E/DX2                !
 ! D26   D(4,3,8,20)          -179.7669         estimate D2E/DX2                !
 ! D27   D(3,4,5,6)              0.3276         estimate D2E/DX2                !
 ! D28   D(3,4,5,17)          -179.6695         estimate D2E/DX2                !
 ! D29   D(16,4,5,6)          -179.3102         estimate D2E/DX2                !
 ! D30   D(16,4,5,17)            0.6927         estimate D2E/DX2                !
 ! D31   D(4,5,6,7)              0.0879         estimate D2E/DX2                !
 ! D32   D(4,5,6,18)          -179.9752         estimate D2E/DX2                !
 ! D33   D(17,5,6,7)          -179.915          estimate D2E/DX2                !
 ! D34   D(17,5,6,18)            0.0219         estimate D2E/DX2                !
 ! D35   D(5,6,7,8)             -0.1654         estimate D2E/DX2                !
 ! D36   D(5,6,7,19)           179.8205         estimate D2E/DX2                !
 ! D37   D(18,6,7,8)           179.8976         estimate D2E/DX2                !
 ! D38   D(18,6,7,19)           -0.1165         estimate D2E/DX2                !
 ! D39   D(6,7,8,3)             -0.172          estimate D2E/DX2                !
 ! D40   D(6,7,8,20)          -179.8262         estimate D2E/DX2                !
 ! D41   D(19,7,8,3)           179.8421         estimate D2E/DX2                !
 ! D42   D(19,7,8,20)            0.1878         estimate D2E/DX2                !
 ! D43   D(1,9,10,11)            0.2528         estimate D2E/DX2                !
 ! D44   D(1,9,10,22)         -179.7152         estimate D2E/DX2                !
 ! D45   D(21,9,10,11)        -179.9385         estimate D2E/DX2                !
 ! D46   D(21,9,10,22)           0.0935         estimate D2E/DX2                !
 ! D47   D(9,10,11,12)          -0.1452         estimate D2E/DX2                !
 ! D48   D(9,10,11,23)         179.9441         estimate D2E/DX2                !
 ! D49   D(22,10,11,12)        179.8228         estimate D2E/DX2                !
 ! D50   D(22,10,11,23)         -0.0879         estimate D2E/DX2                !
 ! D51   D(10,11,12,13)         -0.0524         estimate D2E/DX2                !
 ! D52   D(10,11,12,24)       -179.9081         estimate D2E/DX2                !
 ! D53   D(23,11,12,13)        179.8587         estimate D2E/DX2                !
 ! D54   D(23,11,12,24)          0.003          estimate D2E/DX2                !
 ! D55   D(11,12,13,1)           0.1355         estimate D2E/DX2                !
 ! D56   D(24,12,13,1)         179.9988         estimate D2E/DX2                !
 --------------------------------------------------------------------------------
 Trust Radius=3.00D-01 FncErr=1.00D-07 GrdErr=1.00D-06 EigMax=2.50D+02 EigMin=1.00D-04
 Number of steps in this run=    131 maximum allowed number of steps=    144.
 GradGradGradGradGradGradGradGradGradGradGradGradGradGradGradGradGradGrad

                          Input orientation:                          
 ---------------------------------------------------------------------
 Center     Atomic      Atomic             Coordinates (Angstroms)
 Number     Number       Type             X           Y           Z
 ---------------------------------------------------------------------
      1          6           0       -1.247920   -0.226700    0.630040
      2          6           0       -0.059520   -0.627030    1.462230
      3          6           0        1.186250   -0.353850    0.658310
      4          6           0        1.703090    0.934050    0.599250
      5          6           0        2.824330    1.205700   -0.163160
      6          6           0        3.438740    0.193440   -0.881620
      7          6           0        2.924430   -1.090430   -0.834450
      8          6           0        1.802970   -1.361640   -0.069700
      9          6           0       -1.836120   -1.116230   -0.265200
     10          6           0       -2.896680   -0.679850   -1.038660
     11          6           0       -3.332500    0.629010   -0.898600
     12          6           0       -2.679130    1.436280    0.018490
     13          7           0       -1.668620    1.023590    0.762240
     14          1           0       -0.120440   -1.685010    1.720170
     15          1           0       -0.051850   -0.025950    2.371530
     16          1           0        1.214880    1.722970    1.151870
     17          1           0        3.221110    2.209970   -0.197730
     18          1           0        4.314830    0.404850   -1.477040
     19          1           0        3.397380   -1.883940   -1.394940
     20          1           0        1.408510   -2.367710   -0.035490
     21          1           0       -1.469380   -2.128170   -0.348190
     22          1           0       -3.376820   -1.348460   -1.739230
     23          1           0       -4.155530    1.009920   -1.482960
     24          1           0       -2.977370    2.465890    0.170930
 ---------------------------------------------------------------------
                    Distance matrix (angstroms):
                    1          2          3          4          5
     1  C    0.000000
     2  C    1.505025   0.000000
     3  C    2.437653   1.507600   0.000000
     4  C    3.171238   2.507688   1.388992   0.000000
     5  C    4.389095   3.783832   2.406307   1.382838   0.000000
     6  C    4.942309   4.290061   2.782916   2.398741   1.385047
     7  C    4.505471   3.793868   2.406689   2.765083   2.394340
     8  C    3.329513   2.520978   1.387798   2.393254   2.764624
     9  C    1.392371   2.525795   3.250971   4.180542   5.207837
    10  C    2.389208   3.782422   4.433543   5.142500   6.087015
    11  C    2.722949   4.226530   4.879455   5.262487   6.227359
    12  C    2.277687   3.633729   4.307563   4.448974   5.511283
    13  N    1.325779   2.409094   3.171502   3.376835   4.590875
    14  H    2.141556   1.090672   2.146386   3.382484   4.535946
    15  H    2.122186   1.090038   2.139050   2.672525   4.026664
    16  H    3.184164   2.691267   2.134854   1.079876   2.141775
    17  H    5.157014   4.643982   3.383287   2.137179   1.080365
    18  H    5.981875   5.370198   3.863076   3.378198   2.142249
    19  H    5.331585   4.657617   3.383210   3.845579   3.375136
    20  H    3.476129   2.725481   2.141586   3.375099   3.845791
    21  H    2.149783   2.742033   3.348675   4.509922   5.439198
    22  H    3.376981   4.666293   5.249672   6.040184   6.889266
    23  H    3.801078   5.303871   5.914349   6.218101   7.106240
    24  H    3.232927   4.443811   5.052148   4.943349   5.946379
                    6          7          8          9         10
     6  C    0.000000
     7  C    1.383858   0.000000
     8  C    2.398589   1.384222   0.000000
     9  C    5.469859   4.794533   3.652591   0.000000
    10  C    6.397253   5.839144   4.846693   1.383277   0.000000
    11  C    6.785256   6.489204   5.569813   2.384578   1.386604
    12  C    6.307391   6.205776   5.284445   2.703045   2.375479
    13  N    5.429231   5.302321   4.293412   2.379605   2.766420
    14  H    4.792249   4.018811   2.647208   2.684914   4.040916
    15  H    4.776540   4.502185   3.344253   3.365215   4.488879
    16  H    3.379363   3.844899   3.369407   4.402016   5.241840
    17  H    2.140435   3.374325   3.844985   6.053407   6.818033
    18  H    1.080163   2.140560   3.377948   6.451079   7.305794
    19  H    2.140261   1.080504   2.138037   5.408809   6.418096
    20  H    3.375983   2.137240   1.081178   3.485196   4.731795
    21  H    5.455645   4.540806   3.372447   1.079541   2.147455
    22  H    7.040228   6.371103   5.442217   2.144866   1.080913
    23  H    7.661670   7.413357   6.566987   3.373887   2.153469
    24  H    6.887551   6.963436   6.128584   3.784738   3.371246
                   11         12         13         14         15
    11  C    0.000000
    12  C    1.385508   0.000000
    13  N    2.383816   1.320836   0.000000
    14  H    4.746575   4.380075   3.263588   0.000000
    15  H    4.678182   3.818051   2.511034   1.783663   0.000000
    16  H    5.106843   4.065717   2.992577   3.704102   2.480100
    17  H    6.777939   5.954677   5.122353   5.478610   4.723632
    18  H    7.672450   7.226059   6.418636   5.853314   5.836521
    19  H    7.200872   7.067221   6.226677   4.703035   5.434667
    20  H    5.674722   5.584089   4.648227   2.426131   3.661999
    21  H    3.372864   3.781964   3.347588   2.508813   3.718279
    22  H    2.149188   3.366174   3.847326   4.762848   5.450028
    23  H    1.078864   2.148463   3.350497   5.814176   5.724536
    24  H    2.155027   1.082720   2.035363   5.271827   4.428383
                   16         17         18         19         20
    16  H    0.000000
    17  H    2.466485   0.000000
    18  H    4.272973   2.468059   0.000000
    19  H    4.925378   4.269014   2.467188   0.000000
    20  H    4.263916   4.926154   4.267535   2.457182   0.000000
    21  H    4.928155   6.390837   6.414638   4.984043   2.904722
    22  H    6.235050   7.653191   7.893309   6.804047   5.180828
    23  H    6.024290   7.583321   8.491946   8.088796   6.667990
    24  H    4.369111   6.214705   7.754990   7.874669   6.530103
                   21         22         23         24
    21  H    0.000000
    22  H    2.486215   0.000000
    23  H    4.283773   2.496802   0.000000
    24  H    4.863014   4.284570   2.498652   0.000000
 Stoichiometry    C12H11N
 Framework group  C1[X(C12H11N)]
 Deg. of freedom    66
 Full point group                 C1      NOp   1
 Largest Abelian subgroup         C1      NOp   1
 Largest concise Abelian subgroup C1      NOp   1
                         Standard orientation:                         
 ---------------------------------------------------------------------
 Center     Atomic      Atomic             Coordinates (Angstroms)
 Number     Number       Type             X           Y           Z
 ---------------------------------------------------------------------
      1          6           0        1.239495    0.122641    0.691619
      2          6           0        0.028462    0.217373    1.580169
      3          6           0       -1.197778    0.085408    0.713117
      4          6           0       -1.630398   -1.172474    0.313279
      5          6           0       -2.732429   -1.305972   -0.511310
      6          6           0       -3.411586   -0.182126   -0.951845
      7          6           0       -2.981242    1.074809   -0.564575
      8          6           0       -1.878960    1.207288    0.262163
      9          6           0        1.768206    1.249532    0.067696
     10          6           0        2.854048    1.096777   -0.775553
     11          6           0        3.373630   -0.173486   -0.973383
     12          6           0        2.774591   -1.230886   -0.308033
     13          7           0        1.740199   -1.090090    0.501174
     14          1           0        0.021143    1.173423    2.105033
     15          1           0        0.060448   -0.598912    2.301861
     16          1           0       -1.091752   -2.045868    0.649696
     17          1           0       -3.063539   -2.289433   -0.811906
     18          1           0       -4.272722   -0.285698   -1.595640
     19          1           0       -3.504962    1.955629   -0.907155
     20          1           0       -1.550282    2.192432    0.562842
     21          1           0        1.336791    2.223182    0.244597
     22          1           0        3.289369    1.953379   -1.270629
     23          1           0        4.219024   -0.336882   -1.623428
     24          1           0        3.138854   -2.243925   -0.423561
 ---------------------------------------------------------------------
 Rotational constants (GHZ):           1.8310738           0.4854959           0.4557693
 Standard basis: def2SVP (5D, 7F)
 There are   250 symmetry adapted cartesian basis functions of A   symmetry.
 There are   237 symmetry adapted basis functions of A   symmetry.
   237 basis functions,   402 primitive gaussians,   250 cartesian basis functions
    45 alpha electrons       45 beta electrons
       nuclear repulsion energy       706.9826442915 Hartrees.
 NAtoms=   24 NActive=   24 NUniq=   24 SFac= 1.00D+00 NAtFMM=   60 NAOKFM=F Big=F
 Integral buffers will be    131072 words long.
 Raffenetti 2 integral format.
 Two-electron integral symmetry is turned on.
 Nuclear repulsion after empirical dispersion term =      706.9684478860 Hartrees.
 One-electron integrals computed using PRISM.
   1 Symmetry operations used in ECPInt.
 ECPInt:  NShTT=    6216 NPrTT=   22568 LenC2=    5992 LenP2D=   16247.
 LDataN:  DoStor=T MaxTD1= 4 Len=   56
 NBasis=   237 RedAO= T EigKep=  2.68D-04  NBF=   237
 NBsUse=   237 1.00D-06 EigRej= -1.00D+00 NBFU=   237
 ExpMin= 1.22D-01 ExpMax= 1.71D+03 ExpMxC= 2.58D+02 IAcc=3 IRadAn=         5 AccDes= 0.00D+00
 Harris functional with IExCor= 4639 and IRadAn=       5 diagonalized for initial guess.
 HarFok:  IExCor= 4639 AccDes= 0.00D+00 IRadAn=         5 IDoV= 1 UseB2=F ITyADJ=14
 ICtDFT=  3500011 ScaDFX=  1.000000  1.000000  1.000000  1.000000
 FoFCou: FMM=F IPFlag=           0 FMFlag=      100000 FMFlg1=           0
         NFxFlg=           0 DoJE=T BraDBF=F KetDBF=T FulRan=T
         wScrn=  0.000000 ICntrl=       500 IOpCl=  0 I1Cent=   200000004 NGrid=           0
         NMat0=    1 NMatS0=      1 NMatT0=    0 NMatD0=    1 NMtDS0=    0 NMtDT0=    0
 Petite list used in FoFCou.
 Requested convergence on RMS density matrix=1.00D-08 within 128 cycles.
 Requested convergence on MAX density matrix=1.00D-06.
 Requested convergence on             energy=1.00D-06.
 No special actions if energy rises.
 Integral accuracy reduced to 1.0D-05 until final iterations.
 Initial convergence to 1.0D-05 achieved.  Increase integral accuracy.
 SCF Done:  E(RwB97XD) =  -518.106407605     A.U. after   14 cycles
            NFock= 14  Conv=0.73D-08     -V/T= 2.0103

 **********************************************************************

            Population analysis using the SCF Density.

 **********************************************************************

 Orbital symmetries:
       Occupied  (A) (A) (A) (A) (A) (A) (A) (A) (A) (A) (A) (A)
                 (A) (A) (A) (A) (A) (A) (A) (A) (A) (A) (A) (A)
                 (A) (A) (A) (A) (A) (A) (A) (A) (A) (A) (A) (A)
                 (A) (A) (A) (A) (A) (A) (A) (A) (A)
       Virtual   (A) (A) (A) (A) (A) (A) (A) (A) (A) (A) (A) (A)
                 (A) (A) (A) (A) (A) (A) (A) (A) (A) (A) (A) (A)
                 (A) (A) (A) (A) (A) (A) (A) (A) (A) (A) (A) (A)
                 (A) (A) (A) (A) (A) (A) (A) (A) (A) (A) (A) (A)
                 (A) (A) (A) (A) (A) (A) (A) (A) (A) (A) (A) (A)
                 (A) (A) (A) (A) (A) (A) (A) (A) (A) (A) (A) (A)
                 (A) (A) (A) (A) (A) (A) (A) (A) (A) (A) (A) (A)
                 (A) (A) (A) (A) (A) (A) (A) (A) (A) (A) (A) (A)
                 (A) (A) (A) (A) (A) (A) (A) (A) (A) (A) (A) (A)
                 (A) (A) (A) (A) (A) (A) (A) (A) (A) (A) (A) (A)
                 (A) (A) (A) (A) (A) (A) (A) (A) (A) (A) (A) (A)
                 (A) (A) (A) (A) (A) (A) (A) (A) (A) (A) (A) (A)
                 (A) (A) (A) (A) (A) (A) (A) (A) (A) (A) (A) (A)
                 (A) (A) (A) (A) (A) (A) (A) (A) (A) (A) (A) (A)
                 (A) (A) (A) (A) (A) (A) (A) (A) (A) (A) (A) (A)
                 (A) (A) (A) (A) (A) (A) (A) (A) (A) (A) (A) (A)
 The electronic state is 1-A.
 Alpha  occ. eigenvalues --  -14.43463 -10.33957 -10.33175 -10.31934 -10.30665
 Alpha  occ. eigenvalues --  -10.30619 -10.30393 -10.29921 -10.29585 -10.29478
 Alpha  occ. eigenvalues --  -10.29461 -10.29342 -10.29075  -1.04683  -0.95668
 Alpha  occ. eigenvalues --   -0.90152  -0.89362  -0.84422  -0.83715  -0.78240
 Alpha  occ. eigenvalues --   -0.72659  -0.70444  -0.69370  -0.66992  -0.61413
 Alpha  occ. eigenvalues --   -0.60039  -0.58511  -0.55235  -0.54527  -0.53935
 Alpha  occ. eigenvalues --   -0.51936  -0.50829  -0.50486  -0.49336  -0.47924
 Alpha  occ. eigenvalues --   -0.46616  -0.45710  -0.44202  -0.42305  -0.41898
 Alpha  occ. eigenvalues --   -0.37118  -0.34162  -0.33716  -0.32906  -0.31501
 Alpha virt. eigenvalues --    0.04048   0.04832   0.06877   0.07773   0.13600
 Alpha virt. eigenvalues --    0.15472   0.16642   0.18174   0.19548   0.20754
 Alpha virt. eigenvalues --    0.21623   0.22073   0.22528   0.23381   0.24554
 Alpha virt. eigenvalues --    0.24939   0.25668   0.27670   0.32620   0.33241
 Alpha virt. eigenvalues --    0.35661   0.36898   0.38115   0.39412   0.40122
 Alpha virt. eigenvalues --    0.40293   0.41269   0.43999   0.44950   0.46317
 Alpha virt. eigenvalues --    0.48734   0.49490   0.50266   0.50884   0.52435
 Alpha virt. eigenvalues --    0.53275   0.54776   0.55208   0.55482   0.56761
 Alpha virt. eigenvalues --    0.57534   0.57841   0.59203   0.59355   0.61772
 Alpha virt. eigenvalues --    0.62668   0.63614   0.63988   0.67268   0.68184
 Alpha virt. eigenvalues --    0.69031   0.69949   0.71524   0.72221   0.73291
 Alpha virt. eigenvalues --    0.73848   0.74583   0.74961   0.76282   0.77374
 Alpha virt. eigenvalues --    0.78054   0.78766   0.79426   0.80849   0.81286
 Alpha virt. eigenvalues --    0.81784   0.82311   0.83151   0.83674   0.84402
 Alpha virt. eigenvalues --    0.84994   0.85583   0.88321   0.88624   0.90632
 Alpha virt. eigenvalues --    0.93491   0.93986   0.97354   0.99991   1.03828
 Alpha virt. eigenvalues --    1.06016   1.08283   1.13178   1.15532   1.18560
 Alpha virt. eigenvalues --    1.18982   1.20317   1.24125   1.28537   1.30445
 Alpha virt. eigenvalues --    1.30810   1.32324   1.33391   1.33753   1.34341
 Alpha virt. eigenvalues --    1.35526   1.38050   1.38695   1.39411   1.41457
 Alpha virt. eigenvalues --    1.42934   1.45464   1.46827   1.58616   1.61024
 Alpha virt. eigenvalues --    1.67788   1.70364   1.74135   1.76841   1.78031
 Alpha virt. eigenvalues --    1.78714   1.79628   1.80431   1.82627   1.83443
 Alpha virt. eigenvalues --    1.84413   1.84944   1.85438   1.85937   1.86317
 Alpha virt. eigenvalues --    1.87094   1.87325   1.89342   1.90055   1.90807
 Alpha virt. eigenvalues --    1.91778   1.93008   1.96094   1.98249   2.00740
 Alpha virt. eigenvalues --    2.02229   2.02559   2.02929   2.04250   2.06115
 Alpha virt. eigenvalues --    2.06763   2.08149   2.09896   2.11116   2.14593
 Alpha virt. eigenvalues --    2.17356   2.18474   2.20725   2.21315   2.23558
 Alpha virt. eigenvalues --    2.23900   2.26193   2.26551   2.29615   2.33787
 Alpha virt. eigenvalues --    2.36591   2.38149   2.40245   2.40407   2.41535
 Alpha virt. eigenvalues --    2.42811   2.45554   2.48027   2.48424   2.50685
 Alpha virt. eigenvalues --    2.54611   2.57155   2.58607   2.63948   2.66482
 Alpha virt. eigenvalues --    2.70175   2.71884   2.72327   2.75441   2.78159
 Alpha virt. eigenvalues --    2.79676   2.82353   2.83243   2.84615   2.84882
 Alpha virt. eigenvalues --    2.91737   2.92778   2.96269   2.98799   3.00101
 Alpha virt. eigenvalues --    3.02127   3.05310   3.10652   3.16392   3.19721
 Alpha virt. eigenvalues --    3.21832   3.25544   3.26145   3.37548   3.47208
 Alpha virt. eigenvalues --    3.76533   3.77820
          Condensed to atoms (all electrons):
               1          2          3          4          5          6
     1  C    5.030577   0.368700  -0.083304  -0.003512   0.000017   0.000160
     2  C    0.368700   4.642839   0.433727  -0.081487   0.008725   0.000175
     3  C   -0.083304   0.433727   5.287851   0.284078   0.082609  -0.150455
     4  C   -0.003512  -0.081487   0.284078   5.096688   0.311399   0.076152
     5  C    0.000017   0.008725   0.082609   0.311399   5.025363   0.299046
     6  C    0.000160   0.000175  -0.150455   0.076152   0.299046   5.070414
     7  C    0.000037   0.009879   0.078032  -0.122346   0.071428   0.310952
     8  C   -0.009113  -0.076326   0.308363   0.036458  -0.126936   0.072567
     9  C    0.413387  -0.105080  -0.005516   0.000551   0.000030   0.000016
    10  C    0.001567   0.006254  -0.000110   0.000272  -0.000007   0.000001
    11  C   -0.076481   0.001103  -0.000041  -0.000100   0.000003   0.000000
    12  C   -0.052802   0.006445   0.000070   0.000281   0.000008  -0.000000
    13  N    0.552072  -0.085869  -0.016288   0.006712  -0.000126   0.000019
    14  H   -0.003117   0.364056  -0.019739   0.011920  -0.000577   0.000026
    15  H   -0.008790   0.342506  -0.003902  -0.012841   0.001148   0.000035
    16  H   -0.000789  -0.015819  -0.071114   0.454179  -0.063754   0.013991
    17  H   -0.000004  -0.000268   0.015656  -0.068275   0.452519  -0.071854
    18  H    0.000001   0.000026  -0.001610   0.013601  -0.067326   0.449842
    19  H   -0.000006  -0.000286   0.015791  -0.001960   0.013895  -0.070938
    20  H   -0.001769  -0.012136  -0.073369   0.013619  -0.001751   0.013925
    21  H   -0.047018  -0.005869  -0.001988  -0.000198   0.000001  -0.000004
    22  H    0.011925  -0.000339  -0.000006   0.000004   0.000000   0.000000
    23  H    0.000288   0.000077   0.000004  -0.000003  -0.000000  -0.000000
    24  H    0.006101  -0.000212   0.000060   0.000004  -0.000001  -0.000000
               7          8          9         10         11         12
     1  C    0.000037  -0.009113   0.413387   0.001567  -0.076481  -0.052802
     2  C    0.009879  -0.076326  -0.105080   0.006254   0.001103   0.006445
     3  C    0.078032   0.308363  -0.005516  -0.000110  -0.000041   0.000070
     4  C   -0.122346   0.036458   0.000551   0.000272  -0.000100   0.000281
     5  C    0.071428  -0.126936   0.000030  -0.000007   0.000003   0.000008
     6  C    0.310952   0.072567   0.000016   0.000001   0.000000  -0.000000
     7  C    5.004161   0.321728  -0.000630   0.000001   0.000000  -0.000002
     8  C    0.321728   5.092010   0.008543  -0.000430   0.000021  -0.000007
     9  C   -0.000630   0.008543   5.030279   0.408788   0.020849  -0.078891
    10  C    0.000001  -0.000430   0.408788   4.839521   0.411607  -0.003908
    11  C    0.000000   0.000021   0.020849   0.411607   4.992305   0.435957
    12  C   -0.000002  -0.000007  -0.078891  -0.003908   0.435957   4.728007
    13  N    0.000011   0.000095  -0.057728  -0.041137  -0.040089   0.530591
    14  H    0.001146  -0.013279  -0.014695   0.001957  -0.000226  -0.000140
    15  H   -0.000598   0.008587   0.013226  -0.000696   0.000264   0.000697
    16  H   -0.002052   0.014402   0.000465   0.000029   0.000052   0.000310
    17  H    0.013928  -0.001886   0.000001   0.000000  -0.000000  -0.000000
    18  H   -0.067327   0.013774  -0.000000  -0.000000   0.000000  -0.000000
    19  H    0.450403  -0.067636   0.000005  -0.000000   0.000000   0.000000
    20  H   -0.062989   0.449516   0.001482   0.000088  -0.000001  -0.000001
    21  H    0.000147   0.002187   0.427821  -0.054415   0.011299  -0.000176
    22  H   -0.000000   0.000001  -0.056919   0.442055  -0.061565   0.009811
    23  H    0.000000  -0.000000   0.010965  -0.056088   0.425863  -0.044384
    24  H    0.000000  -0.000000   0.000698   0.006758  -0.070636   0.427086
              13         14         15         16         17         18
     1  C    0.552072  -0.003117  -0.008790  -0.000789  -0.000004   0.000001
     2  C   -0.085869   0.364056   0.342506  -0.015819  -0.000268   0.000026
     3  C   -0.016288  -0.019739  -0.003902  -0.071114   0.015656  -0.001610
     4  C    0.006712   0.011920  -0.012841   0.454179  -0.068275   0.013601
     5  C   -0.000126  -0.000577   0.001148  -0.063754   0.452519  -0.067326
     6  C    0.000019   0.000026   0.000035   0.013991  -0.071854   0.449842
     7  C    0.000011   0.001146  -0.000598  -0.002052   0.013928  -0.067327
     8  C    0.000095  -0.013279   0.008587   0.014402  -0.001886   0.013774
     9  C   -0.057728  -0.014695   0.013226   0.000465   0.000001  -0.000000
    10  C   -0.041137   0.001957  -0.000696   0.000029   0.000000  -0.000000
    11  C   -0.040089  -0.000226   0.000264   0.000052  -0.000000   0.000000
    12  C    0.530591  -0.000140   0.000697   0.000310  -0.000000  -0.000000
    13  N    6.293187   0.004679   0.005151   0.008892  -0.000012   0.000000
    14  H    0.004679   0.673834  -0.029022   0.000332   0.000007  -0.000001
    15  H    0.005151  -0.029022   0.642916   0.005179  -0.000008  -0.000001
    16  H    0.008892   0.000332   0.005179   0.659519  -0.012166  -0.000224
    17  H   -0.000012   0.000007  -0.000008  -0.012166   0.672654  -0.012096
    18  H    0.000000  -0.000001  -0.000001  -0.000224  -0.012096   0.672130
    19  H    0.000000  -0.000008   0.000007   0.000023  -0.000243  -0.012152
    20  H   -0.000019   0.004293   0.000234  -0.000218   0.000029  -0.000251
    21  H    0.005492   0.001321   0.000101  -0.000043   0.000000  -0.000000
    22  H   -0.000232   0.000014   0.000009   0.000000  -0.000000   0.000000
    23  H    0.005423  -0.000003  -0.000005  -0.000002   0.000000  -0.000000
    24  H   -0.040023   0.000009  -0.000111  -0.000139   0.000000  -0.000000
              19         20         21         22         23         24
     1  C   -0.000006  -0.001769  -0.047018   0.011925   0.000288   0.006101
     2  C   -0.000286  -0.012136  -0.005869  -0.000339   0.000077  -0.000212
     3  C    0.015791  -0.073369  -0.001988  -0.000006   0.000004   0.000060
     4  C   -0.001960   0.013619  -0.000198   0.000004  -0.000003   0.000004
     5  C    0.013895  -0.001751   0.000001   0.000000  -0.000000  -0.000001
     6  C   -0.070938   0.013925  -0.000004   0.000000  -0.000000  -0.000000
     7  C    0.450403  -0.062989   0.000147  -0.000000   0.000000   0.000000
     8  C   -0.067636   0.449516   0.002187   0.000001  -0.000000  -0.000000
     9  C    0.000005   0.001482   0.427821  -0.056919   0.010965   0.000698
    10  C   -0.000000   0.000088  -0.054415   0.442055  -0.056088   0.006758
    11  C    0.000000  -0.000001   0.011299  -0.061565   0.425863  -0.070636
    12  C    0.000000  -0.000001  -0.000176   0.009811  -0.044384   0.427086
    13  N    0.000000  -0.000019   0.005492  -0.000232   0.005423  -0.040023
    14  H   -0.000008   0.004293   0.001321   0.000014  -0.000003   0.000009
    15  H    0.000007   0.000234   0.000101   0.000009  -0.000005  -0.000111
    16  H    0.000023  -0.000218  -0.000043   0.000000  -0.000002  -0.000139
    17  H   -0.000243   0.000029   0.000000  -0.000000   0.000000   0.000000
    18  H   -0.012152  -0.000251  -0.000000   0.000000  -0.000000  -0.000000
    19  H    0.676362  -0.012794  -0.000001  -0.000000   0.000000   0.000000
    20  H   -0.012794   0.689155   0.000492  -0.000001  -0.000000  -0.000000
    21  H   -0.000001   0.000492   0.665510  -0.011039  -0.000151   0.000068
    22  H   -0.000000  -0.000001  -0.011039   0.652406  -0.010888  -0.000254
    23  H    0.000000  -0.000000  -0.000151  -0.010888   0.651402  -0.006463
    24  H    0.000000  -0.000000   0.000068  -0.000254  -0.006463   0.649254
 Mulliken charges:
               1
     1  C   -0.098127
     2  C    0.199178
     3  C   -0.078801
     4  C   -0.015196
     5  C   -0.005712
     6  C   -0.014071
     7  C   -0.005909
     8  C   -0.032636
     9  C   -0.017644
    10  C    0.037894
    11  C   -0.050184
    12  C    0.041050
    13  N   -0.130799
    14  H    0.017213
    15  H    0.035911
    16  H    0.008948
    17  H    0.012019
    18  H    0.011613
    19  H    0.009540
    20  H   -0.007534
    21  H    0.006463
    22  H    0.025018
    23  H    0.023968
    24  H    0.027802
 Sum of Mulliken charges =  -0.00000
 Mulliken charges with hydrogens summed into heavy atoms:
               1
     1  C   -0.098127
     2  C    0.252301
     3  C   -0.078801
     4  C   -0.006248
     5  C    0.006307
     6  C   -0.002458
     7  C    0.003631
     8  C   -0.040171
     9  C   -0.011181
    10  C    0.062912
    11  C   -0.026216
    12  C    0.068852
    13  N   -0.130799
 Electronic spatial extent (au):  <R**2>=           2568.4520
 Charge=             -0.0000 electrons
 Dipole moment (field-independent basis, Debye):
    X=              0.8514    Y=              1.4438    Z=             -0.7995  Tot=              1.8571
 Quadrupole moment (field-independent basis, Debye-Ang):
   XX=            -70.2303   YY=            -70.0713   ZZ=            -76.0209
   XY=              1.3824   XZ=             -1.4988   YZ=              1.2859
 Traceless Quadrupole moment (field-independent basis, Debye-Ang):
   XX=              1.8772   YY=              2.0362   ZZ=             -3.9134
   XY=              1.3824   XZ=             -1.4988   YZ=              1.2859
 Octapole moment (field-independent basis, Debye-Ang**2):
  XXX=             18.9130  YYY=              3.7524  ZZZ=              3.5120  XYY=             -0.2210
  XXY=             -1.6128  XXZ=            -33.9500  XZZ=              3.6980  YZZ=              0.8650
  YYZ=             -4.1675  XYZ=             -0.1506
 Hexadecapole moment (field-independent basis, Debye-Ang**3):
 XXXX=          -2522.1228 YYYY=           -530.5275 ZZZZ=           -382.0710 XXXY=            -18.2122
 XXXZ=             -2.2012 YYYX=              2.1522 YYYZ=              4.1582 ZZZX=             -1.8254
 ZZZY=             -1.8707 XXYY=           -485.0509 XXZZ=           -483.2202 YYZZ=           -157.6933
 XXYZ=             -0.4660 YYXZ=             -5.4822 ZZXY=              4.2351
 N-N= 7.069684478860D+02 E-N=-2.613519600153D+03  KE= 5.128061915641D+02
   1 Symmetry operations used in ECPInt.
 ECPInt:  NShTT=    6216 NPrTT=   22568 LenC2=    5992 LenP2D=   16247.
 LDataN:  DoStor=T MaxTD1= 5 Len=  102
 Calling FoFJK, ICntrl=      2127 FMM=F ISym2X=0 I1Cent= 0 IOpClX= 0 NMat=1 NMatS=1 NMatT=0.
 ***** Axes restored to original set *****
 -------------------------------------------------------------------
 Center     Atomic                   Forces (Hartrees/Bohr)
 Number     Number              X              Y              Z
 -------------------------------------------------------------------
      1        6          -0.000109714   -0.002941182    0.006003275
      2        6           0.000998273    0.001791505   -0.008216651
      3        6          -0.002282824   -0.003051021    0.006998258
      4        6           0.000719485    0.000558721    0.000240381
      5        6           0.000565105    0.001425748   -0.000433444
      6        6           0.001686466    0.000257883   -0.001361737
      7        6           0.000900872   -0.001181647   -0.001644949
      8        6           0.000626746   -0.000299643    0.000147977
      9        6          -0.001759053    0.001438938    0.000082187
     10        6           0.000381717    0.000917330    0.000218373
     11        6           0.000379838   -0.001019530   -0.000090629
     12        6          -0.001435893    0.001077787   -0.001359691
     13        7           0.005424345    0.004135636    0.006800675
     14        1           0.000223220   -0.005324511    0.002623353
     15        1          -0.001333100    0.001463858    0.005119544
     16        1          -0.004285055    0.006780711    0.004529198
     17        1           0.003097616    0.008104771   -0.000222100
     18        1           0.007117808    0.001701933   -0.004740126
     19        1           0.003890474   -0.006338519   -0.004358452
     20        1          -0.003252943   -0.008245353    0.000627705
     21        1           0.003233955   -0.008307815   -0.000604623
     22        1          -0.003634208   -0.005128431   -0.005373013
     23        1          -0.006807582    0.003565355   -0.004573621
     24        1          -0.004345548    0.008617474   -0.000411891
 -------------------------------------------------------------------
 Cartesian Forces:  Max     0.008617474 RMS     0.003864329

 GradGradGradGradGradGradGradGradGradGradGradGradGradGradGradGradGradGrad
 Berny optimization.
 FormGI is forming the generalized inverse of G from B-inverse, IUseBI=4.
 Internal  Forces:  Max     0.012793239 RMS     0.004276532
 Search for a local minimum.
 Step number   1 out of a maximum of  131
 All quantities printed in internal units (Hartrees-Bohrs-Radians)
 Mixed Optimization -- RFO/linear search
 Second derivative matrix not updated -- first step.
 ITU=  0
     Eigenvalues ---    0.00665   0.00699   0.01609   0.01610   0.02240
     Eigenvalues ---    0.02249   0.02268   0.02271   0.02273   0.02277
     Eigenvalues ---    0.02290   0.02291   0.02294   0.02298   0.02300
     Eigenvalues ---    0.02304   0.02317   0.02423   0.02606   0.05562
     Eigenvalues ---    0.06692   0.09210   0.12787   0.16000   0.16000
     Eigenvalues ---    0.16000   0.16000   0.16000   0.16000   0.16000
     Eigenvalues ---    0.16000   0.16000   0.22000   0.22000   0.22000
     Eigenvalues ---    0.22002   0.22426   0.23471   0.24423   0.24977
     Eigenvalues ---    0.24986   0.31593   0.31856   0.34735   0.34808
     Eigenvalues ---    0.35668   0.35852   0.35884   0.35934   0.35950
     Eigenvalues ---    0.35975   0.36009   0.36050   0.36132   0.43366
     Eigenvalues ---    0.43493   0.43509   0.45731   0.47466   0.47748
     Eigenvalues ---    0.47964   0.48210   0.48324   0.48492   0.58426
     Eigenvalues ---    0.60349
 RFO step:  Lambda=-5.74304597D-03 EMin= 6.65414922D-03
 Linear search not attempted -- first point.
 Iteration  1 RMS(Cart)=  0.05638372 RMS(Int)=  0.00030978
 Iteration  2 RMS(Cart)=  0.00074544 RMS(Int)=  0.00006275
 Iteration  3 RMS(Cart)=  0.00000040 RMS(Int)=  0.00006275
 Variable       Old X    -DE/DX   Delta X   Delta X   Delta X     New X
                                 (Linear)    (Quad)   (Total)
    R1        2.84408   0.00709   0.00000   0.02187   0.02187   2.86596
    R2        2.63120   0.00805   0.00000   0.01687   0.01687   2.64807
    R3        2.50536   0.01033   0.00000   0.01735   0.01736   2.52271
    R4        2.84895   0.00732   0.00000   0.02276   0.02276   2.87171
    R5        2.06107   0.00577   0.00000   0.01635   0.01635   2.07742
    R6        2.05987   0.00507   0.00000   0.01432   0.01432   2.07420
    R7        2.62481   0.01085   0.00000   0.02258   0.02258   2.64740
    R8        2.62256   0.01072   0.00000   0.02221   0.02221   2.64476
    R9        2.61319   0.01081   0.00000   0.02199   0.02199   2.63518
   R10        2.04067   0.00921   0.00000   0.02517   0.02517   2.06584
   R11        2.61736   0.01033   0.00000   0.02120   0.02120   2.63855
   R12        2.04159   0.00868   0.00000   0.02376   0.02376   2.06535
   R13        2.61511   0.01000   0.00000   0.02042   0.02042   2.63553
   R14        2.04121   0.00872   0.00000   0.02386   0.02386   2.06507
   R15        2.61580   0.01100   0.00000   0.02249   0.02248   2.63828
   R16        2.04186   0.00862   0.00000   0.02361   0.02361   2.06546
   R17        2.04313   0.00888   0.00000   0.02438   0.02438   2.06751
   R18        2.61401   0.00807   0.00000   0.01577   0.01577   2.62979
   R19        2.04004   0.00893   0.00000   0.02439   0.02439   2.06443
   R20        2.62030   0.00730   0.00000   0.01450   0.01450   2.63480
   R21        2.04263   0.00827   0.00000   0.02268   0.02268   2.06531
   R22        2.61823   0.00755   0.00000   0.01566   0.01566   2.63389
   R23        2.03876   0.00893   0.00000   0.02433   0.02433   2.06308
   R24        2.49602   0.01279   0.00000   0.02106   0.02106   2.51708
   R25        2.04604   0.00933   0.00000   0.02575   0.02575   2.07180
    A1        2.11666  -0.00002   0.00000  -0.00051  -0.00053   2.11613
    A2        2.03340   0.00159   0.00000   0.00580   0.00579   2.03919
    A3        2.13240  -0.00158   0.00000  -0.00558  -0.00558   2.12682
    A4        1.88539   0.00908   0.00000   0.04615   0.04595   1.93134
    A5        1.92270  -0.00136   0.00000   0.00220   0.00192   1.92462
    A6        1.89667  -0.00365   0.00000  -0.01964  -0.01981   1.87686
    A7        1.92627  -0.00280   0.00000  -0.00776  -0.00813   1.91815
    A8        1.91675  -0.00111   0.00000   0.00009   0.00018   1.91693
    A9        1.91560  -0.00006   0.00000  -0.02027  -0.02042   1.89518
   A10        2.09227   0.00107   0.00000   0.00419   0.00419   2.09646
   A11        2.11222   0.00054   0.00000   0.00212   0.00211   2.11433
   A12        2.07792  -0.00161   0.00000  -0.00649  -0.00648   2.07144
   A13        2.10284   0.00066   0.00000   0.00281   0.00279   2.10563
   A14        2.07992  -0.00032   0.00000  -0.00134  -0.00136   2.07855
   A15        2.10041  -0.00035   0.00000  -0.00152  -0.00154   2.09887
   A16        2.09683   0.00040   0.00000   0.00167   0.00167   2.09850
   A17        2.09213  -0.00031   0.00000  -0.00152  -0.00152   2.09061
   A18        2.09423  -0.00009   0.00000  -0.00015  -0.00015   2.09408
   A19        2.08920  -0.00053   0.00000  -0.00244  -0.00244   2.08676
   A20        2.09750   0.00025   0.00000   0.00114   0.00114   2.09865
   A21        2.09648   0.00028   0.00000   0.00130   0.00130   2.09778
   A22        2.09637  -0.00004   0.00000  -0.00031  -0.00031   2.09605
   A23        2.09552  -0.00002   0.00000  -0.00007  -0.00007   2.09544
   A24        2.09130   0.00006   0.00000   0.00038   0.00038   2.09169
   A25        2.10316   0.00112   0.00000   0.00482   0.00482   2.10798
   A26        2.09094  -0.00080   0.00000  -0.00383  -0.00383   2.08711
   A27        2.08908  -0.00032   0.00000  -0.00099  -0.00099   2.08809
   A28        2.07357   0.00119   0.00000   0.00335   0.00335   2.07692
   A29        2.09991  -0.00081   0.00000  -0.00294  -0.00295   2.09696
   A30        2.10970  -0.00039   0.00000  -0.00039  -0.00040   2.10930
   A31        2.07405   0.00091   0.00000   0.00108   0.00108   2.07513
   A32        2.10346  -0.00048   0.00000  -0.00073  -0.00073   2.10274
   A33        2.10567  -0.00042   0.00000  -0.00035  -0.00035   2.10532
   A34        2.05853   0.00022   0.00000  -0.00022  -0.00023   2.05830
   A35        2.11570   0.00039   0.00000   0.00310   0.00310   2.11880
   A36        2.10896  -0.00060   0.00000  -0.00287  -0.00287   2.10609
   A37        2.15490  -0.00078   0.00000  -0.00197  -0.00197   2.15293
   A38        2.11457  -0.00216   0.00000  -0.01438  -0.01438   2.10019
   A39        2.01371   0.00293   0.00000   0.01634   0.01634   2.03006
   A40        2.07291   0.00003   0.00000   0.00335   0.00335   2.07626
    D1        1.52321  -0.00005   0.00000   0.01211   0.01231   1.53552
    D2       -0.58205  -0.00144   0.00000  -0.00831  -0.00840  -0.59044
    D3       -2.68125   0.00173   0.00000   0.02742   0.02727  -2.65398
    D4       -1.57833   0.00016   0.00000   0.02033   0.02056  -1.55777
    D5        2.59960  -0.00123   0.00000  -0.00009  -0.00015   2.59946
    D6        0.50040   0.00194   0.00000   0.03564   0.03552   0.53592
    D7       -3.10232   0.00035   0.00000   0.01389   0.01386  -3.08845
    D8        0.04260   0.00011   0.00000   0.00585   0.00583   0.04843
    D9       -0.00308   0.00020   0.00000   0.00546   0.00547   0.00239
   D10       -3.14135  -0.00003   0.00000  -0.00257  -0.00256   3.13927
   D11        3.10082  -0.00034   0.00000  -0.01241  -0.01241   3.08841
   D12       -0.00032  -0.00017   0.00000  -0.00424  -0.00424  -0.00456
   D13        1.41188  -0.00116   0.00000  -0.04403  -0.04398   1.36790
   D14       -1.68706  -0.00103   0.00000  -0.03907  -0.03900  -1.72605
   D15       -2.76828   0.00115   0.00000  -0.01725  -0.01725  -2.78553
   D16        0.41597   0.00129   0.00000  -0.01228  -0.01226   0.40371
   D17       -0.65405  -0.00145   0.00000  -0.04747  -0.04755  -0.70161
   D18        2.53019  -0.00131   0.00000  -0.04250  -0.04257   2.48763
   D19       -3.11124   0.00034   0.00000   0.01294   0.01293  -3.09831
   D20        0.02410   0.00003   0.00000   0.00190   0.00189   0.02600
   D21       -0.01147   0.00026   0.00000   0.00828   0.00827  -0.00319
   D22        3.12388  -0.00006   0.00000  -0.00276  -0.00277   3.12111
   D23        3.10939  -0.00030   0.00000  -0.01182  -0.01182   3.09758
   D24       -0.03824  -0.00027   0.00000  -0.01078  -0.01077  -0.04901
   D25        0.01011  -0.00023   0.00000  -0.00715  -0.00715   0.00295
   D26       -3.13752  -0.00020   0.00000  -0.00611  -0.00611   3.13955
   D27        0.00572  -0.00014   0.00000  -0.00471  -0.00473   0.00099
   D28       -3.13582  -0.00014   0.00000  -0.00473  -0.00474  -3.14057
   D29       -3.12955   0.00018   0.00000   0.00645   0.00644  -3.12311
   D30        0.01209   0.00018   0.00000   0.00643   0.00643   0.01852
   D31        0.00153  -0.00000   0.00000  -0.00001  -0.00002   0.00151
   D32       -3.14116   0.00008   0.00000   0.00267   0.00267  -3.13849
   D33       -3.14011  -0.00000   0.00000   0.00000  -0.00001  -3.14012
   D34        0.00038   0.00008   0.00000   0.00269   0.00269   0.00307
   D35       -0.00289   0.00003   0.00000   0.00113   0.00114  -0.00175
   D36        3.13846   0.00014   0.00000   0.00467   0.00468  -3.14005
   D37        3.13981  -0.00005   0.00000  -0.00155  -0.00156   3.13825
   D38       -0.00203   0.00006   0.00000   0.00198   0.00198  -0.00005
   D39       -0.00300   0.00008   0.00000   0.00248   0.00249  -0.00051
   D40       -3.13856   0.00005   0.00000   0.00145   0.00146  -3.13710
   D41        3.13884  -0.00003   0.00000  -0.00105  -0.00104   3.13780
   D42        0.00328  -0.00006   0.00000  -0.00208  -0.00207   0.00120
   D43        0.00441  -0.00012   0.00000  -0.00398  -0.00399   0.00042
   D44       -3.13662  -0.00011   0.00000  -0.00364  -0.00365  -3.14027
   D45       -3.14052   0.00011   0.00000   0.00410   0.00409  -3.13643
   D46        0.00163   0.00012   0.00000   0.00444   0.00443   0.00607
   D47       -0.00253   0.00004   0.00000   0.00158   0.00157  -0.00096
   D48        3.14062   0.00005   0.00000   0.00184   0.00184  -3.14073
   D49        3.13850   0.00003   0.00000   0.00124   0.00123   3.13973
   D50       -0.00153   0.00004   0.00000   0.00150   0.00150  -0.00003
   D51       -0.00091  -0.00001   0.00000  -0.00036  -0.00035  -0.00127
   D52       -3.13999   0.00002   0.00000   0.00025   0.00026  -3.13973
   D53        3.13913  -0.00002   0.00000  -0.00062  -0.00062   3.13851
   D54        0.00005   0.00000   0.00000  -0.00001  -0.00001   0.00004
   D55        0.00236   0.00007   0.00000   0.00165   0.00166   0.00403
   D56        3.14157   0.00005   0.00000   0.00104   0.00104  -3.14057
         Item               Value     Threshold  Converged?
 Maximum Force            0.012793     0.000450     NO 
 RMS     Force            0.004277     0.000300     NO 
 Maximum Displacement     0.214238     0.001800     NO 
 RMS     Displacement     0.056512     0.001200     NO 
 Predicted change in Energy=-2.949818D-03
 GradGradGradGradGradGradGradGradGradGradGradGradGradGradGradGradGradGrad

                          Input orientation:                          
 ---------------------------------------------------------------------
 Center     Atomic      Atomic             Coordinates (Angstroms)
 Number     Number       Type             X           Y           Z
 ---------------------------------------------------------------------
      1          6           0       -1.279769   -0.228563    0.623468
      2          6           0       -0.061475   -0.639341    1.427887
      3          6           0        1.213615   -0.362343    0.648954
      4          6           0        1.724545    0.940123    0.577046
      5          6           0        2.864836    1.215691   -0.176853
      6          6           0        3.512118    0.192509   -0.872320
      7          6           0        3.009663   -1.106985   -0.809584
      8          6           0        1.868041   -1.380421   -0.053885
      9          6           0       -1.892504   -1.115485   -0.271831
     10          6           0       -2.968603   -0.669425   -1.033184
     11          6           0       -3.402195    0.646909   -0.880634
     12          6           0       -2.729707    1.453792    0.035533
     13          7           0       -1.701028    1.029933    0.767884
     14          1           0       -0.117759   -1.706359    1.686378
     15          1           0       -0.065339   -0.053805    2.356272
     16          1           0        1.207509    1.743964    1.107700
     17          1           0        3.251889    2.236786   -0.222350
     18          1           0        4.407397    0.407774   -1.460810
     19          1           0        3.510750   -1.914388   -1.349634
     20          1           0        1.482752   -2.403314   -0.006481
     21          1           0       -1.523367   -2.139057   -0.369200
     22          1           0       -3.465222   -1.341059   -1.737982
     23          1           0       -4.242693    1.039234   -1.456424
     24          1           0       -3.038816    2.494533    0.188141
 ---------------------------------------------------------------------
                    Distance matrix (angstroms):
                    1          2          3          4          5
     1  C    0.000000
     2  C    1.516598   0.000000
     3  C    2.497101   1.519644   0.000000
     4  C    3.223955   2.531503   1.400943   0.000000
     5  C    4.461405   3.818328   2.428720   1.394476   0.000000
     6  C    5.037546   4.330530   2.811628   2.419712   1.396263
     7  C    4.607005   3.828428   2.430558   2.786561   2.411669
     8  C    3.419692   2.543203   1.399549   2.409065   2.783616
     9  C    1.401298   2.543310   3.326115   4.246076   5.298649
    10  C    2.406453   3.809091   4.518278   5.216237   6.189990
    11  C    2.744716   4.259592   4.966280   5.338003   6.332022
    12  C    2.297456   3.665967   4.384566   4.516354   5.603634
    13  N    1.334963   2.431093   3.232294   3.432060   4.666278
    14  H    2.159613   1.099324   2.157588   3.410070   4.572295
    15  H    2.123203   1.097618   2.155424   2.712420   4.076060
    16  H    3.211214   2.719003   2.155693   1.093197   2.162379
    17  H    5.227741   4.687618   3.416021   2.157115   1.092939
    18  H    6.090402   5.423268   3.904411   3.410857   2.163509
    19  H    5.448322   4.701187   3.417605   3.879544   3.404411
    20  H    3.571821   2.748391   2.160461   3.402579   3.877677
    21  H    2.166729   2.759674   3.418248   4.574458   5.526993
    22  H    3.404452   4.701131   5.342927   6.123466   7.003123
    23  H    3.835646   5.349715   6.014012   6.304979   7.223947
    24  H    3.270933   4.496965   5.143662   5.025639   6.051592
                    6          7          8          9         10
     6  C    0.000000
     7  C    1.394662   0.000000
     8  C    2.418044   1.396120   0.000000
     9  C    5.592975   4.931581   3.776161   0.000000
    10  C    6.539767   5.998426   4.985746   1.391624   0.000000
    11  C    6.929234   6.647791   5.706923   2.399134   1.394277
    12  C    6.432372   6.341307   5.401856   2.719663   2.388991
    13  N    5.528873   5.407905   4.384446   2.391754   2.781800
    14  H    4.829974   4.045967   2.660480   2.708031   4.074133
    15  H    4.825212   4.537342   3.362547   3.372332   4.505146
    16  H    3.411556   3.879645   3.398141   4.437300   5.277095
    17  H    2.160844   3.403575   3.876545   6.140435   6.913612
    18  H    1.092787   2.161538   3.409606   6.589593   7.466498
    19  H    2.160288   1.092997   2.159301   5.567320   6.605458
    20  H    3.406802   2.157986   1.094077   3.622329   4.886211
    21  H    5.571843   4.669847   3.489498   1.092447   2.165502
    22  H    7.196144   6.545293   5.592980   2.161926   1.092915
    23  H    7.822738   7.590872   6.720336   3.401392   2.173006
    24  H    7.024147   7.109887   6.257083   3.815473   3.392226
                   11         12         13         14         15
    11  C    0.000000
    12  C    1.393795   0.000000
    13  N    2.399644   1.331981   0.000000
    14  H    4.786955   4.419741   3.292061   0.000000
    15  H    4.701401   3.841554   2.524469   1.783940   0.000000
    16  H    5.138713   4.090893   3.014117   3.741114   2.532004
    17  H    6.872982   6.038135   5.193115   5.526858   4.785404
    18  H    7.834764   7.366916   6.531999   5.903507   5.898181
    19  H    7.387084   7.225415   6.349452   4.735686   5.475757
    20  H    5.825008   5.711729   4.745870   2.431698   3.674150
    21  H    3.398995   3.811513   3.371501   2.527521   3.728581
    22  H    2.165879   3.390801   3.874706   4.802623   5.475321
    23  H    1.091737   2.164930   3.377528   5.867756   5.760354
    24  H    2.165188   1.096348   2.066599   5.331489   4.476202
                   16         17         18         19         20
    16  H    0.000000
    17  H    2.488252   0.000000
    18  H    4.315314   2.492843   0.000000
    19  H    4.972620   4.309295   2.491741   0.000000
    20  H    4.303147   4.970611   4.309389   2.481105   0.000000
    21  H    4.971595   6.478629   6.546138   5.133620   3.039432
    22  H    6.280898   7.760006   8.069286   7.010257   5.348732
    23  H    6.064328   7.689332   8.673109   8.297660   6.836242
    24  H    4.409106   6.309351   7.906940   8.043640   6.668685
                   21         22         23         24
    21  H    0.000000
    22  H    2.506226   0.000000
    23  H    4.321843   2.519828   0.000000
    24  H    4.906870   4.313182   2.504358   0.000000
 Stoichiometry    C12H11N
 Framework group  C1[X(C12H11N)]
 Deg. of freedom    66
 Full point group                 C1      NOp   1
 Largest Abelian subgroup         C1      NOp   1
 Largest concise Abelian subgroup C1      NOp   1
                         Standard orientation:                         
 ---------------------------------------------------------------------
 Center     Atomic      Atomic             Coordinates (Angstroms)
 Number     Number       Type             X           Y           Z
 ---------------------------------------------------------------------
      1          6           0        1.270396    0.153695    0.681514
      2          6           0        0.028690    0.286162    1.542145
      3          6           0       -1.226273    0.112502    0.702960
      4          6           0       -1.648098   -1.169143    0.326014
      5          6           0       -2.768617   -1.338260   -0.486636
      6          6           0       -3.484967   -0.227419   -0.936553
      7          6           0       -3.071414    1.052895   -0.569332
      8          6           0       -1.949419    1.219616    0.244598
      9          6           0        1.820000    1.261838    0.023038
     10          6           0        2.922307    1.075764   -0.805764
     11          6           0        3.444218   -0.208556   -0.954561
     12          6           0        2.829626   -1.247773   -0.258165
     13          7           0        1.776075   -1.073418    0.537954
     14          1           0        0.013197    1.266076    2.040184
     15          1           0        0.073957   -0.496190    2.310677
     16          1           0       -1.076850   -2.037658    0.664297
     17          1           0       -3.085824   -2.344647   -0.771383
     18          1           0       -4.364790   -0.359928   -1.571011
     19          1           0       -3.627008    1.928094   -0.915719
     20          1           0       -1.634090    2.227191    0.531590
     21          1           0        1.382302    2.253494    0.158983
     22          1           0        3.370993    1.923269   -1.330053
     23          1           0        4.308193   -0.400887   -1.593658
     24          1           0        3.208702   -2.272817   -0.345137
 ---------------------------------------------------------------------
 Rotational constants (GHZ):           1.8332278           0.4673683           0.4379954
 Standard basis: def2SVP (5D, 7F)
 There are   250 symmetry adapted cartesian basis functions of A   symmetry.
 There are   237 symmetry adapted basis functions of A   symmetry.
   237 basis functions,   402 primitive gaussians,   250 cartesian basis functions
    45 alpha electrons       45 beta electrons
       nuclear repulsion energy       699.1220844033 Hartrees.
 NAtoms=   24 NActive=   24 NUniq=   24 SFac= 1.00D+00 NAtFMM=   60 NAOKFM=F Big=F
 Integral buffers will be    131072 words long.
 Raffenetti 2 integral format.
 Two-electron integral symmetry is turned on.
 Nuclear repulsion after empirical dispersion term =      699.1081812073 Hartrees.
 One-electron integrals computed using PRISM.
   1 Symmetry operations used in ECPInt.
 ECPInt:  NShTT=    6216 NPrTT=   22568 LenC2=    5974 LenP2D=   16120.
 LDataN:  DoStor=T MaxTD1= 4 Len=   56
 NBasis=   237 RedAO= T EigKep=  2.91D-04  NBF=   237
 NBsUse=   237 1.00D-06 EigRej= -1.00D+00 NBFU=   237
 Initial guess from the checkpoint file:  "Py6_2.chk"
 B after Tr=    -0.000000    0.000000   -0.000000
         Rot=    0.999880    0.015443   -0.000006   -0.001318 Ang=   1.78 deg.
 ExpMin= 1.22D-01 ExpMax= 1.71D+03 ExpMxC= 2.58D+02 IAcc=3 IRadAn=         5 AccDes= 0.00D+00
 Harris functional with IExCor= 4639 and IRadAn=       5 diagonalized for initial guess.
 HarFok:  IExCor= 4639 AccDes= 0.00D+00 IRadAn=         5 IDoV= 1 UseB2=F ITyADJ=14
 ICtDFT=  3500011 ScaDFX=  1.000000  1.000000  1.000000  1.000000
 FoFCou: FMM=F IPFlag=           0 FMFlag=      100000 FMFlg1=           0
         NFxFlg=           0 DoJE=T BraDBF=F KetDBF=T FulRan=T
         wScrn=  0.000000 ICntrl=       500 IOpCl=  0 I1Cent=   200000004 NGrid=           0
         NMat0=    1 NMatS0=      1 NMatT0=    0 NMatD0=    1 NMtDS0=    0 NMtDT0=    0
 Petite list used in FoFCou.
 Requested convergence on RMS density matrix=1.00D-08 within 128 cycles.
 Requested convergence on MAX density matrix=1.00D-06.
 Requested convergence on             energy=1.00D-06.
 No special actions if energy rises.
 Integral accuracy reduced to 1.0D-05 until final iterations.
 Initial convergence to 1.0D-05 achieved.  Increase integral accuracy.
 SCF Done:  E(RwB97XD) =  -518.109078397     A.U. after   13 cycles
            NFock= 13  Conv=0.47D-08     -V/T= 2.0114
   1 Symmetry operations used in ECPInt.
 ECPInt:  NShTT=    6216 NPrTT=   22568 LenC2=    5974 LenP2D=   16120.
 LDataN:  DoStor=T MaxTD1= 5 Len=  102
 Calling FoFJK, ICntrl=      2127 FMM=F ISym2X=0 I1Cent= 0 IOpClX= 0 NMat=1 NMatS=1 NMatT=0.
 ***** Axes restored to original set *****
 -------------------------------------------------------------------
 Center     Atomic                   Forces (Hartrees/Bohr)
 Number     Number              X              Y              Z
 -------------------------------------------------------------------
      1        6          -0.000428982   -0.000045301   -0.000505211
      2        6           0.000561973    0.001882866   -0.003856264
      3        6          -0.000462720   -0.000381508    0.000611120
      4        6           0.000260575   -0.000481795   -0.001071120
      5        6          -0.000458685   -0.000797005    0.000336319
      6        6          -0.000770698   -0.000295335    0.000478220
      7        6          -0.000334391    0.000541950    0.000591181
      8        6           0.000394976    0.000953808    0.000349108
      9        6          -0.000496788    0.000606928    0.000033958
     10        6           0.000172734    0.000101578    0.000478678
     11        6           0.000511517   -0.000544425    0.000183145
     12        6           0.000484851   -0.001316876    0.000308898
     13        7           0.000764976    0.000552082    0.000377224
     14        1          -0.000194585   -0.000194003   -0.000011034
     15        1           0.000097081   -0.000388568    0.000978196
     16        1           0.000042117   -0.000192742   -0.000161120
     17        1          -0.000199255   -0.000306392    0.000097510
     18        1          -0.000369788   -0.000040027    0.000180810
     19        1          -0.000249162    0.000217141    0.000245784
     20        1           0.000037629    0.000237535   -0.000007415
     21        1          -0.000030349    0.000258716    0.000034277
     22        1           0.000210571    0.000134056    0.000200995
     23        1           0.000313405    0.000015085    0.000194259
     24        1           0.000142995   -0.000517768   -0.000067518
 -------------------------------------------------------------------
 Cartesian Forces:  Max     0.003856264 RMS     0.000668117

 GradGradGradGradGradGradGradGradGradGradGradGradGradGradGradGradGradGrad
 Berny optimization.
 Using GEDIIS/GDIIS optimizer.
 FormGI is forming the generalized inverse of G from B-inverse, IUseBI=4.
 Internal  Forces:  Max     0.002714442 RMS     0.000595356
 Search for a local minimum.
 Step number   2 out of a maximum of  131
 All quantities printed in internal units (Hartrees-Bohrs-Radians)
 Mixed Optimization -- En-DIIS/RFO-DIIS
 Update second derivatives using D2CorX and points    1    2
 DE= -2.67D-03 DEPred=-2.95D-03 R= 9.05D-01
 TightC=F SS=  1.41D+00  RLast= 1.64D-01 DXNew= 5.0454D-01 4.9271D-01
 Trust test= 9.05D-01 RLast= 1.64D-01 DXMaxT set to 4.93D-01
 ITU=  1  0
 Use linear search instead of GDIIS.
     Eigenvalues ---    0.00656   0.00699   0.01606   0.01612   0.02240
     Eigenvalues ---    0.02253   0.02269   0.02273   0.02273   0.02279
     Eigenvalues ---    0.02290   0.02291   0.02294   0.02298   0.02300
     Eigenvalues ---    0.02304   0.02318   0.02427   0.02609   0.05210
     Eigenvalues ---    0.06525   0.09645   0.13073   0.15970   0.15998
     Eigenvalues ---    0.16000   0.16000   0.16000   0.16000   0.16000
     Eigenvalues ---    0.16000   0.16013   0.21506   0.22000   0.22000
     Eigenvalues ---    0.22005   0.22430   0.23484   0.24522   0.24970
     Eigenvalues ---    0.25005   0.31698   0.32243   0.34621   0.34767
     Eigenvalues ---    0.35703   0.35858   0.35896   0.35941   0.35963
     Eigenvalues ---    0.35994   0.36037   0.36107   0.36601   0.43432
     Eigenvalues ---    0.43545   0.43609   0.45889   0.47493   0.47752
     Eigenvalues ---    0.48177   0.48279   0.48330   0.51164   0.59519
     Eigenvalues ---    0.60790
 RFO step:  Lambda=-2.31469072D-04 EMin= 6.55767697D-03
 Quartic linear search produced a step of -0.05650.
 Iteration  1 RMS(Cart)=  0.04082710 RMS(Int)=  0.00043208
 Iteration  2 RMS(Cart)=  0.00073625 RMS(Int)=  0.00000530
 Iteration  3 RMS(Cart)=  0.00000017 RMS(Int)=  0.00000530
 Variable       Old X    -DE/DX   Delta X   Delta X   Delta X     New X
                                 (Linear)    (Quad)   (Total)
    R1        2.86596  -0.00218  -0.00124  -0.00460  -0.00584   2.86012
    R2        2.64807  -0.00089  -0.00095  -0.00035  -0.00130   2.64676
    R3        2.52271  -0.00118  -0.00098  -0.00040  -0.00138   2.52134
    R4        2.87171  -0.00271  -0.00129  -0.00616  -0.00745   2.86426
    R5        2.07742   0.00020  -0.00092   0.00192   0.00100   2.07842
    R6        2.07420   0.00062  -0.00081   0.00289   0.00208   2.07628
    R7        2.64740  -0.00136  -0.00128  -0.00081  -0.00209   2.64531
    R8        2.64476  -0.00164  -0.00125  -0.00138  -0.00264   2.64213
    R9        2.63518  -0.00166  -0.00124  -0.00134  -0.00259   2.63259
   R10        2.06584  -0.00024  -0.00142   0.00151   0.00009   2.06593
   R11        2.63855  -0.00106  -0.00120  -0.00024  -0.00144   2.63712
   R12        2.06535  -0.00036  -0.00134   0.00107  -0.00027   2.06508
   R13        2.63553  -0.00114  -0.00115  -0.00046  -0.00161   2.63391
   R14        2.06507  -0.00041  -0.00135   0.00096  -0.00039   2.06468
   R15        2.63828  -0.00147  -0.00127  -0.00095  -0.00222   2.63606
   R16        2.06546  -0.00040  -0.00133   0.00097  -0.00037   2.06510
   R17        2.06751  -0.00024  -0.00138   0.00145   0.00007   2.06758
   R18        2.62979  -0.00151  -0.00089  -0.00155  -0.00244   2.62735
   R19        2.06443  -0.00026  -0.00138   0.00140   0.00002   2.06445
   R20        2.63480  -0.00112  -0.00082  -0.00091  -0.00174   2.63307
   R21        2.06531  -0.00031  -0.00128   0.00112  -0.00016   2.06515
   R22        2.63389  -0.00048  -0.00088   0.00039  -0.00050   2.63339
   R23        2.06308  -0.00034  -0.00137   0.00118  -0.00019   2.06289
   R24        2.51708  -0.00130  -0.00119  -0.00023  -0.00142   2.51566
   R25        2.07180  -0.00054  -0.00146   0.00076  -0.00070   2.07110
    A1        2.11613  -0.00002   0.00003   0.00010   0.00011   2.11625
    A2        2.03919  -0.00119  -0.00033  -0.00379  -0.00413   2.03505
    A3        2.12682   0.00121   0.00032   0.00411   0.00441   2.13123
    A4        1.93134   0.00102  -0.00260   0.00933   0.00674   1.93808
    A5        1.92462  -0.00026  -0.00011  -0.00039  -0.00049   1.92413
    A6        1.87686  -0.00021   0.00112  -0.00192  -0.00080   1.87607
    A7        1.91815  -0.00020   0.00046  -0.00081  -0.00033   1.91781
    A8        1.91693  -0.00019  -0.00001  -0.00017  -0.00019   1.91674
    A9        1.89518  -0.00017   0.00115  -0.00636  -0.00520   1.88998
   A10        2.09646  -0.00016  -0.00024  -0.00014  -0.00038   2.09608
   A11        2.11433  -0.00018  -0.00012  -0.00040  -0.00052   2.11381
   A12        2.07144   0.00034   0.00037   0.00066   0.00102   2.07246
   A13        2.10563  -0.00011  -0.00016  -0.00029  -0.00044   2.10519
   A14        2.07855   0.00001   0.00008  -0.00012  -0.00004   2.07851
   A15        2.09887   0.00010   0.00009   0.00041   0.00050   2.09937
   A16        2.09850  -0.00009  -0.00009  -0.00018  -0.00027   2.09823
   A17        2.09061  -0.00007   0.00009  -0.00065  -0.00056   2.09004
   A18        2.09408   0.00016   0.00001   0.00083   0.00084   2.09491
   A19        2.08676   0.00007   0.00014   0.00027   0.00041   2.08717
   A20        2.09865  -0.00007  -0.00006  -0.00033  -0.00039   2.09825
   A21        2.09778  -0.00001  -0.00007   0.00006  -0.00001   2.09776
   A22        2.09605  -0.00010   0.00002  -0.00037  -0.00036   2.09570
   A23        2.09544   0.00017   0.00000   0.00085   0.00085   2.09629
   A24        2.09169  -0.00006  -0.00002  -0.00047  -0.00049   2.09119
   A25        2.10798  -0.00010  -0.00027  -0.00009  -0.00036   2.10762
   A26        2.08711   0.00001   0.00022  -0.00032  -0.00011   2.08700
   A27        2.08809   0.00009   0.00006   0.00040   0.00046   2.08854
   A28        2.07692  -0.00006  -0.00019   0.00008  -0.00010   2.07682
   A29        2.09696  -0.00002   0.00017  -0.00045  -0.00029   2.09667
   A30        2.10930   0.00008   0.00002   0.00038   0.00040   2.10969
   A31        2.07513  -0.00057  -0.00006  -0.00217  -0.00223   2.07290
   A32        2.10274   0.00020   0.00004   0.00055   0.00059   2.10333
   A33        2.10532   0.00037   0.00002   0.00161   0.00163   2.10695
   A34        2.05830   0.00023   0.00001   0.00104   0.00105   2.05936
   A35        2.11880   0.00003  -0.00018   0.00055   0.00038   2.11917
   A36        2.10609  -0.00025   0.00016  -0.00159  -0.00143   2.10466
   A37        2.15293   0.00068   0.00011   0.00260   0.00271   2.15564
   A38        2.10019  -0.00034   0.00081  -0.00260  -0.00179   2.09840
   A39        2.03006  -0.00034  -0.00092   0.00001  -0.00092   2.02914
   A40        2.07626  -0.00149  -0.00019  -0.00566  -0.00585   2.07041
    D1        1.53552   0.00021  -0.00070   0.01980   0.01909   1.55460
    D2       -0.59044  -0.00003   0.00047   0.01484   0.01531  -0.57513
    D3       -2.65398   0.00044  -0.00154   0.02384   0.02229  -2.63169
    D4       -1.55777   0.00001  -0.00116   0.01003   0.00887  -1.54890
    D5        2.59946  -0.00024   0.00001   0.00507   0.00510   2.60455
    D6        0.53592   0.00024  -0.00201   0.01407   0.01208   0.54800
    D7       -3.08845  -0.00019  -0.00078  -0.00930  -0.01010  -3.09856
    D8        0.04843  -0.00014  -0.00033  -0.00827  -0.00861   0.03982
    D9        0.00239  -0.00004  -0.00031   0.00073   0.00043   0.00282
   D10        3.13927   0.00001   0.00014   0.00177   0.00192   3.14120
   D11        3.08841   0.00025   0.00070   0.01009   0.01079   3.09920
   D12       -0.00456   0.00007   0.00024   0.00038   0.00061  -0.00395
   D13        1.36790  -0.00035   0.00248  -0.05581  -0.05333   1.31457
   D14       -1.72605  -0.00042   0.00220  -0.05871  -0.05651  -1.78256
   D15       -2.78553  -0.00014   0.00097  -0.05066  -0.04968  -2.83521
   D16        0.40371  -0.00021   0.00069  -0.05355  -0.05285   0.35085
   D17       -0.70161  -0.00060   0.00269  -0.05909  -0.05640  -0.75800
   D18        2.48763  -0.00066   0.00241  -0.06198  -0.05957   2.42806
   D19       -3.09831  -0.00013  -0.00073  -0.00489  -0.00562  -3.10392
   D20        0.02600  -0.00009  -0.00011  -0.00432  -0.00443   0.02157
   D21       -0.00319  -0.00008  -0.00047  -0.00209  -0.00256  -0.00575
   D22        3.12111  -0.00004   0.00016  -0.00153  -0.00137   3.11974
   D23        3.09758   0.00014   0.00067   0.00527   0.00594   3.10352
   D24       -0.04901   0.00007   0.00061   0.00269   0.00330  -0.04572
   D25        0.00295   0.00009   0.00040   0.00244   0.00285   0.00580
   D26        3.13955   0.00002   0.00035  -0.00014   0.00020   3.13975
   D27        0.00099   0.00004   0.00027   0.00127   0.00154   0.00252
   D28       -3.14057   0.00003   0.00027   0.00066   0.00093  -3.13964
   D29       -3.12311   0.00001  -0.00036   0.00070   0.00034  -3.12277
   D30        0.01852  -0.00001  -0.00036   0.00010  -0.00026   0.01825
   D31        0.00151  -0.00002   0.00000  -0.00075  -0.00075   0.00076
   D32       -3.13849  -0.00003  -0.00015  -0.00108  -0.00123  -3.13972
   D33       -3.14012   0.00000   0.00000  -0.00015  -0.00014  -3.14026
   D34        0.00307  -0.00002  -0.00015  -0.00047  -0.00062   0.00244
   D35       -0.00175   0.00002  -0.00006   0.00110   0.00103  -0.00071
   D36       -3.14005   0.00000  -0.00026   0.00058   0.00032  -3.13973
   D37        3.13825   0.00004   0.00009   0.00142   0.00151   3.13976
   D38       -0.00005   0.00002  -0.00011   0.00091   0.00080   0.00075
   D39       -0.00051  -0.00006  -0.00014  -0.00197  -0.00211  -0.00262
   D40       -3.13710   0.00001  -0.00008   0.00062   0.00054  -3.13656
[...]
 Alpha virt. eigenvalues --    2.67395   2.68861   2.69008   2.69841   2.70614
 Alpha virt. eigenvalues --    2.71689   2.74262   2.74467   2.74781   2.75352
 Alpha virt. eigenvalues --    2.76518   2.77404   2.77838   2.78218   2.79647
 Alpha virt. eigenvalues --    2.80652   2.80711   2.83347   2.85394   2.86129
 Alpha virt. eigenvalues --    2.86600   2.87979   2.88348   2.88517   2.89610
 Alpha virt. eigenvalues --    2.90060   2.92025   2.92711   2.93216   2.94648
 Alpha virt. eigenvalues --    2.95572   2.96196   2.97730   2.98981   3.00950
 Alpha virt. eigenvalues --    3.01555   3.02383   3.05585   3.06079   3.08422
 Alpha virt. eigenvalues --    3.10583   3.10781   3.12065   3.12325   3.14223
 Alpha virt. eigenvalues --    3.15842   3.17697   3.18578   3.19883   3.20790
 Alpha virt. eigenvalues --    3.21232   3.22240   3.22550   3.23516   3.23896
 Alpha virt. eigenvalues --    3.24634   3.25308   3.25949   3.27024   3.27858
 Alpha virt. eigenvalues --    3.29105   3.30653   3.31827   3.32679   3.33965
 Alpha virt. eigenvalues --    3.34965   3.36245   3.36987   3.37621   3.39065
 Alpha virt. eigenvalues --    3.40492   3.41489   3.41998   3.43284   3.43859
 Alpha virt. eigenvalues --    3.44686   3.45734   3.46956   3.48303   3.49475
 Alpha virt. eigenvalues --    3.50957   3.52299   3.52800   3.53869   3.54271
 Alpha virt. eigenvalues --    3.55128   3.57706   3.58435   3.59064   3.59886
 Alpha virt. eigenvalues --    3.61953   3.63691   3.64863   3.65530   3.68166
 Alpha virt. eigenvalues --    3.68930   3.70477   3.73248   3.74366   3.78383
 Alpha virt. eigenvalues --    3.79764   3.81317   3.84086   3.85009   3.85670
 Alpha virt. eigenvalues --    3.88916   3.89488   3.92249   3.94142   3.95322
 Alpha virt. eigenvalues --    3.96992   3.98431   3.99581   4.02101   4.04944
 Alpha virt. eigenvalues --    4.06689   4.09305   4.09571   4.11392   4.12852
 Alpha virt. eigenvalues --    4.14753   4.16493   4.20846   4.22605   4.23548
 Alpha virt. eigenvalues --    4.25411   4.27191   4.28765   4.29268   4.29868
 Alpha virt. eigenvalues --    4.30696   4.33238   4.33923   4.36902   4.39349
 Alpha virt. eigenvalues --    4.39619   4.40625   4.42827   4.44751   4.45884
 Alpha virt. eigenvalues --    4.49831   4.52259   4.54175   4.58983   4.61026
 Alpha virt. eigenvalues --    4.64825   4.69079   4.70398   4.76039   4.77084
 Alpha virt. eigenvalues --    4.79589   4.80516   4.81827   4.84158   4.85096
 Alpha virt. eigenvalues --    4.95096   4.96922   5.01717   5.02094   5.03830
 Alpha virt. eigenvalues --    5.06490   5.06845   5.12902   5.17121   5.17385
 Alpha virt. eigenvalues --    5.23430   5.27515   5.30339   5.31480   5.36414
 Alpha virt. eigenvalues --    5.41508   5.45808   5.49842   5.51573   5.53555
 Alpha virt. eigenvalues --    5.55939   5.73189   5.75238   5.82239   5.90848
 Alpha virt. eigenvalues --    6.19952  22.13456  22.42373  22.61172  22.67807
 Alpha virt. eigenvalues --   22.69760  22.71804  22.78664  22.83979  22.89499
 Alpha virt. eigenvalues --   22.99014  23.20337  23.30680  32.63792
          Condensed to atoms (all electrons):
               1          2          3          4          5          6
     1  C    4.824214   0.300906  -0.014687  -0.008120   0.002410  -0.000417
     2  C    0.300906   5.075916   0.306084  -0.102339   0.010364  -0.004680
     3  C   -0.014687   0.306084   5.042947   0.376584   0.027888  -0.099089
     4  C   -0.008120  -0.102339   0.376584   5.133232   0.414577   0.045947
     5  C    0.002410   0.010364   0.027888   0.414577   4.942417   0.423614
     6  C   -0.000417  -0.004680  -0.099089   0.045947   0.423614   4.942713
     7  C    0.000927   0.014936   0.029476  -0.090708   0.020397   0.443572
     8  C   -0.006998  -0.067712   0.383345   0.047799  -0.088245   0.037790
     9  C    0.494102  -0.063286   0.000139   0.006846  -0.000956   0.000315
    10  C   -0.022380  -0.000212   0.002084  -0.000532   0.000127  -0.000034
    11  C   -0.045266   0.000843  -0.000487   0.000030  -0.000027   0.000008
    12  C   -0.083845   0.000382   0.000116   0.000961   0.000080   0.000016
    13  N    0.452418  -0.084365  -0.011905   0.002990  -0.000652   0.000327
    14  H   -0.039510   0.432272  -0.069026   0.008421  -0.000737   0.000283
    15  H   -0.057018   0.392794  -0.017303  -0.004295  -0.000084   0.000465
    16  H   -0.007065  -0.010167  -0.055896   0.432105  -0.050490   0.011047
    17  H    0.000087  -0.000143   0.012694  -0.056538   0.442906  -0.056590
    18  H    0.000002   0.000067  -0.002643   0.009975  -0.054202   0.440211
    19  H    0.000031  -0.000193   0.013262  -0.004183   0.011032  -0.055111
    20  H   -0.002001  -0.003744  -0.069103   0.014344  -0.003740   0.009851
    21  H   -0.044272   0.008136  -0.002902  -0.000667  -0.000013  -0.000017
    22  H    0.007003  -0.000377   0.000039   0.000035  -0.000001   0.000001
    23  H   -0.000608   0.000165   0.000001  -0.000009   0.000001  -0.000000
    24  H    0.006754  -0.000148   0.000172   0.000085  -0.000008  -0.000002
               7          8          9         10         11         12
     1  C    0.000927  -0.006998   0.494102  -0.022380  -0.045266  -0.083845
     2  C    0.014936  -0.067712  -0.063286  -0.000212   0.000843   0.000382
     3  C    0.029476   0.383345   0.000139   0.002084  -0.000487   0.000116
     4  C   -0.090708   0.047799   0.006846  -0.000532   0.000030   0.000961
     5  C    0.020397  -0.088245  -0.000956   0.000127  -0.000027   0.000080
     6  C    0.443572   0.037790   0.000315  -0.000034   0.000008   0.000016
     7  C    4.921246   0.420271  -0.001186   0.000082   0.000001  -0.000033
     8  C    0.420271   5.082218   0.004893  -0.000830   0.000048  -0.000122
     9  C   -0.001186   0.004893   4.963063   0.504612  -0.020216  -0.043629
    10  C    0.000082  -0.000830   0.504612   4.826780   0.490861  -0.003831
    11  C    0.000001   0.000048  -0.020216   0.490861   4.937346   0.492612
    12  C   -0.000033  -0.000122  -0.043629  -0.003831   0.492612   4.742345
    13  N   -0.000319   0.001998  -0.051030  -0.023059  -0.057073   0.530748
    14  H    0.000615   0.004536   0.001675   0.000578   0.000077  -0.000373
    15  H   -0.001383   0.005552   0.009997  -0.000930   0.000455   0.001066
    16  H   -0.004619   0.013655   0.002139  -0.000082   0.000613   0.000311
    17  H    0.010199  -0.003155   0.000007  -0.000001  -0.000002  -0.000010
    18  H   -0.053543   0.009792  -0.000001   0.000000  -0.000000   0.000000
    19  H    0.442803  -0.058700  -0.000011   0.000000  -0.000000   0.000000
    20  H   -0.049018   0.439482   0.001220  -0.000146   0.000016  -0.000013
    21  H    0.000037   0.001598   0.414756  -0.042983   0.007378  -0.001383
    22  H   -0.000003  -0.000010  -0.041374   0.427999  -0.043094   0.004458
    23  H    0.000000  -0.000002   0.006284  -0.050604   0.417872  -0.033797
    24  H    0.000001   0.000001  -0.001826   0.005667  -0.073923   0.434661
              13         14         15         16         17         18
     1  C    0.452418  -0.039510  -0.057018  -0.007065   0.000087   0.000002
     2  C   -0.084365   0.432272   0.392794  -0.010167  -0.000143   0.000067
     3  C   -0.011905  -0.069026  -0.017303  -0.055896   0.012694  -0.002643
     4  C    0.002990   0.008421  -0.004295   0.432105  -0.056538   0.009975
     5  C   -0.000652  -0.000737  -0.000084  -0.050490   0.442906  -0.054202
     6  C    0.000327   0.000283   0.000465   0.011047  -0.056590   0.440211
     7  C   -0.000319   0.000615  -0.001383  -0.004619   0.010199  -0.053543
     8  C    0.001998   0.004536   0.005552   0.013655  -0.003155   0.009792
     9  C   -0.051030   0.001675   0.009997   0.002139   0.000007  -0.000001
    10  C   -0.023059   0.000578  -0.000930  -0.000082  -0.000001   0.000000
    11  C   -0.057073   0.000077   0.000455   0.000613  -0.000002  -0.000000
    12  C    0.530748  -0.000373   0.001066   0.000311  -0.000010   0.000000
    13  N    6.544274   0.003589   0.010358   0.024230  -0.000080   0.000000
    14  H    0.003589   0.546091  -0.020661   0.000433   0.000004  -0.000001
    15  H    0.010358  -0.020661   0.551071   0.003210  -0.000017  -0.000001
    16  H    0.024230   0.000433   0.003210   0.505284  -0.006736  -0.000075
    17  H   -0.000080   0.000004  -0.000017  -0.006736   0.545934  -0.006962
    18  H    0.000000  -0.000001  -0.000001  -0.000075  -0.006962   0.546306
    19  H   -0.000000  -0.000068   0.000004   0.000014  -0.000129  -0.006934
    20  H    0.000036   0.002664   0.000873   0.000000   0.000044  -0.000160
    21  H    0.005183  -0.001032   0.000131  -0.000139   0.000001  -0.000000
    22  H   -0.001155  -0.000007   0.000014   0.000007  -0.000000   0.000000
    23  H    0.005868  -0.000004  -0.000013  -0.000025   0.000000  -0.000000
    24  H   -0.032603   0.000000  -0.000137  -0.000544   0.000002  -0.000000
              19         20         21         22         23         24
     1  C    0.000031  -0.002001  -0.044272   0.007003  -0.000608   0.006754
     2  C   -0.000193  -0.003744   0.008136  -0.000377   0.000165  -0.000148
     3  C    0.013262  -0.069103  -0.002902   0.000039   0.000001   0.000172
     4  C   -0.004183   0.014344  -0.000667   0.000035  -0.000009   0.000085
     5  C    0.011032  -0.003740  -0.000013  -0.000001   0.000001  -0.000008
     6  C   -0.055111   0.009851  -0.000017   0.000001  -0.000000  -0.000002
     7  C    0.442803  -0.049018   0.000037  -0.000003   0.000000   0.000001
     8  C   -0.058700   0.439482   0.001598  -0.000010  -0.000002   0.000001
     9  C   -0.000011   0.001220   0.414756  -0.041374   0.006284  -0.001826
    10  C    0.000000  -0.000146  -0.042983   0.427999  -0.050604   0.005667
    11  C   -0.000000   0.000016   0.007378  -0.043094   0.417872  -0.073923
    12  C    0.000000  -0.000013  -0.001383   0.004458  -0.033797   0.434661
    13  N   -0.000000   0.000036   0.005183  -0.001155   0.005868  -0.032603
    14  H   -0.000068   0.002664  -0.001032  -0.000007  -0.000004   0.000000
    15  H    0.000004   0.000873   0.000131   0.000014  -0.000013  -0.000137
    16  H    0.000014   0.000000  -0.000139   0.000007  -0.000025  -0.000544
    17  H   -0.000129   0.000044   0.000001  -0.000000   0.000000   0.000002
    18  H   -0.006934  -0.000160  -0.000000   0.000000  -0.000000  -0.000000
    19  H    0.548393  -0.007109  -0.000004  -0.000000   0.000000   0.000000
    20  H   -0.007109   0.557358   0.000405  -0.000001  -0.000000  -0.000000
    21  H   -0.000004   0.000405   0.535064  -0.005876  -0.000021   0.000103
    22  H   -0.000000  -0.000001  -0.005876   0.525698  -0.005950  -0.000197
    23  H    0.000000  -0.000000  -0.000021  -0.005950   0.532502  -0.002148
    24  H    0.000000  -0.000000   0.000103  -0.000197  -0.002148   0.538396
 Mulliken charges:
               1
     1  C    0.243333
     2  C   -0.205500
     3  C    0.148209
     4  C   -0.226539
     5  C   -0.096658
     6  C   -0.140219
     7  C   -0.103752
     8  C   -0.227205
     9  C   -0.186535
    10  C   -0.113168
    11  C   -0.108072
    12  C   -0.040721
    13  N   -0.319780
    14  H    0.130180
    15  H    0.125850
    16  H    0.142791
    17  H    0.118482
    18  H    0.118167
    19  H    0.116903
    20  H    0.108742
    21  H    0.126516
    22  H    0.132792
    23  H    0.130489
    24  H    0.125696
 Sum of Mulliken charges =   0.00000
 Mulliken charges with hydrogens summed into heavy atoms:
               1
     1  C    0.243333
     2  C    0.050530
     3  C    0.148209
     4  C   -0.083749
     5  C    0.021824
     6  C   -0.022052
     7  C    0.013151
     8  C   -0.118463
     9  C   -0.060019
    10  C    0.019623
    11  C    0.022417
    12  C    0.084976
    13  N   -0.319780
 Electronic spatial extent (au):  <R**2>=           2688.8083
 Charge=             -0.0000 electrons
 Dipole moment (field-independent basis, Debye):
    X=              0.9688    Y=              1.2487    Z=             -1.1442  Tot=              1.9511
 Quadrupole moment (field-independent basis, Debye-Ang):
   XX=            -69.1130   YY=            -69.6153   ZZ=            -77.9299
   XY=             -0.1874   XZ=             -2.0519   YZ=              1.0073
 Traceless Quadrupole moment (field-independent basis, Debye-Ang):
   XX=              3.1064   YY=              2.6041   ZZ=             -5.7105
   XY=             -0.1874   XZ=             -2.0519   YZ=              1.0073
 Octapole moment (field-independent basis, Debye-Ang**2):
  XXX=             19.1367  YYY=              0.8760  ZZZ=              2.8413  XYY=              0.1672
  XXY=             -6.0095  XXZ=            -35.4041  XZZ=              5.5385  YZZ=              3.8464
  YYZ=             -4.3446  XYZ=             -3.9278
 Hexadecapole moment (field-independent basis, Debye-Ang**3):
 XXXX=          -2685.1245 YYYY=           -531.0873 ZZZZ=           -356.9190 XXXY=            -45.7236
 XXXZ=              1.0070 YYYX=             -7.1700 YYYZ=              0.6129 ZZZX=             -9.7481
 ZZZY=             -1.4944 XXYY=           -517.4992 XXZZ=           -522.9750 YYZZ=           -157.6702
 XXYZ=             -2.9922 YYXZ=             -1.7989 ZZXY=             10.8553
 N-N= 6.986468919121D+02 E-N=-2.601050657945D+03  KE= 5.157550537395D+02
 Breneman (CHELPG) radii used.
 Read replacement radii for each type of atom:
 Atom Element Radius
    1     6    1.50
    2     6    1.50
    3     6    1.50
    4     6    1.50
    5     6    1.50
    6     6    1.50
    7     6    1.50
    8     6    1.50
    9     6    1.50
   10     6    1.50
   11     6    1.50
   12     6    1.50
   13     7    1.70
   14     1    1.45
   15     1    1.45
   16     1    1.45
   17     1    1.45
   18     1    1.45
   19     1    1.45
   20     1    1.45
   21     1    1.45
   22     1    1.45
   23     1    1.45
   24     1    1.45
 Generate Potential Derived Charges using the Breneman model, NDens= 1.
 Grid spacing= 0.300 Box extension= 2.800
 NStep X,Y,Z=   50     36     34   Total possible points=       61200
 Number of Points to Fit=   15851

 **********************************************************************

            Electrostatic Properties Using The SCF Density.

 **********************************************************************

       Atomic Center    1 is at   1.273040  0.321956  0.602788
       Atomic Center    2 is at   0.015355  0.640313  1.379258
       Atomic Center    3 is at  -1.235932  0.251705  0.616250
       Atomic Center    4 is at  -1.483782 -1.092628  0.310298
       Atomic Center    5 is at  -2.621455 -1.458779 -0.403527
       Atomic Center    6 is at  -3.530319 -0.486900 -0.825459
       Atomic Center    7 is at  -3.291265  0.852645 -0.528434
       Atomic Center    8 is at  -2.149922  1.217439  0.187006
       Atomic Center    9 is at   1.837985  1.257298 -0.272886
       Atomic Center   10 is at   2.970145  0.904945 -0.998827
       Atomic Center   11 is at   3.503334 -0.371263 -0.831280
       Atomic Center   12 is at   2.869216 -1.232940  0.060903
       Atomic Center   13 is at   1.786824 -0.900125  0.760899
       Atomic Center   14 is at  -0.016876  1.713352  1.617633
       Atomic Center   15 is at   0.058579  0.085164  2.327698
       Atomic Center   16 is at  -0.763464 -1.849188  0.631850
       Atomic Center   17 is at  -2.801501 -2.511565 -0.633124
       Atomic Center   18 is at  -4.423116 -0.775039 -1.384819
       Atomic Center   19 is at  -3.996260  1.620970 -0.854148
       Atomic Center   20 is at  -1.969954  2.271111  0.418261
       Atomic Center   21 is at   1.386987  2.245983 -0.380859
       Atomic Center   22 is at   3.431140  1.616699 -1.687515
       Atomic Center   23 is at   4.390745 -0.694416 -1.378010
       Atomic Center   24 is at   3.257553 -2.244937  0.220195
   15851 points will be used for fitting atomic charges
 Fitting point charges to electrostatic potential
 Charges from ESP fit, RMS=   0.00409 RRMS=   0.35359:
 ESP charges:
               1
     1  C    0.618437
     2  C   -0.376995
     3  C    0.264467
     4  C   -0.206568
     5  C   -0.059511
     6  C   -0.129990
     7  C   -0.065003
     8  C   -0.226397
     9  C   -0.447664
    10  C    0.171303
    11  C   -0.350438
    12  C    0.347288
    13  N   -0.611373
    14  H    0.101806
    15  H    0.094604
    16  H    0.118868
    17  H    0.089772
    18  H    0.093825
    19  H    0.089055
    20  H    0.112843
    21  H    0.149034
    22  H    0.065725
    23  H    0.127532
    24  H    0.029383
 Sum of ESP charges =  -0.00000
 ESP charges with hydrogens summed into heavy atoms:
               1
     1  C    0.618437
     2  C   -0.180586
     3  C    0.264467
     4  C   -0.087700
     5  C    0.030261
     6  C   -0.036165
     7  C    0.024052
     8  C   -0.113554
     9  C   -0.298630
    10  C    0.237028
    11  C   -0.222906
    12  C    0.376670
    13  N   -0.611373
 Charge=  -0.00000 Dipole=     0.9383     1.2730    -1.0530 Tot=     1.8999
 -----------------------------------------------------------------

              Electrostatic Properties (Atomic Units)

 -----------------------------------------------------------------
    Center     Electric         -------- Electric Field --------
               Potential          X             Y             Z
 -----------------------------------------------------------------
    1 Atom    -14.726553
    2 Atom    -14.761234
    3 Atom    -14.760949
    4 Atom    -14.777561
    5 Atom    -14.773080
    6 Atom    -14.773684
    7 Atom    -14.771849
    8 Atom    -14.772704
    9 Atom    -14.761189
   10 Atom    -14.749271
   11 Atom    -14.761303
   12 Atom    -14.735517
   13 Atom    -18.401523
   14 Atom     -1.112447
   15 Atom     -1.115342
   16 Atom     -1.116167
   17 Atom     -1.112119
   18 Atom     -1.111068
   19 Atom     -1.109742
   20 Atom     -1.108241
   21 Atom     -1.094266
   22 Atom     -1.090542
   23 Atom     -1.093869
   24 Atom     -1.105591
 -----------------------------------------------------------------
 Unable to Open any file for archive entry.
 1\1\GINC-NOTCH211\SP\RwB97XD\def2TZVP\C12H11N1\U1112142\19-Dec-2025\0\
 \#N Guess=Read Geom=Check Integral(Ultrafine) Density Pop=(ChelpG,Read
 Radii) NMR wB97XD def2TZVP\\Py6_2\\0,1\C,0,-1.288327631,-0.2461430059,
 0.5855935524\C,0,-0.0652591506,-0.7319759023,1.3299705424\C,0,1.215905
 909,-0.4160430257,0.583164951\C,0,1.590412367,0.9154556859,0.361522625
 5\C,0,2.7564356892,1.216735986,-0.336712317\C,0,3.5674802995,0.1918715
 033,-0.8270879597\C,0,3.2021682849,-1.1351344007,-0.6141202848\C,0,2.0
 326250679,-1.4348217278,0.0858422574\C,0,-1.9417640286,-1.0652859906,-
 0.3433087231\C,0,-3.0365338325,-0.5608745763,-1.0361127778\C,0,-3.4450
 599252,0.746884407,-0.7832442122\C,0,-2.7297709361,1.4852039873,0.1568
 762409\N,0,-1.6827258497,1.0066057835,0.825437922\H,0,-0.1351888857,-1
 .8162946531,1.4991977097\H,0,-0.0533791151,-0.2372952485,2.3121863825\
 H,0,0.9462875659,1.7149251068,0.7364722409\H,0,3.035754522,2.260165476
 7,-0.5001912615\H,0,4.4826029276,0.4290453444,-1.3741638969\H,0,3.8299
 086492,-1.9445652484,-0.9938491644\H,0,1.7533022293,-2.4792453471,0.25
 09183851\H,0,-1.5874731631,-2.0834253602,-0.5177334719\H,0,-3.56476882
 36,-1.1798120327,-1.7650066603\H,0,-4.2986336441,1.1874816014,-1.30105
 33385\H,0,-3.0193585264,2.517241637,0.3834912582\\Version=ES64L-G16Rev
 C.01\State=1-A\HF=-518.6546164\RMSD=3.635e-09\Dipole=-0.4272287,-0.422
 8257,-0.4774416\Quadrupole=2.2853564,2.0545012,-4.3398575,-0.2658118,1
 .4199291,-0.4850027\PG=C01 [X(C12H11N1)]\\@
 The archive entry for this job was punched.


 WHEN HAVING A MEETING OF THE MINDS,
 MAKE SURE YOU HAVE THE EQUIPMENT FOR IT.
 Job cpu time:       0 days  1 hours 25 minutes 12.9 seconds.
 Elapsed time:       0 days  0 hours  5 minutes 31.9 seconds.
 File lengths (MBytes):  RWF=    141 Int=      0 D2E=      0 Chk=     21 Scr=      2
 Normal termination of Gaussian 16 at Fri Dec 19 04:49:45 2025.
