 Entering Gaussian System, Link 0=g16
 Input=Py6_1.com
 Output=Py6_1.log
 Initial command:
 /uufs/chpc.utah.edu/sys/installdir/gaussian16/C01/AVX/g16/l1.exe "/scratch/general/vast/u1112142/9381405-notchpeak.peaks/Gau-158600.inp" -scrdir="/scratch/general/vast/u1112142/9381405-notchpeak.peaks/"
 Entering Link 1 = /uufs/chpc.utah.edu/sys/installdir/gaussian16/C01/AVX/g16/l1.exe PID=    158601.
  
 Copyright (c) 1988-2019, Gaussian, Inc.  All Rights Reserved.
  
 This is part of the Gaussian(R) 16 program.  It is based on
 the Gaussian(R) 09 system (copyright 2009, Gaussian, Inc.),
 the Gaussian(R) 03 system (copyright 2003, Gaussian, Inc.),
 the Gaussian(R) 98 system (copyright 1998, Gaussian, Inc.),
 the Gaussian(R) 94 system (copyright 1995, Gaussian, Inc.),
 the Gaussian 92(TM) system (copyright 1992, Gaussian, Inc.),
 the Gaussian 90(TM) system (copyright 1990, Gaussian, Inc.),
 the Gaussian 88(TM) system (copyright 1988, Gaussian, Inc.),
 the Gaussian 86(TM) system (copyright 1986, Carnegie Mellon
 University), and the Gaussian 82(TM) system (copyright 1983,
 Carnegie Mellon University). Gaussian is a federally registered
 trademark of Gaussian, Inc.
  
 This software contains proprietary and confidential information,
 including trade secrets, belonging to Gaussian, Inc.
  
 This software is provided under written license and may be
 used, copied, transmitted, or stored only in accord with that
 written license.
  
 The following legend is applicable only to US Government
 contracts under FAR:
  
                    RESTRICTED RIGHTS LEGEND
  
 Use, reproduction and disclosure by the US Government is
 subject to restrictions as set forth in subparagraphs (a)
 and (c) of the Commercial Computer Software - Restricted
 Rights clause in FAR 52.227-19.
  
 Gaussian, Inc.
 340 Quinnipiac St., Bldg. 40, Wallingford CT 06492
  
  
 ---------------------------------------------------------------
 Warning -- This program may not be used in any manner that
 competes with the business of Gaussian, Inc. or will provide
 assistance to any competitor of Gaussian, Inc.  The licensee
 of this program is prohibited from giving any competitor of
 Gaussian, Inc. access to this program.  By using this program,
 the user acknowledges that Gaussian, Inc. is engaged in the
 business of creating and licensing software in the field of
 computational chemistry and represents and warrants to the
 licensee that it is not a competitor of Gaussian, Inc. and that
 it will not use this program in any manner prohibited above.
 ---------------------------------------------------------------
  

 Cite this work as:
 Gaussian 16, Revision C.01,
 M. J. Frisch, G. W. Trucks, H. B. Schlegel, G. E. Scuseria, 
 M. A. Robb, J. R. Cheeseman, G. Scalmani, V. Barone, 
 G. A. Petersson, H. Nakatsuji, X. Li, M. Caricato, A. V. Marenich, 
 J. Bloino, B. G. Janesko, R. Gomperts, B. Mennucci, H. P. Hratchian, 
 J. V. Ortiz, A. F. Izmaylov, J. L. Sonnenberg, D. Williams-Young, 
 F. Ding, F. Lipparini, F. Egidi, J. Goings, B. Peng, A. Petrone, 
 T. Henderson, D. Ranasinghe, V. G. Zakrzewski, J. Gao, N. Rega, 
 G. Zheng, W. Liang, M. Hada, M. Ehara, K. Toyota, R. Fukuda, 
 J. Hasegawa, M. Ishida, T. Nakajima, Y. Honda, O. Kitao, H. Nakai, 
 T. Vreven, K. Throssell, J. A. Montgomery, Jr., J. E. Peralta, 
 F. Ogliaro, M. J. Bearpark, J. J. Heyd, E. N. Brothers, K. N. Kudin, 
 V. N. Staroverov, T. A. Keith, R. Kobayashi, J. Normand, 
 K. Raghavachari, A. P. Rendell, J. C. Burant, S. S. Iyengar, 
 J. Tomasi, M. Cossi, J. M. Millam, M. Klene, C. Adamo, R. Cammi, 
 J. W. Ochterski, R. L. Martin, K. Morokuma, O. Farkas, 
 J. B. Foresman, and D. J. Fox, Gaussian, Inc., Wallingford CT, 2019.
 
 ******************************************
 Gaussian 16:  ES64L-G16RevC.01  3-Jul-2019
                19-Dec-2025 
 ******************************************
 %NProcShared=16
 Will use up to   16 processors via shared memory.
 %Mem=40GB
 %chk=Py6_1.chk
 ------------------------------------------------------
 #N OPT FREQ=NORAMAN Integral(Ultrafine) wB97XD def2SVP
 ------------------------------------------------------
 1/18=20,19=15,26=4,38=1/1,3;
 2/9=110,12=2,17=6,18=5,40=1/2;
 3/5=43,7=101,11=2,25=1,30=1,71=1,74=-58,75=-5/1,2,3;
 4//1;
 5/5=2,38=5/2;
 6/7=2,8=2,9=2,10=2,28=1/1;
 7//1,2,3,16;
 1/18=20,19=15,26=4/3(2);
 2/9=110/2;
 99//99;
 2/9=110/2;
 3/5=43,7=101,11=2,25=1,30=1,71=1,74=-58,75=-5/1,2,3;
 4/5=5,16=3,69=1/1;
 5/5=2,38=5/2;
 7//1,2,3,16;
 1/18=20,19=15,26=4/3(-5);
 2/9=110/2;
 6/7=2,8=2,9=2,10=2,19=2,28=1/1;
 99/9=1/99;
 -----
 Py6_1
 -----
 Symbolic Z-matrix:
 Charge =  0 Multiplicity = 1
 C                    -1.23311   0.16248   0.66444 
 C                    -0.01765   0.21163   1.55012 
 C                     1.21525   0.05158   0.69898 
 C                     2.09749   1.10357   0.49997 
 C                     3.21009   0.94451  -0.30889 
 C                     3.4479   -0.26762  -0.93204 
 C                     2.56879  -1.32143  -0.74223 
 C                     1.45957  -1.16204   0.06718 
 C                    -1.53545   1.21535  -0.19602 
 C                    -2.64304   1.10722  -1.01663 
 C                    -3.41118  -0.04631  -0.95509 
 C                    -3.0241   -1.03807  -0.06931 
 N                    -1.96663  -0.93985   0.71757 
 H                    -0.0853   -0.60585   2.26915 
 H                     0.01623   1.16219   2.0853 
 H                     1.91924   2.05344   0.98509 
 H                     3.89197   1.77024  -0.45274 
 H                     4.31519  -0.39154  -1.56379 
 H                     2.74955  -2.26966  -1.22734 
 H                     0.76846  -1.97929   0.21451 
 H                    -0.90947   2.09465  -0.21751 
 H                    -2.90508   1.90745  -1.69431 
 H                    -4.28346  -0.171    -1.57764 
 H                    -3.5845   -1.96016   0.02016 
 

 GradGradGradGradGradGradGradGradGradGradGradGradGradGradGradGradGradGrad
 Berny optimization.
 Initialization pass.
                           ----------------------------
                           !    Initial Parameters    !
                           ! (Angstroms and Degrees)  !
 --------------------------                            --------------------------
 ! Name  Definition              Value          Derivative Info.                !
 --------------------------------------------------------------------------------
 ! R1    R(1,2)                  1.5047         estimate D2E/DX2                !
 ! R2    R(1,9)                  1.393          estimate D2E/DX2                !
 ! R3    R(1,13)                 1.3251         estimate D2E/DX2                !
 ! R4    R(2,3)                  1.5067         estimate D2E/DX2                !
 ! R5    R(2,14)                 1.0908         estimate D2E/DX2                !
 ! R6    R(2,15)                 1.0914         estimate D2E/DX2                !
 ! R7    R(3,4)                  1.3873         estimate D2E/DX2                !
 ! R8    R(3,8)                  1.3899         estimate D2E/DX2                !
 ! R9    R(4,5)                  1.3847         estimate D2E/DX2                !
 ! R10   R(4,16)                 1.0814         estimate D2E/DX2                !
 ! R11   R(5,6)                  1.3835         estimate D2E/DX2                !
 ! R12   R(5,17)                 1.0805         estimate D2E/DX2                !
 ! R13   R(6,7)                  1.3854         estimate D2E/DX2                !
 ! R14   R(6,18)                 1.0801         estimate D2E/DX2                !
 ! R15   R(7,8)                  1.3824         estimate D2E/DX2                !
 ! R16   R(7,19)                 1.0803         estimate D2E/DX2                !
 ! R17   R(8,20)                 1.0804         estimate D2E/DX2                !
 ! R18   R(9,10)                 1.3827         estimate D2E/DX2                !
 ! R19   R(9,21)                 1.0796         estimate D2E/DX2                !
 ! R20   R(10,11)                1.3872         estimate D2E/DX2                !
 ! R21   R(10,22)                1.0809         estimate D2E/DX2                !
 ! R22   R(11,12)                1.3849         estimate D2E/DX2                !
 ! R23   R(11,23)                1.0789         estimate D2E/DX2                !
 ! R24   R(12,13)                1.3218         estimate D2E/DX2                !
 ! R25   R(12,24)                1.0827         estimate D2E/DX2                !
 ! A1    A(2,1,9)              120.9457         estimate D2E/DX2                !
 ! A2    A(2,1,13)             116.7887         estimate D2E/DX2                !
 ! A3    A(9,1,13)             122.2342         estimate D2E/DX2                !
 ! A4    A(1,2,3)              108.966          estimate D2E/DX2                !
 ! A5    A(1,2,14)             108.2651         estimate D2E/DX2                !
 ! A6    A(1,2,15)             110.0082         estimate D2E/DX2                !
 ! A7    A(3,2,14)             110.0911         estimate D2E/DX2                !
 ! A8    A(3,2,15)             110.1287         estimate D2E/DX2                !
 ! A9    A(14,2,15)            109.3546         estimate D2E/DX2                !
 ! A10   A(2,3,4)              121.3901         estimate D2E/DX2                !
 ! A11   A(2,3,8)              119.5639         estimate D2E/DX2                !
 ! A12   A(4,3,8)              119.0214         estimate D2E/DX2                !
 ! A13   A(3,4,5)              120.5078         estimate D2E/DX2                !
 ! A14   A(3,4,16)             119.7951         estimate D2E/DX2                !
 ! A15   A(5,4,16)             119.6958         estimate D2E/DX2                !
 ! A16   A(4,5,6)              120.1223         estimate D2E/DX2                !
 ! A17   A(4,5,17)             119.8048         estimate D2E/DX2                !
 ! A18   A(6,5,17)             120.0729         estimate D2E/DX2                !
 ! A19   A(5,6,7)              119.7118         estimate D2E/DX2                !
 ! A20   A(5,6,18)             120.1307         estimate D2E/DX2                !
 ! A21   A(7,6,18)             120.1576         estimate D2E/DX2                !
 ! A22   A(6,7,8)              120.1114         estimate D2E/DX2                !
 ! A23   A(6,7,19)             119.9957         estimate D2E/DX2                !
 ! A24   A(8,7,19)             119.8929         estimate D2E/DX2                !
 ! A25   A(3,8,7)              120.5241         estimate D2E/DX2                !
 ! A26   A(3,8,20)             119.0832         estimate D2E/DX2                !
 ! A27   A(7,8,20)             120.3924         estimate D2E/DX2                !
 ! A28   A(1,9,10)             118.7745         estimate D2E/DX2                !
 ! A29   A(1,9,21)             120.1373         estimate D2E/DX2                !
 ! A30   A(10,9,21)            121.088          estimate D2E/DX2                !
 ! A31   A(9,10,11)            118.8321         estimate D2E/DX2                !
 ! A32   A(9,10,22)            120.5574         estimate D2E/DX2                !
 ! A33   A(11,10,22)           120.6104         estimate D2E/DX2                !
 ! A34   A(10,11,12)           117.9742         estimate D2E/DX2                !
 ! A35   A(10,11,23)           121.2105         estimate D2E/DX2                !
 ! A36   A(12,11,23)           120.8152         estimate D2E/DX2                !
 ! A37   A(11,12,13)           123.4462         estimate D2E/DX2                !
 ! A38   A(11,12,24)           121.2018         estimate D2E/DX2                !
 ! A39   A(13,12,24)           115.3519         estimate D2E/DX2                !
 ! A40   A(1,13,12)            118.7378         estimate D2E/DX2                !
 ! D1    D(9,1,2,3)            -71.4389         estimate D2E/DX2                !
 ! D2    D(9,1,2,14)           168.8301         estimate D2E/DX2                !
 ! D3    D(9,1,2,15)            49.3847         estimate D2E/DX2                !
 ! D4    D(13,1,2,3)           106.5699         estimate D2E/DX2                !
 ! D5    D(13,1,2,14)          -13.1611         estimate D2E/DX2                !
 ! D6    D(13,1,2,15)         -132.6065         estimate D2E/DX2                !
 ! D7    D(2,1,9,10)           178.2429         estimate D2E/DX2                !
 ! D8    D(2,1,9,21)            -1.5753         estimate D2E/DX2                !
 ! D9    D(13,1,9,10)            0.3442         estimate D2E/DX2                !
 ! D10   D(13,1,9,21)         -179.474          estimate D2E/DX2                !
 ! D11   D(2,1,13,12)         -178.3085         estimate D2E/DX2                !
 ! D12   D(9,1,13,12)           -0.3274         estimate D2E/DX2                !
 ! D13   D(1,2,3,4)            110.6526         estimate D2E/DX2                !
 ! D14   D(1,2,3,8)            -67.5258         estimate D2E/DX2                !
 ! D15   D(14,2,3,4)          -130.7545         estimate D2E/DX2                !
 ! D16   D(14,2,3,8)            51.067          estimate D2E/DX2                !
 ! D17   D(15,2,3,4)           -10.0971         estimate D2E/DX2                !
 ! D18   D(15,2,3,8)           171.7244         estimate D2E/DX2                !
 ! D19   D(2,3,4,5)           -178.6207         estimate D2E/DX2                !
 ! D20   D(2,3,4,16)             1.7869         estimate D2E/DX2                !
 ! D21   D(8,3,4,5)             -0.4326         estimate D2E/DX2                !
 ! D22   D(8,3,4,16)           179.975          estimate D2E/DX2                !
 ! D23   D(2,3,8,7)            178.5517         estimate D2E/DX2                !
 ! D24   D(2,3,8,20)            -1.2437         estimate D2E/DX2                !
 ! D25   D(4,3,8,7)              0.3299         estimate D2E/DX2                !
 ! D26   D(4,3,8,20)          -179.4655         estimate D2E/DX2                !
 ! D27   D(3,4,5,6)              0.2987         estimate D2E/DX2                !
 ! D28   D(3,4,5,17)          -179.7477         estimate D2E/DX2                !
 ! D29   D(16,4,5,6)           179.8916         estimate D2E/DX2                !
 ! D30   D(16,4,5,17)           -0.1548         estimate D2E/DX2                !
 ! D31   D(4,5,6,7)             -0.0557         estimate D2E/DX2                !
 ! D32   D(4,5,6,18)           179.939          estimate D2E/DX2                !
 ! D33   D(17,5,6,7)           179.9908         estimate D2E/DX2                !
 ! D34   D(17,5,6,18)           -0.0145         estimate D2E/DX2                !
 ! D35   D(5,6,7,8)             -0.0466         estimate D2E/DX2                !
 ! D36   D(5,6,7,19)           179.9427         estimate D2E/DX2                !
 ! D37   D(18,6,7,8)           179.9588         estimate D2E/DX2                !
 ! D38   D(18,6,7,19)           -0.052          estimate D2E/DX2                !
 ! D39   D(6,7,8,3)             -0.0927         estimate D2E/DX2                !
 ! D40   D(6,7,8,20)           179.7            estimate D2E/DX2                !
 ! D41   D(19,7,8,3)           179.918          estimate D2E/DX2                !
 ! D42   D(19,7,8,20)           -0.2893         estimate D2E/DX2                !
 ! D43   D(1,9,10,11)           -0.1186         estimate D2E/DX2                !
 ! D44   D(1,9,10,22)          179.9103         estimate D2E/DX2                !
 ! D45   D(21,9,10,11)         179.6978         estimate D2E/DX2                !
 ! D46   D(21,9,10,22)          -0.2733         estimate D2E/DX2                !
 ! D47   D(9,10,11,12)          -0.1003         estimate D2E/DX2                !
 ! D48   D(9,10,11,23)         179.9733         estimate D2E/DX2                !
 ! D49   D(22,10,11,12)        179.8708         estimate D2E/DX2                !
 ! D50   D(22,10,11,23)         -0.0555         estimate D2E/DX2                !
 ! D51   D(10,11,12,13)          0.123          estimate D2E/DX2                !
 ! D52   D(10,11,12,24)       -179.8961         estimate D2E/DX2                !
 ! D53   D(23,11,12,13)       -179.9504         estimate D2E/DX2                !
 ! D54   D(23,11,12,24)          0.0305         estimate D2E/DX2                !
 ! D55   D(11,12,13,1)           0.0901         estimate D2E/DX2                !
 ! D56   D(24,12,13,1)        -179.8919         estimate D2E/DX2                !
 --------------------------------------------------------------------------------
 Trust Radius=3.00D-01 FncErr=1.00D-07 GrdErr=1.00D-06 EigMax=2.50D+02 EigMin=1.00D-04
 Number of steps in this run=    131 maximum allowed number of steps=    144.
 GradGradGradGradGradGradGradGradGradGradGradGradGradGradGradGradGradGrad

                          Input orientation:                          
 ---------------------------------------------------------------------
 Center     Atomic      Atomic             Coordinates (Angstroms)
 Number     Number       Type             X           Y           Z
 ---------------------------------------------------------------------
      1          6           0       -1.233110    0.162480    0.664440
      2          6           0       -0.017650    0.211630    1.550120
      3          6           0        1.215250    0.051580    0.698980
      4          6           0        2.097490    1.103570    0.499970
      5          6           0        3.210090    0.944510   -0.308890
      6          6           0        3.447900   -0.267620   -0.932040
      7          6           0        2.568790   -1.321430   -0.742230
      8          6           0        1.459570   -1.162040    0.067180
      9          6           0       -1.535450    1.215350   -0.196020
     10          6           0       -2.643040    1.107220   -1.016630
     11          6           0       -3.411180   -0.046310   -0.955090
     12          6           0       -3.024100   -1.038070   -0.069310
     13          7           0       -1.966630   -0.939850    0.717570
     14          1           0       -0.085300   -0.605850    2.269150
     15          1           0        0.016230    1.162190    2.085300
     16          1           0        1.919240    2.053440    0.985090
     17          1           0        3.891970    1.770240   -0.452740
     18          1           0        4.315190   -0.391540   -1.563790
     19          1           0        2.749550   -2.269660   -1.227340
     20          1           0        0.768460   -1.979290    0.214510
     21          1           0       -0.909470    2.094650   -0.217510
     22          1           0       -2.905080    1.907450   -1.694310
     23          1           0       -4.283460   -0.171000   -1.577640
     24          1           0       -3.584500   -1.960160    0.020160
 ---------------------------------------------------------------------
                    Distance matrix (angstroms):
                    1          2          3          4          5
     1  C    0.000000
     2  C    1.504722   0.000000
     3  C    2.451114   1.506684   0.000000
     4  C    3.464909   2.524320   1.387312   0.000000
     5  C    4.615297   3.796227   2.406764   1.384714   0.000000
     6  C    4.964432   4.289620   2.783315   2.398838   1.383520
     7  C    4.316845   3.780848   2.407138   2.765106   2.394480
     8  C    3.059673   2.503649   1.389869   2.393165   2.764652
     9  C    1.392959   2.521939   3.117970   3.700696   4.754602
    10  C    2.388814   3.779280   4.352481   4.977219   5.898008
    11  C    2.722216   4.225950   4.914202   5.812475   6.726107
    12  C    2.277576   3.636351   4.444063   5.580447   6.546232
    13  N    1.325144   2.411964   3.332813   4.554118   5.603826
    14  H    2.117284   1.090804   2.142213   3.288873   4.462006
    15  H    2.139886   1.091389   2.143125   2.616935   3.997533
    16  H    3.689967   2.731861   2.141239   1.081373   2.137850
    17  H    5.486295   4.661099   3.383058   2.138285   1.080501
    18  H    6.004630   5.369707   3.863433   3.378262   2.140339
    19  H    5.035446   4.639879   3.384219   3.845447   3.374394
    20  H    2.965788   2.683646   2.135127   3.369248   3.845011
    21  H    2.148455   2.732329   3.086831   3.246356   4.278077
    22  H    3.376997   4.662551   5.113630   5.521485   6.343654
    23  H    3.800364   5.303435   5.955531   6.830631   7.681626
    24  H    3.232605   4.447456   5.248380   6.473150   7.396745
                    6          7          8          9         10
     6  C    0.000000
     7  C    1.385416   0.000000
     8  C    2.398309   1.382360   0.000000
     9  C    5.251162   4.855758   3.832937   0.000000
    10  C    6.244749   5.756458   4.812026   1.382696   0.000000
    11  C    6.862688   6.118111   5.100401   2.384604   1.387248
    12  C    6.574548   5.640349   4.487460   2.703708   2.375898
    13  N    5.700021   4.779817   3.494456   2.380221   2.766853
    14  H    4.779699   4.077335   2.746751   3.390688   4.502554
    15  H    4.788012   4.547401   3.399718   2.759521   4.086161
    16  H    3.376316   3.846466   3.375377   3.745971   5.071155
    17  H    2.140047   3.375357   3.845147   5.461748   6.592717
    18  H    1.080119   2.142328   3.377617   6.219556   7.138812
    19  H    2.140808   1.080345   2.136973   5.618731   6.366140
    20  H    3.379910   2.142270   1.080387   3.960083   4.762413
    21  H    5.007749   4.903389   4.037255   1.079575   2.149157
    22  H    6.758131   6.426148   5.619145   2.144705   1.080871
    23  H    7.758870   6.998195   6.055575   3.373781   2.153963
    24  H    7.295617   6.233153   5.107039   3.785393   3.371958
                   11         12         13         14         15
    11  C    0.000000
    12  C    1.384928   0.000000
    13  N    2.383890   1.321768   0.000000
    14  H    4.665864   3.780444   2.461373   0.000000
    15  H    4.738310   4.327481   3.197029   1.780470   0.000000
    16  H    6.048688   5.925015   4.912366   3.569148   2.371969
    17  H    7.542427   7.474333   6.560290   5.373376   4.672551
    18  H    7.757995   7.517756   6.705707   5.839664   5.849016
    19  H    6.555303   6.016052   5.271947   4.798967   5.497474
    20  H    4.751186   3.917903   2.968876   2.614725   3.732908
    21  H    3.374357   3.782533   3.346663   3.762371   2.651290
    22  H    2.149363   3.366137   3.847723   5.475112   4.834761
    23  H    1.078883   2.147756   3.350645   5.710642   5.803607
    24  H    2.154988   1.082729   2.035907   4.374530   5.194144
                   16         17         18         19         20
    16  H    0.000000
    17  H    2.457483   0.000000
    18  H    4.267938   2.467152   0.000000
    19  H    4.926810   4.269183   2.468149   0.000000
    20  H    4.263918   4.925496   4.273476   2.467380   0.000000
    21  H    3.074011   4.818133   5.940596   5.784063   4.427085
    22  H    5.520377   6.910876   7.578568   7.045648   5.678489
    23  H    7.070304   8.477704   8.601489   7.347810   5.657173
    24  H    6.879770   8.368818   8.208201   6.463144   4.357338
                   21         22         23         24
    21  H    0.000000
    22  H    2.489667   0.000000
    23  H    4.285666   2.496697   0.000000
    24  H    4.863513   4.284790   2.498520   0.000000
 Stoichiometry    C12H11N
 Framework group  C1[X(C12H11N)]
 Deg. of freedom    66
 Full point group                 C1      NOp   1
 Largest Abelian subgroup         C1      NOp   1
 Largest concise Abelian subgroup C1      NOp   1
                         Standard orientation:                         
 ---------------------------------------------------------------------
 Center     Atomic      Atomic             Coordinates (Angstroms)
 Number     Number       Type             X           Y           Z
 ---------------------------------------------------------------------
      1          6           0        1.241843   -0.179963    0.667295
      2          6           0        0.024536   -0.258011    1.548351
      3          6           0       -1.206352   -0.065244    0.701088
      4          6           0       -2.090321   -1.107652    0.463141
      5          6           0       -3.200994   -0.917628   -0.341675
      6          6           0       -3.435121    0.316372   -0.921810
      7          6           0       -2.554260    1.360933   -0.692998
      8          6           0       -1.446968    1.170566    0.112349
      9          6           0        1.543756   -1.202225   -0.229457
     10          6           0        2.653184   -1.067322   -1.043595
     11          6           0        3.423530    0.081685   -0.939639
     12          6           0        3.036704    1.042153   -0.019916
     13          7           0        1.977482    0.918247    0.760960
     14          1           0        0.092415    0.533262    2.296104
     15          1           0       -0.012324   -1.226913    2.049350
     16          1           0       -1.914951   -2.074530    0.914540
     17          1           0       -3.884256   -1.736299   -0.516075
     18          1           0       -4.300907    0.464473   -1.550410
     19          1           0       -2.732143    2.326176   -1.144450
     20          1           0       -0.754501    1.980619    0.289943
     21          1           0        0.916044   -2.078896   -0.283372
     22          1           0        2.914946   -1.843514   -1.748782
     23          1           0        4.297291    0.226593   -1.555702
     24          1           0        3.598788    1.959309    0.103332
 ---------------------------------------------------------------------
 Rotational constants (GHZ):           1.9074393           0.4702209           0.4534024
 Standard basis: def2SVP (5D, 7F)
 There are   250 symmetry adapted cartesian basis functions of A   symmetry.
 There are   237 symmetry adapted basis functions of A   symmetry.
   237 basis functions,   402 primitive gaussians,   250 cartesian basis functions
    45 alpha electrons       45 beta electrons
       nuclear repulsion energy       706.3339285189 Hartrees.
 NAtoms=   24 NActive=   24 NUniq=   24 SFac= 1.00D+00 NAtFMM=   60 NAOKFM=F Big=F
 Integral buffers will be    131072 words long.
 Raffenetti 2 integral format.
 Two-electron integral symmetry is turned on.
 Nuclear repulsion after empirical dispersion term =      706.3197054720 Hartrees.
 One-electron integrals computed using PRISM.
   1 Symmetry operations used in ECPInt.
 ECPInt:  NShTT=    6216 NPrTT=   22568 LenC2=    5982 LenP2D=   16251.
 LDataN:  DoStor=T MaxTD1= 4 Len=   56
 NBasis=   237 RedAO= T EigKep=  2.69D-04  NBF=   237
 NBsUse=   237 1.00D-06 EigRej= -1.00D+00 NBFU=   237
 ExpMin= 1.22D-01 ExpMax= 1.71D+03 ExpMxC= 2.58D+02 IAcc=3 IRadAn=         5 AccDes= 0.00D+00
 Harris functional with IExCor= 4639 and IRadAn=       5 diagonalized for initial guess.
 HarFok:  IExCor= 4639 AccDes= 0.00D+00 IRadAn=         5 IDoV= 1 UseB2=F ITyADJ=14
 ICtDFT=  3500011 ScaDFX=  1.000000  1.000000  1.000000  1.000000
 FoFCou: FMM=F IPFlag=           0 FMFlag=      100000 FMFlg1=           0
         NFxFlg=           0 DoJE=T BraDBF=F KetDBF=T FulRan=T
         wScrn=  0.000000 ICntrl=       500 IOpCl=  0 I1Cent=   200000004 NGrid=           0
         NMat0=    1 NMatS0=      1 NMatT0=    0 NMatD0=    1 NMtDS0=    0 NMtDT0=    0
 Petite list used in FoFCou.
 Requested convergence on RMS density matrix=1.00D-08 within 128 cycles.
 Requested convergence on MAX density matrix=1.00D-06.
 Requested convergence on             energy=1.00D-06.
 No special actions if energy rises.
 Integral accuracy reduced to 1.0D-05 until final iterations.
 Initial convergence to 1.0D-05 achieved.  Increase integral accuracy.
 SCF Done:  E(RwB97XD) =  -518.106583939     A.U. after   14 cycles
            NFock= 14  Conv=0.70D-08     -V/T= 2.0103

 **********************************************************************

            Population analysis using the SCF Density.

 **********************************************************************

 Orbital symmetries:
       Occupied  (A) (A) (A) (A) (A) (A) (A) (A) (A) (A) (A) (A)
                 (A) (A) (A) (A) (A) (A) (A) (A) (A) (A) (A) (A)
                 (A) (A) (A) (A) (A) (A) (A) (A) (A) (A) (A) (A)
                 (A) (A) (A) (A) (A) (A) (A) (A) (A)
       Virtual   (A) (A) (A) (A) (A) (A) (A) (A) (A) (A) (A) (A)
                 (A) (A) (A) (A) (A) (A) (A) (A) (A) (A) (A) (A)
                 (A) (A) (A) (A) (A) (A) (A) (A) (A) (A) (A) (A)
                 (A) (A) (A) (A) (A) (A) (A) (A) (A) (A) (A) (A)
                 (A) (A) (A) (A) (A) (A) (A) (A) (A) (A) (A) (A)
                 (A) (A) (A) (A) (A) (A) (A) (A) (A) (A) (A) (A)
                 (A) (A) (A) (A) (A) (A) (A) (A) (A) (A) (A) (A)
                 (A) (A) (A) (A) (A) (A) (A) (A) (A) (A) (A) (A)
                 (A) (A) (A) (A) (A) (A) (A) (A) (A) (A) (A) (A)
                 (A) (A) (A) (A) (A) (A) (A) (A) (A) (A) (A) (A)
                 (A) (A) (A) (A) (A) (A) (A) (A) (A) (A) (A) (A)
                 (A) (A) (A) (A) (A) (A) (A) (A) (A) (A) (A) (A)
                 (A) (A) (A) (A) (A) (A) (A) (A) (A) (A) (A) (A)
                 (A) (A) (A) (A) (A) (A) (A) (A) (A) (A) (A) (A)
                 (A) (A) (A) (A) (A) (A) (A) (A) (A) (A) (A) (A)
                 (A) (A) (A) (A) (A) (A) (A) (A) (A) (A) (A) (A)
 The electronic state is 1-A.
 Alpha  occ. eigenvalues --  -14.43456 -10.33897 -10.33126 -10.31902 -10.30623
 Alpha  occ. eigenvalues --  -10.30611 -10.30497 -10.29853 -10.29735 -10.29651
 Alpha  occ. eigenvalues --  -10.29605 -10.29501 -10.29255  -1.04661  -0.95821
 Alpha  occ. eigenvalues --   -0.90112  -0.89416  -0.84464  -0.83872  -0.78286
 Alpha  occ. eigenvalues --   -0.72614  -0.70463  -0.69566  -0.67065  -0.61464
 Alpha  occ. eigenvalues --   -0.60080  -0.58503  -0.55559  -0.54426  -0.53807
 Alpha  occ. eigenvalues --   -0.51795  -0.51013  -0.50587  -0.49267  -0.47918
 Alpha  occ. eigenvalues --   -0.47108  -0.45446  -0.44297  -0.42393  -0.41969
 Alpha  occ. eigenvalues --   -0.37120  -0.34261  -0.33679  -0.33104  -0.31564
 Alpha virt. eigenvalues --    0.04168   0.04955   0.06360   0.07523   0.14066
 Alpha virt. eigenvalues --    0.15316   0.16720   0.18364   0.19351   0.20925
 Alpha virt. eigenvalues --    0.21534   0.21815   0.22521   0.23045   0.24072
 Alpha virt. eigenvalues --    0.24847   0.25077   0.28960   0.32783   0.32979
 Alpha virt. eigenvalues --    0.35414   0.36793   0.37840   0.38877   0.39095
 Alpha virt. eigenvalues --    0.40938   0.41014   0.43806   0.44585   0.47238
 Alpha virt. eigenvalues --    0.48236   0.49821   0.50631   0.50817   0.52744
 Alpha virt. eigenvalues --    0.53353   0.54636   0.54867   0.55682   0.56697
 Alpha virt. eigenvalues --    0.57659   0.58159   0.58934   0.59290   0.62039
 Alpha virt. eigenvalues --    0.62428   0.63528   0.64333   0.67451   0.68326
 Alpha virt. eigenvalues --    0.68832   0.69865   0.70737   0.72085   0.73038
 Alpha virt. eigenvalues --    0.73830   0.74216   0.74940   0.76465   0.76547
 Alpha virt. eigenvalues --    0.77284   0.78361   0.79069   0.80752   0.81094
 Alpha virt. eigenvalues --    0.81751   0.82204   0.82951   0.83973   0.84603
 Alpha virt. eigenvalues --    0.84688   0.86087   0.88408   0.89956   0.90852
 Alpha virt. eigenvalues --    0.92753   0.94679   0.97350   0.99894   1.03992
 Alpha virt. eigenvalues --    1.05694   1.08063   1.13145   1.15917   1.16884
 Alpha virt. eigenvalues --    1.19757   1.21386   1.23947   1.28209   1.30293
 Alpha virt. eigenvalues --    1.31188   1.32454   1.33345   1.33903   1.34733
 Alpha virt. eigenvalues --    1.35184   1.38059   1.38383   1.39177   1.40970
 Alpha virt. eigenvalues --    1.43078   1.45106   1.48179   1.57363   1.61601
 Alpha virt. eigenvalues --    1.66410   1.68993   1.74074   1.75975   1.78093
 Alpha virt. eigenvalues --    1.78450   1.79849   1.80313   1.82648   1.83338
 Alpha virt. eigenvalues --    1.83724   1.85233   1.85395   1.85823   1.86533
 Alpha virt. eigenvalues --    1.87273   1.87487   1.88963   1.89140   1.90052
 Alpha virt. eigenvalues --    1.90901   1.93059   1.95088   1.97845   1.98624
 Alpha virt. eigenvalues --    2.01791   2.02843   2.03516   2.04061   2.06324
 Alpha virt. eigenvalues --    2.06609   2.07972   2.09616   2.12105   2.14083
 Alpha virt. eigenvalues --    2.16684   2.19868   2.20145   2.22010   2.24031
 Alpha virt. eigenvalues --    2.25118   2.26207   2.26491   2.30757   2.33120
 Alpha virt. eigenvalues --    2.36881   2.38140   2.39225   2.40483   2.41112
 Alpha virt. eigenvalues --    2.43758   2.45058   2.48653   2.48961   2.50815
 Alpha virt. eigenvalues --    2.53681   2.56960   2.58868   2.63224   2.66452
 Alpha virt. eigenvalues --    2.69395   2.71857   2.72813   2.74993   2.78109
 Alpha virt. eigenvalues --    2.79831   2.82287   2.83161   2.84259   2.84755
 Alpha virt. eigenvalues --    2.90958   2.93684   2.95875   2.98724   3.00101
 Alpha virt. eigenvalues --    3.01708   3.05500   3.10698   3.16416   3.19869
 Alpha virt. eigenvalues --    3.21677   3.25114   3.26173   3.37343   3.46850
 Alpha virt. eigenvalues --    3.76676   3.77483
          Condensed to atoms (all electrons):
               1          2          3          4          5          6
     1  C    5.059058   0.382606  -0.077111  -0.009096   0.000089   0.000072
     2  C    0.382606   4.649597   0.428977  -0.070978   0.010706  -0.000058
     3  C   -0.077111   0.428977   5.285616   0.314199   0.076496  -0.148978
     4  C   -0.009096  -0.070978   0.314199   5.110723   0.314638   0.072956
     5  C    0.000089   0.010706   0.076496   0.314638   5.010646   0.311129
     6  C    0.000072  -0.000058  -0.148978   0.072956   0.311129   5.070084
     7  C    0.000108   0.008508   0.084286  -0.128976   0.072491   0.297915
     8  C   -0.000724  -0.090311   0.273006   0.026519  -0.120574   0.074531
     9  C    0.383037  -0.119894   0.001601   0.006376  -0.000713   0.000045
    10  C    0.004018   0.005899   0.000117  -0.000176   0.000010   0.000001
    11  C   -0.077820   0.000907  -0.000051   0.000015  -0.000001   0.000000
    12  C   -0.053130   0.007010  -0.000125   0.000003  -0.000001  -0.000000
    13  N    0.544715  -0.086337  -0.009706  -0.000276   0.000010   0.000002
    14  H   -0.012108   0.334449   0.003108   0.006697  -0.000634   0.000057
    15  H    0.002162   0.358899  -0.022497  -0.015246   0.001067   0.000021
    16  H   -0.000526  -0.014046  -0.073345   0.450657  -0.063189   0.013896
    17  H   -0.000001  -0.000265   0.015724  -0.067144   0.450167  -0.070737
    18  H    0.000001   0.000026  -0.001592   0.013722  -0.067241   0.450040
    19  H    0.000005  -0.000258   0.015282  -0.001820   0.013831  -0.071240
    20  H    0.002280  -0.018580  -0.071150   0.014574  -0.002081   0.013922
    21  H   -0.046524  -0.006243   0.000083   0.002142   0.000170  -0.000025
    22  H    0.011641  -0.000329  -0.000001  -0.000002   0.000000  -0.000000
    23  H    0.000373   0.000078   0.000002   0.000000   0.000000  -0.000000
    24  H    0.006323  -0.000189   0.000023  -0.000000   0.000000  -0.000000
               7          8          9         10         11         12
     1  C    0.000108  -0.000724   0.383037   0.004018  -0.077820  -0.053130
     2  C    0.008508  -0.090311  -0.119894   0.005899   0.000907   0.007010
     3  C    0.084286   0.273006   0.001601   0.000117  -0.000051  -0.000125
     4  C   -0.128976   0.026519   0.006376  -0.000176   0.000015   0.000003
     5  C    0.072491  -0.120574  -0.000713   0.000010  -0.000001  -0.000001
     6  C    0.297915   0.074531   0.000045   0.000001   0.000000  -0.000000
     7  C    5.015973   0.319011  -0.000101  -0.000028   0.000004   0.000020
     8  C    0.319011   5.120044  -0.000225   0.000242  -0.000128   0.000037
     9  C   -0.000101  -0.000225   5.054012   0.421158   0.021233  -0.078356
    10  C   -0.000028   0.000242   0.421158   4.828333   0.408994  -0.005189
    11  C    0.000004  -0.000128   0.021233   0.408994   4.996404   0.436090
    12  C    0.000020   0.000037  -0.078356  -0.005189   0.436090   4.734642
    13  N    0.000083   0.001818  -0.062105  -0.040868  -0.040245   0.526143
    14  H    0.000702  -0.014257   0.016110  -0.000551   0.000292   0.000726
    15  H   -0.000490   0.014042  -0.015447   0.001176  -0.000150  -0.000202
    16  H   -0.001779   0.013939   0.000508  -0.000003   0.000001  -0.000000
    17  H    0.013866  -0.001973   0.000003   0.000000  -0.000000   0.000000
    18  H   -0.067364   0.013637  -0.000000  -0.000000   0.000000  -0.000000
    19  H    0.452975  -0.068542   0.000001   0.000000  -0.000000  -0.000000
    20  H   -0.062565   0.450346   0.001320   0.000060   0.000085   0.000474
    21  H   -0.000005  -0.000021   0.425929  -0.052782   0.011154  -0.000182
    22  H    0.000000   0.000007  -0.057540   0.442865  -0.061407   0.009847
    23  H   -0.000000  -0.000002   0.010806  -0.055810   0.425463  -0.044180
    24  H   -0.000001   0.000028   0.000567   0.006908  -0.070987   0.427652
              13         14         15         16         17         18
     1  C    0.544715  -0.012108   0.002162  -0.000526  -0.000001   0.000001
     2  C   -0.086337   0.334449   0.358899  -0.014046  -0.000265   0.000026
     3  C   -0.009706   0.003108  -0.022497  -0.073345   0.015724  -0.001592
     4  C   -0.000276   0.006697  -0.015246   0.450657  -0.067144   0.013722
     5  C    0.000010  -0.000634   0.001067  -0.063189   0.450167  -0.067241
     6  C    0.000002   0.000057   0.000021   0.013896  -0.070737   0.450040
     7  C    0.000083   0.000702  -0.000490  -0.001779   0.013866  -0.067364
     8  C    0.001818  -0.014257   0.014042   0.013939  -0.001973   0.013637
     9  C   -0.062105   0.016110  -0.015447   0.000508   0.000003  -0.000000
    10  C   -0.040868  -0.000551   0.001176  -0.000003   0.000000  -0.000000
    11  C   -0.040245   0.000292  -0.000150   0.000001  -0.000000   0.000000
    12  C    0.526143   0.000726  -0.000202  -0.000000   0.000000  -0.000000
    13  N    6.306816   0.008661   0.004556  -0.000008  -0.000000   0.000000
    14  H    0.008661   0.641227  -0.026213   0.000309   0.000006  -0.000001
    15  H    0.004556  -0.026213   0.671252   0.005821  -0.000013  -0.000001
    16  H   -0.000008   0.000309   0.005821   0.684625  -0.012689  -0.000247
    17  H   -0.000000   0.000006  -0.000013  -0.012689   0.674845  -0.012150
    18  H    0.000000  -0.000001  -0.000001  -0.000247  -0.012150   0.671157
    19  H   -0.000005  -0.000003   0.000007   0.000029  -0.000243  -0.012049
    20  H    0.007564   0.004673   0.000335  -0.000214   0.000022  -0.000225
    21  H    0.005657  -0.000023   0.001433   0.000516   0.000002  -0.000000
    22  H   -0.000209   0.000010   0.000015  -0.000000  -0.000000   0.000000
    23  H    0.005360  -0.000007  -0.000003  -0.000000   0.000000  -0.000000
    24  H   -0.040344  -0.000164   0.000010  -0.000000  -0.000000   0.000000
              19         20         21         22         23         24
     1  C    0.000005   0.002280  -0.046524   0.011641   0.000373   0.006323
     2  C   -0.000258  -0.018580  -0.006243  -0.000329   0.000078  -0.000189
     3  C    0.015282  -0.071150   0.000083  -0.000001   0.000002   0.000023
     4  C   -0.001820   0.014574   0.002142  -0.000002   0.000000  -0.000000
     5  C    0.013831  -0.002081   0.000170   0.000000   0.000000   0.000000
     6  C   -0.071240   0.013922  -0.000025  -0.000000  -0.000000  -0.000000
     7  C    0.452975  -0.062565  -0.000005   0.000000  -0.000000  -0.000001
     8  C   -0.068542   0.450346  -0.000021   0.000007  -0.000002   0.000028
     9  C    0.000001   0.001320   0.425929  -0.057540   0.010806   0.000567
    10  C    0.000000   0.000060  -0.052782   0.442865  -0.055810   0.006908
    11  C   -0.000000   0.000085   0.011154  -0.061407   0.425463  -0.070987
    12  C   -0.000000   0.000474  -0.000182   0.009847  -0.044180   0.427652
    13  N   -0.000005   0.007564   0.005657  -0.000209   0.005360  -0.040344
    14  H   -0.000003   0.004673  -0.000023   0.000010  -0.000007  -0.000164
    15  H    0.000007   0.000335   0.001433   0.000015  -0.000003   0.000010
    16  H    0.000029  -0.000214   0.000516  -0.000000  -0.000000  -0.000000
    17  H   -0.000243   0.000022   0.000002  -0.000000   0.000000  -0.000000
    18  H   -0.012049  -0.000225  -0.000000   0.000000  -0.000000   0.000000
    19  H    0.671096  -0.012077   0.000001  -0.000000   0.000000   0.000000
    20  H   -0.012077   0.661642  -0.000136   0.000002  -0.000006  -0.000156
    21  H    0.000001  -0.000136   0.661135  -0.010830  -0.000153   0.000067
    22  H   -0.000000   0.000002  -0.010830   0.651459  -0.010856  -0.000253
    23  H    0.000000  -0.000006  -0.000153  -0.010856   0.651492  -0.006501
    24  H    0.000000  -0.000156   0.000067  -0.000253  -0.006501   0.649171
 Mulliken charges:
               1
     1  C   -0.119447
     2  C    0.219828
     3  C   -0.093964
     4  C   -0.039507
     5  C   -0.007015
     6  C   -0.013632
     7  C   -0.004632
     8  C   -0.010449
     9  C   -0.008323
    10  C    0.035625
    11  C   -0.049853
    12  C    0.038723
    13  N   -0.131281
    14  H    0.036934
    15  H    0.019467
    16  H   -0.004255
    17  H    0.010580
    18  H    0.012289
    19  H    0.013013
    20  H    0.009890
    21  H    0.008638
    22  H    0.025580
    23  H    0.023944
    24  H    0.027848
 Sum of Mulliken charges =  -0.00000
 Mulliken charges with hydrogens summed into heavy atoms:
               1
     1  C   -0.119447
     2  C    0.276229
     3  C   -0.093964
     4  C   -0.043762
     5  C    0.003565
     6  C   -0.001343
     7  C    0.008381
     8  C   -0.000558
     9  C    0.000315
    10  C    0.061205
    11  C   -0.025909
    12  C    0.066570
    13  N   -0.131281
 Electronic spatial extent (au):  <R**2>=           2594.1898
 Charge=             -0.0000 electrons
 Dipole moment (field-independent basis, Debye):
    X=              0.4799    Y=             -1.3651    Z=             -1.1856  Tot=              1.8707
 Quadrupole moment (field-independent basis, Debye-Ang):
   XX=            -70.1269   YY=            -70.9734   ZZ=            -76.2455
   XY=              0.0796   XZ=             -2.2531   YZ=             -1.6725
 Traceless Quadrupole moment (field-independent basis, Debye-Ang):
   XX=              2.3217   YY=              1.4752   ZZ=             -3.7969
   XY=              0.0796   XZ=             -2.2531   YZ=             -1.6725
 Octapole moment (field-independent basis, Debye-Ang**2):
  XXX=             17.1073  YYY=             -1.9840  ZZZ=              1.3088  XYY=             -2.2988
  XXY=              1.1311  XXZ=            -31.5441  XZZ=              3.4525  YZZ=             -3.5189
  YYZ=             -4.7806  XYZ=              5.1472
 Hexadecapole moment (field-independent basis, Debye-Ang**3):
 XXXX=          -2545.6838 YYYY=           -488.6659 ZZZZ=           -403.3434 XXXY=             56.3309
 XXXZ=              1.9948 YYYX=              6.6922 YYYZ=             -4.9849 ZZZX=             -7.2786
 ZZZY=              1.5024 XXYY=           -499.2801 XXZZ=           -501.1234 YYZZ=           -149.4484
 XXYZ=             -3.3298 YYXZ=             -4.3126 ZZXY=            -14.5986
 N-N= 7.063197054720D+02 E-N=-2.612179369852D+03  KE= 5.128100204731D+02
   1 Symmetry operations used in ECPInt.
 ECPInt:  NShTT=    6216 NPrTT=   22568 LenC2=    5982 LenP2D=   16251.
 LDataN:  DoStor=T MaxTD1= 5 Len=  102
 Calling FoFJK, ICntrl=      2127 FMM=F ISym2X=0 I1Cent= 0 IOpClX= 0 NMat=1 NMatS=1 NMatT=0.
 ***** Axes restored to original set *****
 -------------------------------------------------------------------
 Center     Atomic                   Forces (Hartrees/Bohr)
 Number     Number              X              Y              Z
 -------------------------------------------------------------------
      1        6           0.001127487    0.000929642    0.006196291
      2        6           0.001340541    0.000490587   -0.007235920
      3        6          -0.002357751    0.001444409    0.006775074
      4        6           0.000226697    0.000187836    0.000501221
      5        6           0.001708273    0.001193990   -0.001301485
      6        6           0.001942111    0.000443669   -0.001187989
      7        6          -0.000136973   -0.001524744   -0.000633532
      8        6           0.000886048   -0.000708606   -0.000103854
      9        6          -0.002680665   -0.000967705   -0.000288586
     10        6           0.000513939   -0.000452807    0.000671842
     11        6           0.000516624    0.000234825    0.000225986
     12        6          -0.002195384   -0.000221822   -0.002110150
     13        7           0.003945666   -0.006001991    0.006731731
     14        1          -0.001628099   -0.002545899    0.004179724
     15        1           0.000650597    0.004416223    0.003931922
     16        1          -0.001623404    0.007462104    0.004176164
     17        1           0.005501141    0.006538884   -0.001168329
     18        1           0.007042220   -0.001017153   -0.005071928
     19        1           0.001397491   -0.007688827   -0.003805754
     20        1          -0.005941240   -0.007065753    0.001015736
     21        1           0.005413820    0.007222165   -0.000338250
     22        1          -0.001958825    0.006213866   -0.005146125
     23        1          -0.007312050   -0.001437065   -0.004977196
     24        1          -0.006378263   -0.007145825   -0.001036592
 -------------------------------------------------------------------
 Cartesian Forces:  Max     0.007688827 RMS     0.003825958

 GradGradGradGradGradGradGradGradGradGradGradGradGradGradGradGradGradGrad
 Berny optimization.
 FormGI is forming the generalized inverse of G from B-inverse, IUseBI=4.
 Internal  Forces:  Max     0.013481872 RMS     0.004303637
 Search for a local minimum.
 Step number   1 out of a maximum of  131
 All quantities printed in internal units (Hartrees-Bohrs-Radians)
 Mixed Optimization -- RFO/linear search
 Second derivative matrix not updated -- first step.
 ITU=  0
     Eigenvalues ---    0.00678   0.00703   0.01610   0.01610   0.02238
     Eigenvalues ---    0.02245   0.02267   0.02271   0.02272   0.02275
     Eigenvalues ---    0.02289   0.02292   0.02292   0.02298   0.02300
     Eigenvalues ---    0.02306   0.02318   0.02424   0.02605   0.05445
     Eigenvalues ---    0.06652   0.09370   0.12891   0.16000   0.16000
     Eigenvalues ---    0.16000   0.16000   0.16000   0.16000   0.16000
     Eigenvalues ---    0.16000   0.16000   0.22000   0.22000   0.22000
     Eigenvalues ---    0.22006   0.22426   0.23474   0.24426   0.24987
     Eigenvalues ---    0.24990   0.31686   0.31887   0.34653   0.34720
     Eigenvalues ---    0.35667   0.35829   0.35889   0.35934   0.35948
     Eigenvalues ---    0.35953   0.35980   0.36046   0.36130   0.43342
     Eigenvalues ---    0.43452   0.43517   0.45707   0.47456   0.47687
     Eigenvalues ---    0.47962   0.48260   0.48309   0.48534   0.58483
     Eigenvalues ---    0.60221
 RFO step:  Lambda=-5.69644966D-03 EMin= 6.77526471D-03
 Linear search not attempted -- first point.
 Iteration  1 RMS(Cart)=  0.05632051 RMS(Int)=  0.00024376
 Iteration  2 RMS(Cart)=  0.00063382 RMS(Int)=  0.00005167
 Iteration  3 RMS(Cart)=  0.00000025 RMS(Int)=  0.00005167
 Variable       Old X    -DE/DX   Delta X   Delta X   Delta X     New X
                                 (Linear)    (Quad)   (Total)
    R1        2.84351   0.00737   0.00000   0.02272   0.02272   2.86623
    R2        2.63231   0.00838   0.00000   0.01759   0.01759   2.64990
    R3        2.50416   0.01079   0.00000   0.01812   0.01812   2.52228
    R4        2.84722   0.00760   0.00000   0.02357   0.02357   2.87079
    R5        2.06132   0.00477   0.00000   0.01350   0.01350   2.07483
    R6        2.06243   0.00579   0.00000   0.01645   0.01645   2.07887
    R7        2.62164   0.01055   0.00000   0.02181   0.02181   2.64345
    R8        2.62647   0.01099   0.00000   0.02291   0.02291   2.64938
    R9        2.61673   0.01148   0.00000   0.02353   0.02353   2.64026
   R10        2.04350   0.00870   0.00000   0.02389   0.02389   2.06739
   R11        2.61447   0.00970   0.00000   0.01981   0.01981   2.63429
   R12        2.04185   0.00862   0.00000   0.02363   0.02363   2.06548
   R13        2.61806   0.01067   0.00000   0.02192   0.02191   2.63997
   R14        2.04113   0.00874   0.00000   0.02391   0.02391   2.06503
   R15        2.61228   0.01047   0.00000   0.02125   0.02125   2.63353
   R16        2.04156   0.00869   0.00000   0.02380   0.02380   2.06535
   R17        2.04164   0.00928   0.00000   0.02542   0.02542   2.06706
   R18        2.61292   0.00755   0.00000   0.01461   0.01461   2.62752
   R19        2.04010   0.00903   0.00000   0.02466   0.02466   2.06476
   R20        2.62152   0.00761   0.00000   0.01510   0.01509   2.63661
   R21        2.04255   0.00830   0.00000   0.02277   0.02277   2.06532
   R22        2.61713   0.00713   0.00000   0.01476   0.01476   2.63189
   R23        2.03879   0.00895   0.00000   0.02439   0.02439   2.06318
   R24        2.49778   0.01348   0.00000   0.02230   0.02231   2.52008
   R25        2.04606   0.00930   0.00000   0.02567   0.02567   2.07173
    A1        2.11090  -0.00063   0.00000  -0.00288  -0.00288   2.10802
    A2        2.03835   0.00258   0.00000   0.00969   0.00969   2.04804
    A3        2.13339  -0.00195   0.00000  -0.00690  -0.00690   2.12649
    A4        1.90182   0.00869   0.00000   0.04396   0.04379   1.94561
    A5        1.88958  -0.00338   0.00000  -0.01758  -0.01774   1.87184
    A6        1.92000  -0.00161   0.00000  -0.00057  -0.00083   1.91917
    A7        1.92145  -0.00120   0.00000  -0.00074  -0.00068   1.92077
    A8        1.92211  -0.00250   0.00000  -0.00634  -0.00662   1.91549
    A9        1.90860  -0.00001   0.00000  -0.01872  -0.01887   1.88973
   A10        2.11866   0.00057   0.00000   0.00235   0.00235   2.12101
   A11        2.08678   0.00107   0.00000   0.00432   0.00432   2.09110
   A12        2.07732  -0.00164   0.00000  -0.00660  -0.00661   2.07071
   A13        2.10326   0.00110   0.00000   0.00477   0.00476   2.10802
   A14        2.09082  -0.00090   0.00000  -0.00447  -0.00447   2.08635
   A15        2.08909  -0.00020   0.00000  -0.00027  -0.00027   2.08881
   A16        2.09653  -0.00006   0.00000  -0.00032  -0.00033   2.09620
   A17        2.09099   0.00011   0.00000   0.00060   0.00060   2.09159
   A18        2.09567  -0.00004   0.00000  -0.00028  -0.00028   2.09539
   A19        2.08936  -0.00055   0.00000  -0.00251  -0.00252   2.08685
   A20        2.09668   0.00027   0.00000   0.00124   0.00124   2.09792
   A21        2.09714   0.00028   0.00000   0.00127   0.00128   2.09842
   A22        2.09634   0.00042   0.00000   0.00168   0.00168   2.09802
   A23        2.09432  -0.00010   0.00000  -0.00018  -0.00018   2.09414
   A24        2.09253  -0.00032   0.00000  -0.00151  -0.00150   2.09102
   A25        2.10354   0.00074   0.00000   0.00304   0.00303   2.10657
   A26        2.07839  -0.00019   0.00000  -0.00045  -0.00045   2.07794
   A27        2.10124  -0.00055   0.00000  -0.00260  -0.00261   2.09864
   A28        2.07301   0.00152   0.00000   0.00459   0.00459   2.07759
   A29        2.09679  -0.00081   0.00000  -0.00259  -0.00260   2.09419
   A30        2.11338  -0.00071   0.00000  -0.00201  -0.00202   2.11137
   A31        2.07401   0.00098   0.00000   0.00103   0.00102   2.07503
   A32        2.10412  -0.00059   0.00000  -0.00112  -0.00112   2.10300
   A33        2.10505  -0.00039   0.00000   0.00009   0.00009   2.10514
   A34        2.05904   0.00018   0.00000  -0.00060  -0.00060   2.05843
   A35        2.11552   0.00037   0.00000   0.00306   0.00306   2.11858
   A36        2.10862  -0.00055   0.00000  -0.00246  -0.00245   2.10617
   A37        2.15454  -0.00066   0.00000  -0.00137  -0.00138   2.15317
   A38        2.11537  -0.00224   0.00000  -0.01483  -0.01483   2.10054
   A39        2.01327   0.00290   0.00000   0.01620   0.01620   2.02947
   A40        2.07236  -0.00007   0.00000   0.00327   0.00327   2.07564
    D1       -1.24684  -0.00024   0.00000  -0.02809  -0.02824  -1.27508
    D2        2.94664  -0.00184   0.00000  -0.04227  -0.04214   2.90450
    D3        0.86193   0.00116   0.00000  -0.00858  -0.00855   0.85338
    D4        1.86000  -0.00034   0.00000  -0.03099  -0.03115   1.82885
    D5       -0.22970  -0.00193   0.00000  -0.04517  -0.04505  -0.27475
    D6       -2.31442   0.00107   0.00000  -0.01148  -0.01145  -2.32587
    D7        3.11093  -0.00010   0.00000  -0.00484  -0.00483   3.10610
    D8       -0.02749   0.00006   0.00000   0.00078   0.00079  -0.02670
    D9        0.00601  -0.00009   0.00000  -0.00212  -0.00213   0.00388
   D10       -3.13241   0.00007   0.00000   0.00350   0.00349  -3.12892
   D11       -3.11207   0.00027   0.00000   0.00839   0.00839  -3.10368
   D12       -0.00571   0.00020   0.00000   0.00554   0.00554  -0.00017
   D13        1.93125   0.00059   0.00000   0.01237   0.01233   1.94358
   D14       -1.17855   0.00056   0.00000   0.01006   0.01002  -1.16852
   D15       -2.28210   0.00101   0.00000   0.01707   0.01714  -2.26496
   D16        0.89129   0.00098   0.00000   0.01477   0.01483   0.90612
   D17       -0.17623  -0.00137   0.00000  -0.01075  -0.01078  -0.18700
   D18        2.99716  -0.00140   0.00000  -0.01306  -0.01308   2.98407
   D19       -3.11752   0.00017   0.00000   0.00614   0.00614  -3.11137
   D20        0.03119   0.00008   0.00000   0.00287   0.00287   0.03406
   D21       -0.00755   0.00025   0.00000   0.00862   0.00862   0.00107
   D22        3.14116   0.00015   0.00000   0.00535   0.00534  -3.13669
   D23        3.11632  -0.00009   0.00000  -0.00325  -0.00325   3.11307
   D24       -0.02171   0.00006   0.00000   0.00222   0.00222  -0.01948
   D25        0.00576  -0.00016   0.00000  -0.00565  -0.00564   0.00012
   D26       -3.13226  -0.00001   0.00000  -0.00019  -0.00018  -3.13244
   D27        0.00521  -0.00018   0.00000  -0.00649  -0.00650  -0.00129
   D28       -3.13719  -0.00007   0.00000  -0.00245  -0.00246  -3.13965
   D29        3.13970  -0.00009   0.00000  -0.00324  -0.00324   3.13646
   D30       -0.00270   0.00002   0.00000   0.00080   0.00080  -0.00190
   D31       -0.00097   0.00004   0.00000   0.00129   0.00128   0.00031
   D32        3.14053   0.00009   0.00000   0.00312   0.00312  -3.13954
   D33        3.14143  -0.00008   0.00000  -0.00276  -0.00277   3.13866
   D34       -0.00025  -0.00003   0.00000  -0.00093  -0.00093  -0.00118
   D35       -0.00081   0.00005   0.00000   0.00168   0.00168   0.00087
   D36        3.14059   0.00003   0.00000   0.00114   0.00115  -3.14144
   D37        3.14087  -0.00000   0.00000  -0.00015  -0.00016   3.14071
   D38       -0.00091  -0.00002   0.00000  -0.00069  -0.00069  -0.00160
   D39       -0.00162   0.00001   0.00000   0.00052   0.00053  -0.00108
   D40        3.13636  -0.00015   0.00000  -0.00501  -0.00499   3.13136
   D41        3.14016   0.00003   0.00000   0.00106   0.00107   3.14123
   D42       -0.00505  -0.00013   0.00000  -0.00447  -0.00446  -0.00951
   D43       -0.00207  -0.00004   0.00000  -0.00166  -0.00165  -0.00372
   D44        3.14003   0.00003   0.00000   0.00093   0.00093   3.14096
   D45        3.13632  -0.00020   0.00000  -0.00734  -0.00733   3.12899
   D46       -0.00477  -0.00013   0.00000  -0.00475  -0.00475  -0.00952
   D47       -0.00175   0.00006   0.00000   0.00189   0.00189   0.00014
   D48        3.14113   0.00006   0.00000   0.00194   0.00193  -3.14012
   D49        3.13934  -0.00002   0.00000  -0.00070  -0.00070   3.13864
   D50       -0.00097  -0.00002   0.00000  -0.00065  -0.00065  -0.00162
   D51        0.00215   0.00005   0.00000   0.00161   0.00160   0.00375
   D52       -3.13978   0.00001   0.00000   0.00024   0.00024  -3.13954
   D53       -3.14073   0.00005   0.00000   0.00157   0.00156  -3.13916
   D54        0.00053   0.00001   0.00000   0.00020   0.00020   0.00073
   D55        0.00157  -0.00017   0.00000  -0.00531  -0.00532  -0.00374
   D56       -3.13971  -0.00013   0.00000  -0.00400  -0.00400   3.13948
         Item               Value     Threshold  Converged?
 Maximum Force            0.013482     0.000450     NO 
 RMS     Force            0.004304     0.000300     NO 
 Maximum Displacement     0.200832     0.001800     NO 
 RMS     Displacement     0.056430     0.001200     NO 
 Predicted change in Energy=-2.912628D-03
 GradGradGradGradGradGradGradGradGradGradGradGradGradGradGradGradGradGrad

                          Input orientation:                          
 ---------------------------------------------------------------------
 Center     Atomic      Atomic             Coordinates (Angstroms)
 Number     Number       Type             X           Y           Z
 ---------------------------------------------------------------------
      1          6           0       -1.264000    0.167176    0.654702
      2          6           0       -0.017700    0.223614    1.517295
      3          6           0        1.242228    0.051910    0.686069
      4          6           0        2.143022    1.105312    0.497104
      5          6           0        3.278704    0.940671   -0.299885
      6          6           0        3.527825   -0.283902   -0.917631
      7          6           0        2.635052   -1.342688   -0.734401
      8          6           0        1.502315   -1.175249    0.059957
      9          6           0       -1.599859    1.233608   -0.191631
     10          6           0       -2.727277    1.125833   -0.998228
     11          6           0       -3.486567   -0.043388   -0.942719
     12          6           0       -3.071794   -1.050212   -0.074396
     13          7           0       -1.993715   -0.949332    0.704052
     14          1           0       -0.095330   -0.585971    2.254887
     15          1           0        0.021488    1.180632    2.058390
     16          1           0        1.956802    2.067879    0.982550
     17          1           0        3.973305    1.773605   -0.435564
     18          1           0        4.416585   -0.415028   -1.539769
     19          1           0        2.823767   -2.305777   -1.215398
     20          1           0        0.797909   -2.000942    0.196077
     21          1           0       -0.974221    2.129032   -0.216472
     22          1           0       -3.011356    1.942791   -1.666327
     23          1           0       -4.378508   -0.171939   -1.559095
     24          1           0       -3.637915   -1.986144   -0.000636
 ---------------------------------------------------------------------
                    Distance matrix (angstroms):
                    1          2          3          4          5
     1  C    0.000000
     2  C    1.516745   0.000000
     3  C    2.509073   1.519157   0.000000
     4  C    3.537335   2.546940   1.398854   0.000000
     5  C    4.705921   3.831788   2.430892   1.397166   0.000000
     6  C    5.063328   4.330957   2.812219   2.418485   1.394005
     7  C    4.405894   3.815826   2.429526   2.784134   2.411809
     8  C    3.131825   2.528062   1.401992   2.408851   2.786066
     9  C    1.402268   2.538453   3.200660   3.807884   4.888549
    10  C    2.406736   3.805741   4.443775   5.094728   6.049279
    11  C    2.745159   4.260986   5.002353   5.923249   6.866623
    12  C    2.298203   3.672003   4.517053   5.671614   6.659076
    13  N    1.334732   2.437581   3.387350   4.623526   5.690203
    14  H    2.119814   1.097951   2.158042   3.310659   4.499067
    15  H    2.156366   1.100092   2.155802   2.635184   4.028461
    16  H    3.754161   2.754256   2.159316   1.094016   2.159321
    17  H    5.585576   4.705768   3.417759   2.160190   1.093004
    18  H    6.117492   5.423688   3.904988   3.410186   2.161019
    19  H    5.130556   4.683948   3.416948   3.877062   3.403609
    20  H    3.026969   2.712837   2.156784   3.398347   3.879873
    21  H    2.166055   2.747999   3.168858   3.357737   4.416620
    22  H    3.404884   4.696062   5.215570   5.652381   6.514312
    23  H    3.836151   5.351382   6.056694   6.956269   7.839414
    24  H    3.271349   4.504786   5.333013   6.574502   7.516343
                    6          7          8          9         10
     6  C    0.000000
     7  C    1.397013   0.000000
     8  C    2.419270   1.393604   0.000000
     9  C    5.396578   4.986619   3.935654   0.000000
    10  C    6.412499   5.909125   4.929927   1.390426   0.000000
    11  C    7.018559   6.261453   5.213005   2.398858   1.395235
    12  C    6.697257   5.752324   4.577790   2.719590   2.389002
    13  N    5.793104   4.863060   3.562040   2.392195   2.782477
    14  H    4.825284   4.118671   2.778028   3.399989   4.521081
    15  H    4.826589   4.582307   3.425895   2.773836   4.111158
    16  H    3.407298   3.878133   3.402296   3.837258   5.172188
    17  H    2.159670   3.404630   3.879055   5.604575   6.755294
    18  H    1.092769   2.164032   3.410283   6.382247   7.328184
    19  H    2.161560   1.092937   2.156585   5.757066   6.529716
    20  H    3.411893   2.161986   1.093840   4.044988   4.861072
    21  H    5.155802   5.034673   4.138589   1.092622   2.165815
    22  H    6.948351   6.598846   5.751126   2.161017   1.092922
    23  H    7.933102   7.158267   6.181589   3.400943   2.173787
    24  H    7.422017   6.348429   5.204151   3.815357   3.392469
                   11         12         13         14         15
    11  C    0.000000
    12  C    1.392737   0.000000
    13  N    2.400250   1.333571   0.000000
    14  H    4.692502   3.807941   2.478102   0.000000
    15  H    4.776121   4.369649   3.229864   1.781332   0.000000
    16  H    6.147713   6.010525   4.978726   3.587898   2.385388
    17  H    7.694697   7.598540   6.657210   5.418479   4.710444
    18  H    7.934381   7.656801   6.812647   5.897967   5.899979
    19  H    6.709179   6.134816   5.360258   4.849921   5.543059
    20  H    4.846196   3.993951   3.026068   2.653058   3.767420
    21  H    3.399812   3.811507   3.370913   3.775090   2.658175
    22  H    2.166642   3.390570   3.875392   5.502160   4.863388
    23  H    1.091789   2.164069   3.378374   5.750087   5.854538
    24  H    2.164423   1.096313   2.067597   4.426938   5.259210
                   16         17         18         19         20
    16  H    0.000000
    17  H    2.482726   0.000000
    18  H    4.310157   2.491160   0.000000
    19  H    4.971064   4.309401   2.493436   0.000000
    20  H    4.303125   4.972858   4.315450   2.487828   0.000000
    21  H    3.167379   4.965113   6.106074   5.923689   4.513018
    22  H    5.631588   7.094286   7.794205   7.232034   5.790689
    23  H    7.184212   8.648714   8.798473   7.519585   5.763782
    24  H    6.978726   8.500326   8.349389   6.582639   4.440208
                   21         22         23         24
    21  H    0.000000
    22  H    2.507326   0.000000
    23  H    4.322762   2.520454   0.000000
    24  H    4.906783   4.313192   2.503719   0.000000
 Stoichiometry    C12H11N
 Framework group  C1[X(C12H11N)]
 Deg. of freedom    66
 Full point group                 C1      NOp   1
 Largest Abelian subgroup         C1      NOp   1
 Largest concise Abelian subgroup C1      NOp   1
                         Standard orientation:                         
 ---------------------------------------------------------------------
 Center     Atomic      Atomic             Coordinates (Angstroms)
 Number     Number       Type             X           Y           Z
 ---------------------------------------------------------------------
      1          6           0        1.272642   -0.187861    0.657519
      2          6           0        0.023988   -0.290594    1.512403
      3          6           0       -1.234031   -0.082087    0.686721
      4          6           0       -2.130820   -1.127704    0.443313
      5          6           0       -3.264672   -0.927549   -0.348135
      6          6           0       -3.515961    0.325180   -0.905606
      7          6           0       -2.627194    1.376432   -0.667686
      8          6           0       -1.496270    1.173603    0.120987
      9          6           0        1.614480   -1.210266   -0.239248
     10          6           0        2.743920   -1.059387   -1.036046
     11          6           0        3.499222    0.108040   -0.920669
     12          6           0        3.078600    1.069582   -0.005119
     13          7           0        1.998560    0.927129    0.764057
     14          1           0        0.096794    0.481921    2.289202
     15          1           0       -0.013675   -1.273217    2.005593
     16          1           0       -1.942894   -2.112426    0.881351
     17          1           0       -3.956146   -1.754949   -0.526824
     18          1           0       -4.403302    0.484017   -1.523296
     19          1           0       -2.817629    2.361449   -1.101262
     20          1           0       -0.794968    1.993781    0.299791
     21          1           0        0.991845   -2.105324   -0.310097
     22          1           0        3.032637   -1.841561   -1.742674
     23          1           0        4.392557    0.269569   -1.527187
     24          1           0        3.641442    2.002504    0.116398
 ---------------------------------------------------------------------
 Rotational constants (GHZ):           1.9081841           0.4528118           0.4345004
 Standard basis: def2SVP (5D, 7F)
 There are   250 symmetry adapted cartesian basis functions of A   symmetry.
 There are   237 symmetry adapted basis functions of A   symmetry.
   237 basis functions,   402 primitive gaussians,   250 cartesian basis functions
    45 alpha electrons       45 beta electrons
       nuclear repulsion energy       698.2308691309 Hartrees.
 NAtoms=   24 NActive=   24 NUniq=   24 SFac= 1.00D+00 NAtFMM=   60 NAOKFM=F Big=F
 Integral buffers will be    131072 words long.
 Raffenetti 2 integral format.
 Two-electron integral symmetry is turned on.
 Nuclear repulsion after empirical dispersion term =      698.2169563138 Hartrees.
 One-electron integrals computed using PRISM.
   1 Symmetry operations used in ECPInt.
 ECPInt:  NShTT=    6216 NPrTT=   22568 LenC2=    5956 LenP2D=   16128.
 LDataN:  DoStor=T MaxTD1= 4 Len=   56
 NBasis=   237 RedAO= T EigKep=  2.91D-04  NBF=   237
 NBsUse=   237 1.00D-06 EigRej= -1.00D+00 NBFU=   237
 Initial guess from the checkpoint file:  "Py6_1.chk"
 B after Tr=    -0.000000   -0.000000    0.000000
         Rot=    0.999975   -0.006624    0.000595   -0.002472 Ang=  -0.81 deg.
 ExpMin= 1.22D-01 ExpMax= 1.71D+03 ExpMxC= 2.58D+02 IAcc=3 IRadAn=         5 AccDes= 0.00D+00
 Harris functional with IExCor= 4639 and IRadAn=       5 diagonalized for initial guess.
 HarFok:  IExCor= 4639 AccDes= 0.00D+00 IRadAn=         5 IDoV= 1 UseB2=F ITyADJ=14
 ICtDFT=  3500011 ScaDFX=  1.000000  1.000000  1.000000  1.000000
 FoFCou: FMM=F IPFlag=           0 FMFlag=      100000 FMFlg1=           0
         NFxFlg=           0 DoJE=T BraDBF=F KetDBF=T FulRan=T
         wScrn=  0.000000 ICntrl=       500 IOpCl=  0 I1Cent=   200000004 NGrid=           0
         NMat0=    1 NMatS0=      1 NMatT0=    0 NMatD0=    1 NMtDS0=    0 NMtDT0=    0
 Petite list used in FoFCou.
 Requested convergence on RMS density matrix=1.00D-08 within 128 cycles.
 Requested convergence on MAX density matrix=1.00D-06.
 Requested convergence on             energy=1.00D-06.
 No special actions if energy rises.
 Integral accuracy reduced to 1.0D-05 until final iterations.
 Initial convergence to 1.0D-05 achieved.  Increase integral accuracy.
 SCF Done:  E(RwB97XD) =  -518.109173694     A.U. after   13 cycles
            NFock= 13  Conv=0.44D-08     -V/T= 2.0114
   1 Symmetry operations used in ECPInt.
 ECPInt:  NShTT=    6216 NPrTT=   22568 LenC2=    5956 LenP2D=   16128.
 LDataN:  DoStor=T MaxTD1= 5 Len=  102
 Calling FoFJK, ICntrl=      2127 FMM=F ISym2X=0 I1Cent= 0 IOpClX= 0 NMat=1 NMatS=1 NMatT=0.
 ***** Axes restored to original set *****
 -------------------------------------------------------------------
 Center     Atomic                   Forces (Hartrees/Bohr)
 Number     Number              X              Y              Z
 -------------------------------------------------------------------
      1        6          -0.000572020   -0.000143408   -0.000558919
      2        6           0.000316356   -0.000631767   -0.003618500
      3        6          -0.000497283    0.000071006    0.000563650
      4        6          -0.000079422   -0.000942989   -0.000393148
      5        6          -0.000501955   -0.000751267    0.000364358
      6        6          -0.000719929    0.000268045    0.000575028
      7        6          -0.000421425    0.000618821    0.000561275
      8        6           0.000599252    0.000753020   -0.000426145
      9        6          -0.000780187   -0.000340142    0.000025120
     10        6           0.000318699   -0.000080058    0.000251133
     11        6           0.000569236    0.000228099    0.000317491
     12        6           0.000841418    0.001243389    0.000350050
     13        7           0.001022942   -0.000546720    0.000328971
     14        1          -0.000047638    0.000006966    0.000844236
     15        1           0.000029521    0.000136517    0.000063765
     16        1           0.000007426   -0.000194487   -0.000136049
     17        1          -0.000345788   -0.000227122    0.000112507
     18        1          -0.000363578    0.000025459    0.000191858
     19        1          -0.000118511    0.000275028    0.000236921
     20        1           0.000134988    0.000237907   -0.000111352
     21        1          -0.000113359   -0.000205523   -0.000017112
     22        1           0.000124006   -0.000163627    0.000252489
     23        1           0.000282688   -0.000087365    0.000227010
     24        1           0.000314563    0.000450219   -0.000004636
 -------------------------------------------------------------------
 Cartesian Forces:  Max     0.003618500 RMS     0.000611383

 GradGradGradGradGradGradGradGradGradGradGradGradGradGradGradGradGradGrad
 Berny optimization.
 Using GEDIIS/GDIIS optimizer.
 FormGI is forming the generalized inverse of G from B-inverse, IUseBI=4.
 Internal  Forces:  Max     0.002775623 RMS     0.000611929
 Search for a local minimum.
 Step number   2 out of a maximum of  131
 All quantities printed in internal units (Hartrees-Bohrs-Radians)
 Mixed Optimization -- En-DIIS/RFO-DIIS
 Update second derivatives using D2CorX and points    1    2
 DE= -2.59D-03 DEPred=-2.91D-03 R= 8.89D-01
 TightC=F SS=  1.41D+00  RLast= 1.50D-01 DXNew= 5.0454D-01 4.4897D-01
 Trust test= 8.89D-01 RLast= 1.50D-01 DXMaxT set to 4.49D-01
 ITU=  1  0
 Use linear search instead of GDIIS.
     Eigenvalues ---    0.00676   0.00701   0.01606   0.01607   0.02238
     Eigenvalues ---    0.02247   0.02267   0.02272   0.02272   0.02276
     Eigenvalues ---    0.02289   0.02292   0.02293   0.02298   0.02300
     Eigenvalues ---    0.02306   0.02318   0.02428   0.02609   0.05114
     Eigenvalues ---    0.06517   0.09784   0.13157   0.15974   0.15999
     Eigenvalues ---    0.15999   0.16000   0.16000   0.16000   0.16000
     Eigenvalues ---    0.16000   0.16015   0.21687   0.22000   0.22000
     Eigenvalues ---    0.22010   0.22426   0.23490   0.24542   0.24987
     Eigenvalues ---    0.25059   0.31771   0.32314   0.34547   0.34684
     Eigenvalues ---    0.35700   0.35837   0.35898   0.35938   0.35949
     Eigenvalues ---    0.35969   0.36029   0.36102   0.36507   0.43410
     Eigenvalues ---    0.43520   0.43605   0.45850   0.47444   0.47715
     Eigenvalues ---    0.48183   0.48296   0.48335   0.50898   0.59906
     Eigenvalues ---    0.60530
 RFO step:  Lambda=-1.34322242D-04 EMin= 6.76443992D-03
 Quartic linear search produced a step of -0.07559.
 Iteration  1 RMS(Cart)=  0.02217958 RMS(Int)=  0.00012543
 Iteration  2 RMS(Cart)=  0.00020065 RMS(Int)=  0.00000465
 Iteration  3 RMS(Cart)=  0.00000002 RMS(Int)=  0.00000465
 Variable       Old X    -DE/DX   Delta X   Delta X   Delta X     New X
                                 (Linear)    (Quad)   (Total)
    R1        2.86623  -0.00232  -0.00172  -0.00461  -0.00633   2.85990
    R2        2.64990  -0.00070  -0.00133   0.00026  -0.00107   2.64883
    R3        2.52228  -0.00168  -0.00137  -0.00093  -0.00230   2.51998
    R4        2.87079  -0.00278  -0.00178  -0.00589  -0.00767   2.86312
    R5        2.07483   0.00057  -0.00102   0.00277   0.00175   2.07658
    R6        2.07887   0.00015  -0.00124   0.00193   0.00069   2.07956
    R7        2.64345  -0.00171  -0.00165  -0.00130  -0.00295   2.64051
    R8        2.64938  -0.00136  -0.00173  -0.00053  -0.00227   2.64712
    R9        2.64026  -0.00153  -0.00178  -0.00074  -0.00252   2.63774
   R10        2.06739  -0.00023  -0.00181   0.00163  -0.00017   2.06722
   R11        2.63429  -0.00117  -0.00150  -0.00035  -0.00185   2.63244
   R12        2.06548  -0.00041  -0.00179   0.00116  -0.00063   2.06485
   R13        2.63997  -0.00105  -0.00166   0.00006  -0.00159   2.63838
   R14        2.06503  -0.00041  -0.00181   0.00118  -0.00062   2.06441
   R15        2.63353  -0.00167  -0.00161  -0.00117  -0.00278   2.63075
   R16        2.06535  -0.00037  -0.00180   0.00128  -0.00052   2.06483
   R17        2.06706  -0.00028  -0.00192   0.00166  -0.00027   2.06679
   R18        2.62752  -0.00157  -0.00110  -0.00155  -0.00265   2.62487
   R19        2.06476  -0.00023  -0.00186   0.00171  -0.00016   2.06460
   R20        2.63661  -0.00101  -0.00114  -0.00046  -0.00160   2.63501
   R21        2.06532  -0.00031  -0.00172   0.00134  -0.00039   2.06494
   R22        2.63189  -0.00050  -0.00112   0.00042  -0.00070   2.63119
   R23        2.06318  -0.00035  -0.00184   0.00139  -0.00046   2.06273
   R24        2.52008  -0.00134  -0.00169   0.00002  -0.00167   2.51842
   R25        2.07173  -0.00055  -0.00194   0.00098  -0.00096   2.07077
    A1        2.10802   0.00008   0.00022   0.00017   0.00038   2.10839
    A2        2.04804  -0.00143  -0.00073  -0.00423  -0.00497   2.04307
    A3        2.12649   0.00136   0.00052   0.00426   0.00478   2.13128
    A4        1.94561   0.00044  -0.00331   0.00663   0.00333   1.94894
    A5        1.87184  -0.00007   0.00134  -0.00156  -0.00021   1.87163
    A6        1.91917  -0.00008   0.00006   0.00014   0.00022   1.91939
    A7        1.92077  -0.00008   0.00005  -0.00021  -0.00017   1.92061
    A8        1.91549  -0.00006   0.00050  -0.00032   0.00019   1.91569
    A9        1.88973  -0.00017   0.00143  -0.00503  -0.00359   1.88613
   A10        2.12101  -0.00030  -0.00018  -0.00081  -0.00099   2.12002
   A11        2.09110  -0.00007  -0.00033   0.00023  -0.00010   2.09100
   A12        2.07071   0.00036   0.00050   0.00065   0.00115   2.07186
   A13        2.10802  -0.00014  -0.00036  -0.00020  -0.00056   2.10746
   A14        2.08635   0.00006   0.00034  -0.00018   0.00016   2.08651
   A15        2.08881   0.00008   0.00002   0.00036   0.00038   2.08920
   A16        2.09620  -0.00006   0.00002  -0.00019  -0.00017   2.09603
   A17        2.09159  -0.00011  -0.00005  -0.00067  -0.00072   2.09087
   A18        2.09539   0.00017   0.00002   0.00087   0.00089   2.09628
   A19        2.08685   0.00007   0.00019   0.00020   0.00039   2.08724
   A20        2.09792   0.00000  -0.00009   0.00011   0.00002   2.09793
   A21        2.09842  -0.00007  -0.00010  -0.00032  -0.00041   2.09801
   A22        2.09802  -0.00013  -0.00013  -0.00028  -0.00041   2.09761
   A23        2.09414   0.00016   0.00001   0.00076   0.00077   2.09491
   A24        2.09102  -0.00003   0.00011  -0.00047  -0.00036   2.09066
   A25        2.10657  -0.00011  -0.00023  -0.00018  -0.00041   2.10616
   A26        2.07794   0.00006   0.00003   0.00022   0.00026   2.07820
   A27        2.09864   0.00005   0.00020  -0.00004   0.00016   2.09880
   A28        2.07759  -0.00008  -0.00035   0.00022  -0.00013   2.07747
   A29        2.09419   0.00004   0.00020  -0.00017   0.00003   2.09422
   A30        2.11137   0.00005   0.00015  -0.00005   0.00010   2.11147
   A31        2.07503  -0.00070  -0.00008  -0.00250  -0.00258   2.07245
   A32        2.10300   0.00025   0.00008   0.00064   0.00072   2.10373
   A33        2.10514   0.00045  -0.00001   0.00187   0.00186   2.10700
   A34        2.05843   0.00022   0.00005   0.00106   0.00110   2.05954
   A35        2.11858   0.00002  -0.00023   0.00046   0.00023   2.11882
   A36        2.10617  -0.00024   0.00019  -0.00152  -0.00134   2.10483
   A37        2.15317   0.00075   0.00010   0.00287   0.00297   2.15614
   A38        2.10054  -0.00033   0.00112  -0.00261  -0.00149   2.09906
   A39        2.02947  -0.00042  -0.00122  -0.00025  -0.00148   2.02799
   A40        2.07564  -0.00155  -0.00025  -0.00590  -0.00615   2.06949
    D1       -1.27508  -0.00031   0.00213  -0.03403  -0.03188  -1.30696
    D2        2.90450  -0.00043   0.00319  -0.03670  -0.03352   2.87098
    D3        0.85338  -0.00014   0.00065  -0.02988  -0.02923   0.82415
    D4        1.82885  -0.00017   0.00235  -0.02797  -0.02561   1.80324
    D5       -0.27475  -0.00029   0.00341  -0.03063  -0.02725  -0.30200
    D6       -2.32587  -0.00000   0.00087  -0.02381  -0.02296  -2.34883
    D7        3.10610   0.00013   0.00036   0.00641   0.00679   3.11288
    D8       -0.02670   0.00009  -0.00006   0.00563   0.00559  -0.02112
    D9        0.00388   0.00005   0.00016   0.00026   0.00041   0.00430
   D10       -3.12892   0.00001  -0.00026  -0.00052  -0.00079  -3.12970
   D11       -3.10368  -0.00020  -0.00063  -0.00752  -0.00815  -3.11183
   D12       -0.00017  -0.00009  -0.00042  -0.00148  -0.00190  -0.00207
   D13        1.94358   0.00017  -0.00093   0.02195   0.02102   1.96460
   D14       -1.16852   0.00013  -0.00076   0.01930   0.01855  -1.14998
   D15       -2.26496   0.00032  -0.00130   0.02406   0.02276  -2.24220
   D16        0.90612   0.00027  -0.00112   0.02142   0.02029   0.92641
   D17       -0.18700   0.00002   0.00081   0.01755   0.01837  -0.16864
   D18        2.98407  -0.00003   0.00099   0.01491   0.01590   2.99997
   D19       -3.11137  -0.00016  -0.00046  -0.00628  -0.00675  -3.11812
   D20        0.03406  -0.00008  -0.00022  -0.00334  -0.00356   0.03050
   D21        0.00107  -0.00012  -0.00065  -0.00367  -0.00433  -0.00326
   D22       -3.13669  -0.00004  -0.00040  -0.00073  -0.00113  -3.13782
   D23        3.11307   0.00012   0.00025   0.00531   0.00556   3.11863
   D24       -0.01948   0.00010  -0.00017   0.00477   0.00461  -0.01488
   D25        0.00012   0.00009   0.00043   0.00276   0.00319   0.00330
   D26       -3.13244   0.00006   0.00001   0.00223   0.00224  -3.13020
   D27       -0.00129   0.00008   0.00049   0.00265   0.00314   0.00185
   D28       -3.13965   0.00004   0.00019   0.00135   0.00153  -3.13812
   D29        3.13646   0.00000   0.00024  -0.00030  -0.00006   3.13640
   D30       -0.00190  -0.00004  -0.00006  -0.00160  -0.00167  -0.00357
   D31        0.00031  -0.00002  -0.00010  -0.00063  -0.00073  -0.00043
   D32       -3.13954  -0.00004  -0.00024  -0.00129  -0.00153  -3.14107
   D33        3.13866   0.00003   0.00021   0.00067   0.00088   3.13954
   D34       -0.00118   0.00000   0.00007   0.00001   0.00008  -0.00111
   D35        0.00087  -0.00001  -0.00013  -0.00027  -0.00039   0.00048
   D36       -3.14144   0.00000  -0.00009   0.00029   0.00021  -3.14124
   D37        3.14071   0.00001   0.00001   0.00039   0.00041   3.14112
   D38       -0.00160   0.00002   0.00005   0.00095   0.00100  -0.00059
   D39       -0.00108  -0.00002  -0.00004  -0.00082  -0.00086  -0.00195
   D40        3.13136   0.00000   0.00038  -0.00028   0.00010   3.13146
[...]
 Alpha virt. eigenvalues --    2.67392   2.68860   2.69007   2.69840   2.70614
 Alpha virt. eigenvalues --    2.71689   2.74261   2.74465   2.74781   2.75351
 Alpha virt. eigenvalues --    2.76517   2.77404   2.77838   2.78217   2.79648
 Alpha virt. eigenvalues --    2.80652   2.80710   2.83348   2.85392   2.86128
 Alpha virt. eigenvalues --    2.86600   2.87981   2.88348   2.88515   2.89609
 Alpha virt. eigenvalues --    2.90059   2.92024   2.92710   2.93216   2.94647
 Alpha virt. eigenvalues --    2.95573   2.96194   2.97729   2.98981   3.00951
 Alpha virt. eigenvalues --    3.01556   3.02382   3.05583   3.06080   3.08421
 Alpha virt. eigenvalues --    3.10580   3.10779   3.12063   3.12324   3.14223
 Alpha virt. eigenvalues --    3.15841   3.17697   3.18579   3.19883   3.20789
 Alpha virt. eigenvalues --    3.21231   3.22239   3.22550   3.23516   3.23894
 Alpha virt. eigenvalues --    3.24632   3.25307   3.25948   3.27024   3.27858
 Alpha virt. eigenvalues --    3.29103   3.30650   3.31825   3.32678   3.33963
 Alpha virt. eigenvalues --    3.34963   3.36245   3.36987   3.37621   3.39064
 Alpha virt. eigenvalues --    3.40490   3.41492   3.41995   3.43284   3.43857
 Alpha virt. eigenvalues --    3.44683   3.45733   3.46955   3.48301   3.49475
 Alpha virt. eigenvalues --    3.50958   3.52299   3.52799   3.53866   3.54269
 Alpha virt. eigenvalues --    3.55128   3.57706   3.58434   3.59064   3.59884
 Alpha virt. eigenvalues --    3.61952   3.63691   3.64862   3.65530   3.68164
 Alpha virt. eigenvalues --    3.68929   3.70472   3.73248   3.74365   3.78381
 Alpha virt. eigenvalues --    3.79763   3.81317   3.84085   3.85004   3.85669
 Alpha virt. eigenvalues --    3.88913   3.89488   3.92249   3.94140   3.95324
 Alpha virt. eigenvalues --    3.96991   3.98429   3.99579   4.02099   4.04944
 Alpha virt. eigenvalues --    4.06688   4.09305   4.09569   4.11391   4.12852
 Alpha virt. eigenvalues --    4.14750   4.16491   4.20844   4.22606   4.23547
 Alpha virt. eigenvalues --    4.25409   4.27189   4.28764   4.29266   4.29867
 Alpha virt. eigenvalues --    4.30693   4.33236   4.33922   4.36902   4.39348
 Alpha virt. eigenvalues --    4.39618   4.40624   4.42821   4.44750   4.45883
 Alpha virt. eigenvalues --    4.49830   4.52258   4.54173   4.58982   4.61024
 Alpha virt. eigenvalues --    4.64823   4.69075   4.70398   4.76037   4.77082
 Alpha virt. eigenvalues --    4.79589   4.80514   4.81828   4.84157   4.85096
 Alpha virt. eigenvalues --    4.95095   4.96919   5.01712   5.02094   5.03828
 Alpha virt. eigenvalues --    5.06490   5.06844   5.12901   5.17120   5.17386
 Alpha virt. eigenvalues --    5.23429   5.27513   5.30336   5.31477   5.36412
 Alpha virt. eigenvalues --    5.41505   5.45806   5.49841   5.51572   5.53555
 Alpha virt. eigenvalues --    5.55939   5.73186   5.75237   5.82239   5.90846
 Alpha virt. eigenvalues --    6.19949  22.13457  22.42372  22.61170  22.67806
 Alpha virt. eigenvalues --   22.69758  22.71802  22.78662  22.83976  22.89496
 Alpha virt. eigenvalues --   22.99011  23.20334  23.30674  32.63790
          Condensed to atoms (all electrons):
               1          2          3          4          5          6
     1  C    4.824230   0.300899  -0.014709  -0.006998   0.000927  -0.000418
     2  C    0.300899   5.075879   0.306093  -0.067705   0.014933  -0.004677
     3  C   -0.014709   0.306093   5.042923   0.383381   0.029447  -0.099067
     4  C   -0.006998  -0.067705   0.383381   5.082193   0.420307   0.037771
     5  C    0.000927   0.014933   0.029447   0.420307   4.921215   0.443589
     6  C   -0.000418  -0.004677  -0.099067   0.037771   0.443589   4.942708
     7  C    0.002411   0.010356   0.027857  -0.088219   0.020367   0.423634
     8  C   -0.008115  -0.102338   0.376619   0.047746  -0.090672   0.045921
     9  C    0.494121  -0.063284   0.000150   0.004890  -0.001185   0.000315
    10  C   -0.022371  -0.000217   0.002085  -0.000830   0.000082  -0.000034
    11  C   -0.045260   0.000845  -0.000487   0.000048   0.000001   0.000008
    12  C   -0.083843   0.000385   0.000115  -0.000121  -0.000033   0.000016
    13  N    0.452434  -0.084328  -0.011894   0.001995  -0.000318   0.000326
    14  H   -0.057032   0.392775  -0.017271   0.005550  -0.001383   0.000465
    15  H   -0.039505   0.432280  -0.069050   0.004536   0.000615   0.000283
    16  H   -0.002000  -0.003746  -0.069096   0.439479  -0.049017   0.009850
    17  H    0.000031  -0.000193   0.013261  -0.058698   0.442801  -0.055111
    18  H    0.000002   0.000067  -0.002641   0.009790  -0.053539   0.440207
    19  H    0.000087  -0.000143   0.012693  -0.003155   0.010199  -0.056588
    20  H   -0.007060  -0.010169  -0.055890   0.013657  -0.004619   0.011047
    21  H   -0.044275   0.008138  -0.002901   0.001599   0.000037  -0.000017
    22  H    0.007002  -0.000377   0.000039  -0.000010  -0.000003   0.000001
    23  H   -0.000609   0.000165   0.000001  -0.000002   0.000000  -0.000000
    24  H    0.006752  -0.000148   0.000172   0.000001   0.000001  -0.000002
               7          8          9         10         11         12
     1  C    0.002411  -0.008115   0.494121  -0.022371  -0.045260  -0.083843
     2  C    0.010356  -0.102338  -0.063284  -0.000217   0.000845   0.000385
     3  C    0.027857   0.376619   0.000150   0.002085  -0.000487   0.000115
     4  C   -0.088219   0.047746   0.004890  -0.000830   0.000048  -0.000121
     5  C    0.020367  -0.090672  -0.001185   0.000082   0.000001  -0.000033
     6  C    0.423634   0.045921   0.000315  -0.000034   0.000008   0.000016
     7  C    4.942376   0.414615  -0.000955   0.000127  -0.000027   0.000080
     8  C    0.414615   5.133212   0.006843  -0.000532   0.000030   0.000960
     9  C   -0.000955   0.006843   4.963042   0.504601  -0.020222  -0.043632
    10  C    0.000127  -0.000532   0.504601   4.826798   0.490864  -0.003828
    11  C   -0.000027   0.000030  -0.020222   0.490864   4.937360   0.492591
    12  C    0.000080   0.000960  -0.043632  -0.003828   0.492591   4.742367
    13  N   -0.000649   0.002991  -0.051039  -0.023062  -0.057078   0.530748
    14  H   -0.000084  -0.004294   0.009998  -0.000929   0.000455   0.001067
    15  H   -0.000737   0.008425   0.001671   0.000577   0.000078  -0.000373
    16  H   -0.003740   0.014343   0.001220  -0.000146   0.000016  -0.000013
    17  H    0.011031  -0.004182  -0.000011   0.000000  -0.000000   0.000000
    18  H   -0.054197   0.009973  -0.000001   0.000000  -0.000000   0.000000
    19  H    0.442906  -0.056538   0.000007  -0.000001  -0.000002  -0.000010
    20  H   -0.050496   0.432105   0.002139  -0.000082   0.000612   0.000311
    21  H   -0.000013  -0.000667   0.414759  -0.042987   0.007379  -0.001383
    22  H   -0.000001   0.000035  -0.041375   0.428004  -0.043095   0.004458
    23  H    0.000001  -0.000009   0.006285  -0.050606   0.417872  -0.033798
    24  H   -0.000008   0.000085  -0.001825   0.005667  -0.073924   0.434661
              13         14         15         16         17         18
     1  C    0.452434  -0.057032  -0.039505  -0.002000   0.000031   0.000002
     2  C   -0.084328   0.392775   0.432280  -0.003746  -0.000193   0.000067
     3  C   -0.011894  -0.017271  -0.069050  -0.069096   0.013261  -0.002641
     4  C    0.001995   0.005550   0.004536   0.439479  -0.058698   0.009790
     5  C   -0.000318  -0.001383   0.000615  -0.049017   0.442801  -0.053539
     6  C    0.000326   0.000465   0.000283   0.009850  -0.055111   0.440207
     7  C   -0.000649  -0.000084  -0.000737  -0.003740   0.011031  -0.054197
     8  C    0.002991  -0.004294   0.008425   0.014343  -0.004182   0.009973
     9  C   -0.051039   0.009998   0.001671   0.001220  -0.000011  -0.000001
    10  C   -0.023062  -0.000929   0.000577  -0.000146   0.000000   0.000000
    11  C   -0.057078   0.000455   0.000078   0.000016  -0.000000  -0.000000
    12  C    0.530748   0.001067  -0.000373  -0.000013   0.000000   0.000000
    13  N    6.544221   0.010362   0.003588   0.000036  -0.000000   0.000000
    14  H    0.010362   0.551068  -0.020662   0.000873   0.000004  -0.000001
    15  H    0.003588  -0.020662   0.546097   0.002665  -0.000068  -0.000001
    16  H    0.000036   0.000873   0.002665   0.557353  -0.007109  -0.000160
    17  H   -0.000000   0.000004  -0.000068  -0.007109   0.548390  -0.006934
    18  H    0.000000  -0.000001  -0.000001  -0.000160  -0.006934   0.546299
    19  H   -0.000080  -0.000017   0.000004   0.000044  -0.000129  -0.006961
    20  H    0.024210   0.003210   0.000433   0.000000   0.000014  -0.000075
    21  H    0.005184   0.000131  -0.001033   0.000405  -0.000004  -0.000000
    22  H   -0.001155   0.000014  -0.000007  -0.000001  -0.000000   0.000000
    23  H    0.005869  -0.000013  -0.000004  -0.000000   0.000000  -0.000000
    24  H   -0.032601  -0.000137   0.000000  -0.000000   0.000000  -0.000000
              19         20         21         22         23         24
     1  C    0.000087  -0.007060  -0.044275   0.007002  -0.000609   0.006752
     2  C   -0.000143  -0.010169   0.008138  -0.000377   0.000165  -0.000148
     3  C    0.012693  -0.055890  -0.002901   0.000039   0.000001   0.000172
     4  C   -0.003155   0.013657   0.001599  -0.000010  -0.000002   0.000001
     5  C    0.010199  -0.004619   0.000037  -0.000003   0.000000   0.000001
     6  C   -0.056588   0.011047  -0.000017   0.000001  -0.000000  -0.000002
     7  C    0.442906  -0.050496  -0.000013  -0.000001   0.000001  -0.000008
     8  C   -0.056538   0.432105  -0.000667   0.000035  -0.000009   0.000085
     9  C    0.000007   0.002139   0.414759  -0.041375   0.006285  -0.001825
    10  C   -0.000001  -0.000082  -0.042987   0.428004  -0.050606   0.005667
    11  C   -0.000002   0.000612   0.007379  -0.043095   0.417872  -0.073924
    12  C   -0.000010   0.000311  -0.001383   0.004458  -0.033798   0.434661
    13  N   -0.000080   0.024210   0.005184  -0.001155   0.005869  -0.032601
    14  H   -0.000017   0.003210   0.000131   0.000014  -0.000013  -0.000137
    15  H    0.000004   0.000433  -0.001033  -0.000007  -0.000004   0.000000
    16  H    0.000044   0.000000   0.000405  -0.000001  -0.000000  -0.000000
    17  H   -0.000129   0.000014  -0.000004  -0.000000   0.000000   0.000000
    18  H   -0.006961  -0.000075  -0.000000   0.000000  -0.000000  -0.000000
    19  H    0.545931  -0.006737   0.000001  -0.000000   0.000000   0.000002
    20  H   -0.006737   0.505305  -0.000139   0.000007  -0.000025  -0.000544
    21  H    0.000001  -0.000139   0.535063  -0.005876  -0.000021   0.000103
    22  H   -0.000000   0.000007  -0.005876   0.525694  -0.005950  -0.000197
    23  H    0.000000  -0.000025  -0.000021  -0.005950   0.532503  -0.002148
    24  H    0.000002  -0.000544   0.000103  -0.000197  -0.002148   0.538392
 Mulliken charges:
               1
     1  C    0.243298
     2  C   -0.205489
     3  C    0.148172
     4  C   -0.227204
     5  C   -0.103750
     6  C   -0.140227
     7  C   -0.096634
     8  C   -0.226555
     9  C   -0.186511
    10  C   -0.113181
    11  C   -0.108064
    12  C   -0.040725
    13  N   -0.319761
    14  H    0.125851
    15  H    0.130188
    16  H    0.108744
    17  H    0.116905
    18  H    0.118170
    19  H    0.118486
    20  H    0.142784
    21  H    0.126521
    22  H    0.132793
    23  H    0.130489
    24  H    0.125699
 Sum of Mulliken charges =  -0.00000
 Mulliken charges with hydrogens summed into heavy atoms:
               1
     1  C    0.243298
     2  C    0.050550
     3  C    0.148172
     4  C   -0.118460
     5  C    0.013155
     6  C   -0.022057
     7  C    0.021852
     8  C   -0.083771
     9  C   -0.059990
    10  C    0.019612
    11  C    0.022425
    12  C    0.084974
    13  N   -0.319761
 Electronic spatial extent (au):  <R**2>=           2688.9982
 Charge=              0.0000 electrons
 Dipole moment (field-independent basis, Debye):
    X=              0.9683    Y=             -1.2487    Z=             -1.1443  Tot=              1.9510
 Quadrupole moment (field-independent basis, Debye-Ang):
   XX=            -69.1111   YY=            -69.6169   ZZ=            -77.9305
   XY=              0.1881   XZ=             -2.0526   YZ=             -1.0078
 Traceless Quadrupole moment (field-independent basis, Debye-Ang):
   XX=              3.1084   YY=              2.6026   ZZ=             -5.7110
   XY=              0.1881   XZ=             -2.0526   YZ=             -1.0078
 Octapole moment (field-independent basis, Debye-Ang**2):
  XXX=             19.1361  YYY=             -0.8760  ZZZ=              2.8398  XYY=              0.1630
  XXY=              6.0091  XXZ=            -35.4014  XZZ=              5.5392  YZZ=             -3.8483
  YYZ=             -4.3452  XYZ=              3.9339
 Hexadecapole moment (field-independent basis, Debye-Ang**3):
 XXXX=          -2685.3359 YYYY=           -531.0435 ZZZZ=           -356.9198 XXXY=             45.7680
 XXXZ=              1.0143 YYYX=              7.1737 YYYZ=             -0.6175 ZZZX=             -9.7546
 ZZZY=              1.4961 XXYY=           -517.5501 XXZZ=           -523.0430 YYZZ=           -157.6555
 XXYZ=              2.9890 YYXZ=             -1.7970 ZZXY=            -10.8673
 N-N= 6.986360578076D+02 E-N=-2.601028677847D+03  KE= 5.157548251938D+02
 Breneman (CHELPG) radii used.
 Read replacement radii for each type of atom:
 Atom Element Radius
    1     6    1.50
    2     6    1.50
    3     6    1.50
    4     6    1.50
    5     6    1.50
    6     6    1.50
    7     6    1.50
    8     6    1.50
    9     6    1.50
   10     6    1.50
   11     6    1.50
   12     6    1.50
   13     7    1.70
   14     1    1.45
   15     1    1.45
   16     1    1.45
   17     1    1.45
   18     1    1.45
   19     1    1.45
   20     1    1.45
   21     1    1.45
   22     1    1.45
   23     1    1.45
   24     1    1.45
 Generate Potential Derived Charges using the Breneman model, NDens= 1.
 Grid spacing= 0.300 Box extension= 2.800
 NStep X,Y,Z=   50     36     34   Total possible points=       61200
 Number of Points to Fit=   15856

 **********************************************************************

            Electrostatic Properties Using The SCF Density.

 **********************************************************************

       Atomic Center    1 is at   1.273104 -0.321880  0.602770
       Atomic Center    2 is at   0.015348 -0.640113  1.379205
       Atomic Center    3 is at  -1.235962 -0.251576  0.616185
       Atomic Center    4 is at  -2.150108 -1.217341  0.187300
       Atomic Center    5 is at  -3.291531 -0.852642 -0.528062
       Atomic Center    6 is at  -3.530540  0.486850 -0.825395
       Atomic Center    7 is at  -2.621539  1.458765 -0.403825
       Atomic Center    8 is at  -1.483786  1.092705  0.309935
       Atomic Center    9 is at   1.837801 -1.257198 -0.273095
       Atomic Center   10 is at   2.970055 -0.905020 -0.998990
       Atomic Center   11 is at   3.503570  0.371014 -0.831220
       Atomic Center   12 is at   2.869647  1.232726  0.061088
       Atomic Center   13 is at   1.787201  0.900059  0.761061
       Atomic Center   14 is at   0.058550 -0.084909  2.327614
       Atomic Center   15 is at  -0.016860 -1.713130  1.617691
       Atomic Center   16 is at  -1.970173 -2.270974  0.418758
       Atomic Center   17 is at  -3.996621 -1.621002 -0.853487
       Atomic Center   18 is at  -4.423394  0.774908 -1.384703
       Atomic Center   19 is at  -2.801530  2.511510 -0.633648
       Atomic Center   20 is at  -0.763456  1.849342  0.631265
       Atomic Center   21 is at   1.386530 -2.245739 -0.381238
       Atomic Center   22 is at   3.430862 -1.616788 -1.687787
       Atomic Center   23 is at   4.391084  0.694048 -1.377855
       Atomic Center   24 is at   3.258258  2.244587  0.220578
   15856 points will be used for fitting atomic charges
 Fitting point charges to electrostatic potential
 Charges from ESP fit, RMS=   0.00409 RRMS=   0.35357:
 ESP charges:
               1
     1  C    0.618768
     2  C   -0.377572
     3  C    0.264316
     4  C   -0.225393
     5  C   -0.065878
     6  C   -0.130122
     7  C   -0.059104
     8  C   -0.206742
     9  C   -0.447839
    10  C    0.171481
    11  C   -0.350271
    12  C    0.346804
    13  N   -0.611265
    14  H    0.094755
    15  H    0.101926
    16  H    0.112619
    17  H    0.089243
    18  H    0.094007
    19  H    0.089640
    20  H    0.118881
    21  H    0.149050
    22  H    0.065602
    23  H    0.127502
    24  H    0.029592
 Sum of ESP charges =  -0.00000
 ESP charges with hydrogens summed into heavy atoms:
               1
     1  C    0.618768
     2  C   -0.180890
     3  C    0.264316
     4  C   -0.112774
     5  C    0.023365
     6  C   -0.036115
     7  C    0.030536
     8  C   -0.087861
     9  C   -0.298790
    10  C    0.237084
    11  C   -0.222769
    12  C    0.376396
    13  N   -0.611265
 Charge=  -0.00000 Dipole=     0.9378    -1.2719    -1.0529 Tot=     1.8990
 -----------------------------------------------------------------

              Electrostatic Properties (Atomic Units)

 -----------------------------------------------------------------
    Center     Electric         -------- Electric Field --------
               Potential          X             Y             Z
 -----------------------------------------------------------------
    1 Atom    -14.726550
    2 Atom    -14.761230
    3 Atom    -14.760940
    4 Atom    -14.772699
    5 Atom    -14.771844
    6 Atom    -14.773678
    7 Atom    -14.773074
    8 Atom    -14.777553
    9 Atom    -14.761189
   10 Atom    -14.749271
   11 Atom    -14.761301
   12 Atom    -14.735516
   13 Atom    -18.401522
   14 Atom     -1.115342
   15 Atom     -1.112446
   16 Atom     -1.108239
   17 Atom     -1.109739
   18 Atom     -1.111064
   19 Atom     -1.112115
   20 Atom     -1.116162
   21 Atom     -1.094269
   22 Atom     -1.090542
   23 Atom     -1.093869
   24 Atom     -1.105591
 -----------------------------------------------------------------
 Unable to Open any file for archive entry.
 1\1\GINC-NOTCH057\SP\RwB97XD\def2TZVP\C12H11N1\U1112142\19-Dec-2025\0\
 \#N Guess=Read Geom=Check Integral(Ultrafine) Density Pop=(ChelpG,Read
 Radii) NMR wB97XD def2TZVP\\Py6_1\\0,1\C,0,-1.2560856936,0.2330430999,
 0.6169491076\C,0,-0.0073703382,0.3470038592,1.4618136697\C,0,1.2494649
 807,0.0869694336,0.6545421498\C,0,2.197227117,1.0927717304,0.448594875
 7\C,0,3.3438363088,0.8495010022,-0.3088359942\C,0,3.5544068571,-0.4065
 147644,-0.8726214247\C,0,2.6117830837,-1.4169787838,-0.6750201024\C,0,
 1.468911882,-1.1721561246,0.0811809116\C,0,-1.7775866759,1.345076139,-
 0.0555546505\C,0,-2.9028274333,1.1837751748,-0.8560345991\C,0,-3.47262
 78874,-0.083026052,-0.963698949\C,0,-2.8803862451,-1.1285080458,-0.258
 8317335\N,0,-1.8048772623,-0.9794714887,0.5114840705\H,0,-0.0851417571
 ,-0.3901204126,2.2743387389\H,0,0.0474870786,1.3464432977,1.9172131324
 \H,0,2.0397087543,2.0810023814,0.8898202782\H,0,4.0753462423,1.6471214
 486,-0.4575798128\H,0,4.4512400255,-0.5995821384,-1.4654167904\H,0,2.7
 693454103,-2.4046799926,-1.1144617183\H,0,0.7225602048,-1.9570139399,0
 .228103068\H,0,-1.2986925053,2.3208397428,0.049797561\H,0,-3.330270698
 ,2.0355320891,-1.3900760939\H,0,-4.3563364081,-0.2600179087,-1.5789827
 433\H,0,-3.2983550406,-2.1395197473,-0.3177929512\\Version=ES64L-G16Re
 vC.01\State=1-A\HF=-518.6546159\RMSD=3.630e-09\Dipole=-0.3584171,0.584
 5952,-0.3449203\Quadrupole=2.2491395,1.3816638,-3.6308033,-0.2345491,1
 .6710654,1.8825509\PG=C01 [X(C12H11N1)]\\@
 The archive entry for this job was punched.


 TO ERR IS HUMAN - AND TO BLAME IT ON A COMPUTER IS EVEN MORE SO.
 Job cpu time:       0 days  1 hours  8 minutes 59.4 seconds.
 Elapsed time:       0 days  0 hours  4 minutes 31.5 seconds.
 File lengths (MBytes):  RWF=    141 Int=      0 D2E=      0 Chk=     21 Scr=      2
 Normal termination of Gaussian 16 at Fri Dec 19 04:43:24 2025.
