 Entering Gaussian System, Link 0=g16
 Input=Py6_7.com
 Output=Py6_7.log
 Initial command:
 /uufs/chpc.utah.edu/sys/installdir/gaussian16/C01/AVX/g16/l1.exe "/scratch/general/vast/u1112142/9381411-notchpeak.peaks/Gau-469481.inp" -scrdir="/scratch/general/vast/u1112142/9381411-notchpeak.peaks/"
 Entering Link 1 = /uufs/chpc.utah.edu/sys/installdir/gaussian16/C01/AVX/g16/l1.exe PID=    469482.
  
 Copyright (c) 1988-2019, Gaussian, Inc.  All Rights Reserved.
  
 This is part of the Gaussian(R) 16 program.  It is based on
 the Gaussian(R) 09 system (copyright 2009, Gaussian, Inc.),
 the Gaussian(R) 03 system (copyright 2003, Gaussian, Inc.),
 the Gaussian(R) 98 system (copyright 1998, Gaussian, Inc.),
 the Gaussian(R) 94 system (copyright 1995, Gaussian, Inc.),
 the Gaussian 92(TM) system (copyright 1992, Gaussian, Inc.),
 the Gaussian 90(TM) system (copyright 1990, Gaussian, Inc.),
 the Gaussian 88(TM) system (copyright 1988, Gaussian, Inc.),
 the Gaussian 86(TM) system (copyright 1986, Carnegie Mellon
 University), and the Gaussian 82(TM) system (copyright 1983,
 Carnegie Mellon University). Gaussian is a federally registered
 trademark of Gaussian, Inc.
  
 This software contains proprietary and confidential information,
 including trade secrets, belonging to Gaussian, Inc.
  
 This software is provided under written license and may be
 used, copied, transmitted, or stored only in accord with that
 written license.
  
 The following legend is applicable only to US Government
 contracts under FAR:
  
                    RESTRICTED RIGHTS LEGEND
  
 Use, reproduction and disclosure by the US Government is
 subject to restrictions as set forth in subparagraphs (a)
 and (c) of the Commercial Computer Software - Restricted
 Rights clause in FAR 52.227-19.
  
 Gaussian, Inc.
 340 Quinnipiac St., Bldg. 40, Wallingford CT 06492
  
  
 ---------------------------------------------------------------
 Warning -- This program may not be used in any manner that
 competes with the business of Gaussian, Inc. or will provide
 assistance to any competitor of Gaussian, Inc.  The licensee
 of this program is prohibited from giving any competitor of
 Gaussian, Inc. access to this program.  By using this program,
 the user acknowledges that Gaussian, Inc. is engaged in the
 business of creating and licensing software in the field of
 computational chemistry and represents and warrants to the
 licensee that it is not a competitor of Gaussian, Inc. and that
 it will not use this program in any manner prohibited above.
 ---------------------------------------------------------------
  

 Cite this work as:
 Gaussian 16, Revision C.01,
 M. J. Frisch, G. W. Trucks, H. B. Schlegel, G. E. Scuseria, 
 M. A. Robb, J. R. Cheeseman, G. Scalmani, V. Barone, 
 G. A. Petersson, H. Nakatsuji, X. Li, M. Caricato, A. V. Marenich, 
 J. Bloino, B. G. Janesko, R. Gomperts, B. Mennucci, H. P. Hratchian, 
 J. V. Ortiz, A. F. Izmaylov, J. L. Sonnenberg, D. Williams-Young, 
 F. Ding, F. Lipparini, F. Egidi, J. Goings, B. Peng, A. Petrone, 
 T. Henderson, D. Ranasinghe, V. G. Zakrzewski, J. Gao, N. Rega, 
 G. Zheng, W. Liang, M. Hada, M. Ehara, K. Toyota, R. Fukuda, 
 J. Hasegawa, M. Ishida, T. Nakajima, Y. Honda, O. Kitao, H. Nakai, 
 T. Vreven, K. Throssell, J. A. Montgomery, Jr., J. E. Peralta, 
 F. Ogliaro, M. J. Bearpark, J. J. Heyd, E. N. Brothers, K. N. Kudin, 
 V. N. Staroverov, T. A. Keith, R. Kobayashi, J. Normand, 
 K. Raghavachari, A. P. Rendell, J. C. Burant, S. S. Iyengar, 
 J. Tomasi, M. Cossi, J. M. Millam, M. Klene, C. Adamo, R. Cammi, 
 J. W. Ochterski, R. L. Martin, K. Morokuma, O. Farkas, 
 J. B. Foresman, and D. J. Fox, Gaussian, Inc., Wallingford CT, 2019.
 
 ******************************************
 Gaussian 16:  ES64L-G16RevC.01  3-Jul-2019
                19-Dec-2025 
 ******************************************
 %NProcShared=16
 Will use up to   16 processors via shared memory.
 %Mem=40GB
 %chk=Py6_7.chk
 ------------------------------------------------------
 #N OPT FREQ=NORAMAN Integral(Ultrafine) wB97XD def2SVP
 ------------------------------------------------------
 1/18=20,19=15,26=4,38=1/1,3;
 2/9=110,12=2,17=6,18=5,40=1/2;
 3/5=43,7=101,11=2,25=1,30=1,71=1,74=-58,75=-5/1,2,3;
 4//1;
 5/5=2,38=5/2;
 6/7=2,8=2,9=2,10=2,28=1/1;
 7//1,2,3,16;
 1/18=20,19=15,26=4/3(2);
 2/9=110/2;
 99//99;
 2/9=110/2;
 3/5=43,7=101,11=2,25=1,30=1,71=1,74=-58,75=-5/1,2,3;
 4/5=5,16=3,69=1/1;
 5/5=2,38=5/2;
 7//1,2,3,16;
 1/18=20,19=15,26=4/3(-5);
 2/9=110/2;
 6/7=2,8=2,9=2,10=2,19=2,28=1/1;
 99/9=1/99;
 -----
 Py6_7
 -----
 Symbolic Z-matrix:
 Charge =  0 Multiplicity = 1
 C                    -1.20323   0.73495  -0.08902 
 C                     0.1083    1.47468  -0.19 
 C                     1.28929   0.55394  -0.07188 
 C                     1.99135   0.4467    1.1197 
 C                     3.07019  -0.41366   1.2266 
 C                     3.45609  -1.18074   0.14168 
 C                     2.75725  -1.08383  -1.04976 
 C                     1.68196  -0.22123  -1.15495 
 C                    -2.40881   1.43524  -0.12788 
 C                    -3.59387   0.72912  -0.03897 
 C                    -3.54193  -0.65163   0.08737 
 C                    -2.29473  -1.25263   0.11822 
 N                    -1.15939  -0.58225   0.03236 
 H                     0.14001   2.23456   0.59556 
 H                     0.13373   1.99338  -1.15344 
 H                     1.69319   1.04112   1.97224 
 H                     3.6105   -0.48555   2.15968 
 H                     4.2981   -1.85257   0.22422 
 H                     3.05277  -1.68242  -1.89944 
 H                     1.13684  -0.14933  -2.08507 
 H                    -2.40942   2.51085  -0.22698 
 H                    -4.54367   1.24447  -0.06765 
 H                    -4.44287  -1.24071   0.15955 
 H                    -2.19037  -2.32571   0.21612 
 

 GradGradGradGradGradGradGradGradGradGradGradGradGradGradGradGradGradGrad
 Berny optimization.
 Initialization pass.
                           ----------------------------
                           !    Initial Parameters    !
                           ! (Angstroms and Degrees)  !
 --------------------------                            --------------------------
 ! Name  Definition              Value          Derivative Info.                !
 --------------------------------------------------------------------------------
 ! R1    R(1,2)                  1.5091         estimate D2E/DX2                !
 ! R2    R(1,9)                  1.3948         estimate D2E/DX2                !
 ! R3    R(1,13)                 1.3235         estimate D2E/DX2                !
 ! R4    R(2,3)                  1.5021         estimate D2E/DX2                !
 ! R5    R(2,14)                 1.0934         estimate D2E/DX2                !
 ! R6    R(2,15)                 1.0945         estimate D2E/DX2                !
 ! R7    R(3,4)                  1.3872         estimate D2E/DX2                !
 ! R8    R(3,8)                  1.3886         estimate D2E/DX2                !
 ! R9    R(4,5)                  1.384          estimate D2E/DX2                !
 ! R10   R(4,16)                 1.0812         estimate D2E/DX2                !
 ! R11   R(5,6)                  1.3836         estimate D2E/DX2                !
 ! R12   R(5,17)                 1.0806         estimate D2E/DX2                !
 ! R13   R(6,7)                  1.3847         estimate D2E/DX2                !
 ! R14   R(6,18)                 1.0803         estimate D2E/DX2                !
 ! R15   R(7,8)                  1.3825         estimate D2E/DX2                !
 ! R16   R(7,19)                 1.0806         estimate D2E/DX2                !
 ! R17   R(8,20)                 1.0805         estimate D2E/DX2                !
 ! R18   R(9,10)                 1.3823         estimate D2E/DX2                !
 ! R19   R(9,21)                 1.0802         estimate D2E/DX2                !
 ! R20   R(10,11)                1.3875         estimate D2E/DX2                !
 ! R21   R(10,22)                1.081          estimate D2E/DX2                !
 ! R22   R(11,12)                1.3848         estimate D2E/DX2                !
 ! R23   R(11,23)                1.0789         estimate D2E/DX2                !
 ! R24   R(12,13)                1.3213         estimate D2E/DX2                !
 ! R25   R(12,24)                1.0826         estimate D2E/DX2                !
 ! A1    A(2,1,9)              120.2128         estimate D2E/DX2                !
 ! A2    A(2,1,13)             117.7219         estimate D2E/DX2                !
 ! A3    A(9,1,13)             122.0651         estimate D2E/DX2                !
 ! A4    A(1,2,3)              112.1817         estimate D2E/DX2                !
 ! A5    A(1,2,14)             108.5287         estimate D2E/DX2                !
 ! A6    A(1,2,15)             108.1431         estimate D2E/DX2                !
 ! A7    A(3,2,14)             110.2846         estimate D2E/DX2                !
 ! A8    A(3,2,15)             109.9646         estimate D2E/DX2                !
 ! A9    A(14,2,15)            107.6016         estimate D2E/DX2                !
 ! A10   A(2,3,4)              120.8528         estimate D2E/DX2                !
 ! A11   A(2,3,8)              120.2102         estimate D2E/DX2                !
 ! A12   A(4,3,8)              118.9294         estimate D2E/DX2                !
 ! A13   A(3,4,5)              120.5914         estimate D2E/DX2                !
 ! A14   A(3,4,16)             119.686          estimate D2E/DX2                !
 ! A15   A(5,4,16)             119.7226         estimate D2E/DX2                !
 ! A16   A(4,5,6)              120.0978         estimate D2E/DX2                !
 ! A17   A(4,5,17)             119.8541         estimate D2E/DX2                !
 ! A18   A(6,5,17)             120.0481         estimate D2E/DX2                !
 ! A19   A(5,6,7)              119.6786         estimate D2E/DX2                !
 ! A20   A(5,6,18)             120.1479         estimate D2E/DX2                !
 ! A21   A(7,6,18)             120.1735         estimate D2E/DX2                !
 ! A22   A(6,7,8)              120.1109         estimate D2E/DX2                !
 ! A23   A(6,7,19)             119.9871         estimate D2E/DX2                !
 ! A24   A(8,7,19)             119.902          estimate D2E/DX2                !
 ! A25   A(3,8,7)              120.591          estimate D2E/DX2                !
 ! A26   A(3,8,20)             119.4474         estimate D2E/DX2                !
 ! A27   A(7,8,20)             119.961          estimate D2E/DX2                !
 ! A28   A(1,9,10)             118.8646         estimate D2E/DX2                !
 ! A29   A(1,9,21)             120.1997         estimate D2E/DX2                !
 ! A30   A(10,9,21)            120.9357         estimate D2E/DX2                !
 ! A31   A(9,10,11)            118.8224         estimate D2E/DX2                !
 ! A32   A(9,10,22)            120.5316         estimate D2E/DX2                !
 ! A33   A(11,10,22)           120.646          estimate D2E/DX2                !
 ! A34   A(10,11,12)           117.8808         estimate D2E/DX2                !
 ! A35   A(10,11,23)           121.2118         estimate D2E/DX2                !
 ! A36   A(12,11,23)           120.9073         estimate D2E/DX2                !
 ! A37   A(11,12,13)           123.5214         estimate D2E/DX2                !
 ! A38   A(11,12,24)           121.267          estimate D2E/DX2                !
 ! A39   A(13,12,24)           115.2117         estimate D2E/DX2                !
 ! A40   A(1,13,12)            118.8456         estimate D2E/DX2                !
 ! D1    D(9,1,2,3)            177.6357         estimate D2E/DX2                !
 ! D2    D(9,1,2,14)            55.5282         estimate D2E/DX2                !
 ! D3    D(9,1,2,15)           -60.9232         estimate D2E/DX2                !
 ! D4    D(13,1,2,3)            -2.5234         estimate D2E/DX2                !
 ! D5    D(13,1,2,14)         -124.6309         estimate D2E/DX2                !
 ! D6    D(13,1,2,15)          118.9177         estimate D2E/DX2                !
 ! D7    D(2,1,9,10)           179.7206         estimate D2E/DX2                !
 ! D8    D(2,1,9,21)            -0.214          estimate D2E/DX2                !
 ! D9    D(13,1,9,10)           -0.1131         estimate D2E/DX2                !
 ! D10   D(13,1,9,21)          179.9522         estimate D2E/DX2                !
 ! D11   D(2,1,13,12)         -179.7858         estimate D2E/DX2                !
 ! D12   D(9,1,13,12)            0.0519         estimate D2E/DX2                !
 ! D13   D(1,2,3,4)           -100.9386         estimate D2E/DX2                !
 ! D14   D(1,2,3,8)             78.0527         estimate D2E/DX2                !
 ! D15   D(14,2,3,4)            20.1635         estimate D2E/DX2                !
 ! D16   D(14,2,3,8)          -160.8452         estimate D2E/DX2                !
 ! D17   D(15,2,3,4)           138.6708         estimate D2E/DX2                !
 ! D18   D(15,2,3,8)           -42.3379         estimate D2E/DX2                !
 ! D19   D(2,3,4,5)            179.3283         estimate D2E/DX2                !
 ! D20   D(2,3,4,16)            -0.707          estimate D2E/DX2                !
 ! D21   D(8,3,4,5)              0.3243         estimate D2E/DX2                !
 ! D22   D(8,3,4,16)          -179.711          estimate D2E/DX2                !
 ! D23   D(2,3,8,7)           -179.1758         estimate D2E/DX2                !
 ! D24   D(2,3,8,20)             0.5741         estimate D2E/DX2                !
 ! D25   D(4,3,8,7)             -0.1652         estimate D2E/DX2                !
 ! D26   D(4,3,8,20)           179.5847         estimate D2E/DX2                !
 ! D27   D(3,4,5,6)             -0.2182         estimate D2E/DX2                !
 ! D28   D(3,4,5,17)           179.8131         estimate D2E/DX2                !
 ! D29   D(16,4,5,6)           179.8171         estimate D2E/DX2                !
 ! D30   D(16,4,5,17)           -0.1516         estimate D2E/DX2                !
 ! D31   D(4,5,6,7)             -0.0512         estimate D2E/DX2                !
 ! D32   D(4,5,6,18)           179.9988         estimate D2E/DX2                !
 ! D33   D(17,5,6,7)           179.9174         estimate D2E/DX2                !
 ! D34   D(17,5,6,18)           -0.0326         estimate D2E/DX2                !
 ! D35   D(5,6,7,8)              0.2094         estimate D2E/DX2                !
 ! D36   D(5,6,7,19)          -179.8457         estimate D2E/DX2                !
 ! D37   D(18,6,7,8)          -179.8407         estimate D2E/DX2                !
 ! D38   D(18,6,7,19)            0.1043         estimate D2E/DX2                !
 ! D39   D(6,7,8,3)             -0.1005         estimate D2E/DX2                !
 ! D40   D(6,7,8,20)          -179.8491         estimate D2E/DX2                !
 ! D41   D(19,7,8,3)           179.9545         estimate D2E/DX2                !
 ! D42   D(19,7,8,20)            0.2059         estimate D2E/DX2                !
 ! D43   D(1,9,10,11)            0.0732         estimate D2E/DX2                !
 ! D44   D(1,9,10,22)         -179.9155         estimate D2E/DX2                !
 ! D45   D(21,9,10,11)        -179.9927         estimate D2E/DX2                !
 ! D46   D(21,9,10,22)           0.0186         estimate D2E/DX2                !
 ! D47   D(9,10,11,12)           0.0194         estimate D2E/DX2                !
 ! D48   D(9,10,11,23)        -179.9855         estimate D2E/DX2                !
 ! D49   D(22,10,11,12)       -179.9919         estimate D2E/DX2                !
 ! D50   D(22,10,11,23)          0.0032         estimate D2E/DX2                !
 ! D51   D(10,11,12,13)         -0.0849         estimate D2E/DX2                !
 ! D52   D(10,11,12,24)        179.94           estimate D2E/DX2                !
 ! D53   D(23,11,12,13)        179.92           estimate D2E/DX2                !
 ! D54   D(23,11,12,24)         -0.0551         estimate D2E/DX2                !
 ! D55   D(11,12,13,1)           0.0494         estimate D2E/DX2                !
 ! D56   D(24,12,13,1)        -179.9742         estimate D2E/DX2                !
 --------------------------------------------------------------------------------
 Trust Radius=3.00D-01 FncErr=1.00D-07 GrdErr=1.00D-06 EigMax=2.50D+02 EigMin=1.00D-04
 Number of steps in this run=    131 maximum allowed number of steps=    144.
 GradGradGradGradGradGradGradGradGradGradGradGradGradGradGradGradGradGrad

                          Input orientation:                          
 ---------------------------------------------------------------------
 Center     Atomic      Atomic             Coordinates (Angstroms)
 Number     Number       Type             X           Y           Z
 ---------------------------------------------------------------------
      1          6           0       -1.203230    0.734950   -0.089020
      2          6           0        0.108300    1.474680   -0.190000
      3          6           0        1.289290    0.553940   -0.071880
      4          6           0        1.991350    0.446700    1.119700
      5          6           0        3.070190   -0.413660    1.226600
      6          6           0        3.456090   -1.180740    0.141680
      7          6           0        2.757250   -1.083830   -1.049760
      8          6           0        1.681960   -0.221230   -1.154950
      9          6           0       -2.408810    1.435240   -0.127880
     10          6           0       -3.593870    0.729120   -0.038970
     11          6           0       -3.541930   -0.651630    0.087370
     12          6           0       -2.294730   -1.252630    0.118220
     13          7           0       -1.159390   -0.582250    0.032360
     14          1           0        0.140010    2.234560    0.595560
     15          1           0        0.133730    1.993380   -1.153440
     16          1           0        1.693190    1.041120    1.972240
     17          1           0        3.610500   -0.485550    2.159680
     18          1           0        4.298100   -1.852570    0.224220
     19          1           0        3.052770   -1.682420   -1.899440
     20          1           0        1.136840   -0.149330   -2.085070
     21          1           0       -2.409420    2.510850   -0.226980
     22          1           0       -4.543670    1.244470   -0.067650
     23          1           0       -4.442870   -1.240710    0.159550
     24          1           0       -2.190370   -2.325710    0.216120
 ---------------------------------------------------------------------
                    Distance matrix (angstroms):
                    1          2          3          4          5
     1  C    0.000000
     2  C    1.509142   0.000000
     3  C    2.499143   1.502149   0.000000
     4  C    3.427745   2.513550   1.387174   0.000000
     5  C    4.616522   3.787529   2.407053   1.384031   0.000000
     6  C    5.043050   4.285903   2.783836   2.398030   1.383612
     7  C    4.462778   3.781811   2.406958   2.763274   2.393507
     8  C    3.220995   2.506720   1.388567   2.390792   2.763330
     9  C    1.394754   2.518185   3.802074   4.679217   5.939065
    10  C    2.391171   3.779515   4.886412   5.711126   6.878758
    11  C    2.724561   4.233475   4.981912   5.734913   6.713762
    12  C    2.277014   3.647982   4.018088   4.718174   5.542088
    13  N    1.323507   2.426405   2.701449   3.488296   4.398179
    14  H    2.126446   1.093402   2.142616   2.626524   3.999654
    15  H    2.122286   1.094492   2.139411   3.318153   4.481208
    16  H    3.568162   2.715720   2.139838   1.081230   2.137403
    17  H    5.451446   4.650688   3.383551   2.138293   1.080621
    18  H    6.087529   5.366246   3.864182   3.377813   2.140792
    19  H    5.218700   4.643207   3.383954   3.843822   3.373749
    20  H    3.200327   2.699369   2.137934   3.369865   3.843809
    21  H    2.151220   2.722853   4.187363   5.043911   6.379011
    22  H    3.379143   4.659269   5.873693   6.689748   7.899072
    23  H    3.802668   5.311184   6.010989   6.720746   7.633392
    24  H    3.230355   4.460020   4.525855   5.097989   5.687750
                    6          7          8          9         10
     6  C    0.000000
     7  C    1.384665   0.000000
     8  C    2.397800   1.382531   0.000000
     9  C    6.427524   5.820975   4.531354   0.000000
    10  C    7.306308   6.681707   5.475670   1.382345   0.000000
    11  C    7.018204   6.415569   5.386801   2.384391   1.387491
    12  C    5.751317   5.187983   4.301024   2.701523   2.374828
    13  N    4.655405   4.094220   3.100534   2.378443   2.766129
    14  H    4.781910   4.535277   3.387152   2.767447   4.075640
    15  H    4.773934   4.045099   2.702132   2.797821   4.090892
    16  H    3.375712   3.844492   3.372384   4.625174   5.665273
    17  H    2.139966   3.374386   3.843944   6.719707   7.629707
    18  H    1.080347   2.142010   3.377509   7.477721   8.307682
    19  H    2.140215   1.080555   2.137396   6.533535   7.311272
    20  H    3.376558   2.137963   1.080485   4.348918   5.228558
    21  H    6.940314   6.347690   5.006474   1.080166   2.147750
    22  H    8.361915   7.725863   6.487601   2.144213   1.080985
    23  H    7.899208   7.302655   6.346715   3.373533   2.154168
    24  H    5.761858   5.255822   4.615583   3.782961   3.371479
                   11         12         13         14         15
    11  C    0.000000
    12  C    1.384796   0.000000
    13  N    2.384185   1.321279   0.000000
    14  H    4.705851   4.279755   3.152785   0.000000
    15  H    4.695334   4.248661   3.116432   1.765562   0.000000
    16  H    5.815894   4.960059   3.812568   2.394142   3.620579
    17  H    7.448443   6.295055   5.223667   4.678651   5.404608
    18  H    7.932658   6.620919   5.606667   5.842280   5.833631
    19  H    6.964195   5.731616   4.762827   5.481964   4.752769
    20  H    5.182923   4.224622   3.153348   3.723222   2.542709
    21  H    3.373822   3.781018   3.346207   2.693047   2.755670
    22  H    2.150049   3.365678   3.847110   4.832906   4.859823
    23  H    1.078850   2.148571   3.351267   5.768050   5.755740
    24  H    2.155420   1.082578   2.033799   5.135242   5.092315
                   16         17         18         19         20
    16  H    0.000000
    17  H    2.458034   0.000000
    18  H    4.267853   2.467295   0.000000
    19  H    4.925042   4.268491   2.467738   0.000000
    20  H    4.264793   4.924423   4.269357   2.460815   0.000000
    21  H    4.881402   7.135404   8.014602   7.086336   4.806768
    22  H    6.565129   8.628120   9.373033   8.344342   6.187152
    23  H    6.792925   8.332320   8.762597   7.785831   6.112495
    24  H    5.431532   6.388561   6.505703   5.690337   4.593738
                   21         22         23         24
    21  H    0.000000
    22  H    2.486791   0.000000
    23  H    4.284685   2.497579   0.000000
    24  H    4.861752   4.285409   2.500836   0.000000
 Stoichiometry    C12H11N
 Framework group  C1[X(C12H11N)]
 Deg. of freedom    66
 Full point group                 C1      NOp   1
 Largest Abelian subgroup         C1      NOp   1
 Largest concise Abelian subgroup C1      NOp   1
                         Standard orientation:                         
 ---------------------------------------------------------------------
 Center     Atomic      Atomic             Coordinates (Angstroms)
 Number     Number       Type             X           Y           Z
 ---------------------------------------------------------------------
      1          6           0       -1.291703   -0.551409    0.138170
      2          6           0       -0.089758   -1.427925    0.392246
      3          6           0        1.202994   -0.688154    0.197348
      4          6           0        1.939827   -0.838353   -0.968314
      5          6           0        3.123236   -0.143513   -1.147993
      6          6           0        3.580656    0.714127   -0.163310
      7          6           0        2.848357    0.874049    1.000933
      8          6           0        1.668216    0.176324    1.179369
      9          6           0       -2.578459   -1.082743    0.223507
     10          6           0       -3.659664   -0.253374   -0.008913
     11          6           0       -3.426326    1.078395   -0.320478
     12          6           0       -2.111365    1.508132   -0.382639
     13          7           0       -1.074745    0.719660   -0.160132
     14          1           0       -0.139043   -2.288678   -0.280214
     15          1           0       -0.153601   -1.805009    1.417743
     16          1           0        1.586506   -1.504723   -1.743024
     17          1           0        3.689291   -0.271815   -2.059509
     18          1           0        4.504303    1.256892   -0.302707
     19          1           0        3.199667    1.544442    1.772135
     20          1           0        1.097458    0.304801    2.087762
     21          1           0       -2.720741   -2.125092    0.468504
     22          1           0       -4.668660   -0.636538    0.051436
     23          1           0       -4.241434    1.759595   -0.508852
     24          1           0       -1.866590    2.535173   -0.621904
 ---------------------------------------------------------------------
 Rotational constants (GHZ):           2.1824485           0.4531468           0.4262136
 Standard basis: def2SVP (5D, 7F)
 There are   250 symmetry adapted cartesian basis functions of A   symmetry.
 There are   237 symmetry adapted basis functions of A   symmetry.
   237 basis functions,   402 primitive gaussians,   250 cartesian basis functions
    45 alpha electrons       45 beta electrons
       nuclear repulsion energy       704.8138134036 Hartrees.
 NAtoms=   24 NActive=   24 NUniq=   24 SFac= 1.00D+00 NAtFMM=   60 NAOKFM=F Big=F
 Integral buffers will be    131072 words long.
 Raffenetti 2 integral format.
 Two-electron integral symmetry is turned on.
 Nuclear repulsion after empirical dispersion term =      704.8000369638 Hartrees.
 One-electron integrals computed using PRISM.
   1 Symmetry operations used in ECPInt.
 ECPInt:  NShTT=    6216 NPrTT=   22568 LenC2=    5947 LenP2D=   16137.
 LDataN:  DoStor=T MaxTD1= 4 Len=   56
 NBasis=   237 RedAO= T EigKep=  2.68D-04  NBF=   237
 NBsUse=   237 1.00D-06 EigRej= -1.00D+00 NBFU=   237
 ExpMin= 1.22D-01 ExpMax= 1.71D+03 ExpMxC= 2.58D+02 IAcc=3 IRadAn=         5 AccDes= 0.00D+00
 Harris functional with IExCor= 4639 and IRadAn=       5 diagonalized for initial guess.
 HarFok:  IExCor= 4639 AccDes= 0.00D+00 IRadAn=         5 IDoV= 1 UseB2=F ITyADJ=14
 ICtDFT=  3500011 ScaDFX=  1.000000  1.000000  1.000000  1.000000
 FoFCou: FMM=F IPFlag=           0 FMFlag=      100000 FMFlg1=           0
         NFxFlg=           0 DoJE=T BraDBF=F KetDBF=T FulRan=T
         wScrn=  0.000000 ICntrl=       500 IOpCl=  0 I1Cent=   200000004 NGrid=           0
         NMat0=    1 NMatS0=      1 NMatT0=    0 NMatD0=    1 NMtDS0=    0 NMtDT0=    0
 Petite list used in FoFCou.
 Requested convergence on RMS density matrix=1.00D-08 within 128 cycles.
 Requested convergence on MAX density matrix=1.00D-06.
 Requested convergence on             energy=1.00D-06.
 No special actions if energy rises.
 Integral accuracy reduced to 1.0D-05 until final iterations.
 Initial convergence to 1.0D-05 achieved.  Increase integral accuracy.
 SCF Done:  E(RwB97XD) =  -518.102917930     A.U. after   14 cycles
            NFock= 14  Conv=0.74D-08     -V/T= 2.0103

 **********************************************************************

            Population analysis using the SCF Density.

 **********************************************************************

 Orbital symmetries:
       Occupied  (A) (A) (A) (A) (A) (A) (A) (A) (A) (A) (A) (A)
                 (A) (A) (A) (A) (A) (A) (A) (A) (A) (A) (A) (A)
                 (A) (A) (A) (A) (A) (A) (A) (A) (A) (A) (A) (A)
                 (A) (A) (A) (A) (A) (A) (A) (A) (A)
       Virtual   (A) (A) (A) (A) (A) (A) (A) (A) (A) (A) (A) (A)
                 (A) (A) (A) (A) (A) (A) (A) (A) (A) (A) (A) (A)
                 (A) (A) (A) (A) (A) (A) (A) (A) (A) (A) (A) (A)
                 (A) (A) (A) (A) (A) (A) (A) (A) (A) (A) (A) (A)
                 (A) (A) (A) (A) (A) (A) (A) (A) (A) (A) (A) (A)
                 (A) (A) (A) (A) (A) (A) (A) (A) (A) (A) (A) (A)
                 (A) (A) (A) (A) (A) (A) (A) (A) (A) (A) (A) (A)
                 (A) (A) (A) (A) (A) (A) (A) (A) (A) (A) (A) (A)
                 (A) (A) (A) (A) (A) (A) (A) (A) (A) (A) (A) (A)
                 (A) (A) (A) (A) (A) (A) (A) (A) (A) (A) (A) (A)
                 (A) (A) (A) (A) (A) (A) (A) (A) (A) (A) (A) (A)
                 (A) (A) (A) (A) (A) (A) (A) (A) (A) (A) (A) (A)
                 (A) (A) (A) (A) (A) (A) (A) (A) (A) (A) (A) (A)
                 (A) (A) (A) (A) (A) (A) (A) (A) (A) (A) (A) (A)
                 (A) (A) (A) (A) (A) (A) (A) (A) (A) (A) (A) (A)
                 (A) (A) (A) (A) (A) (A) (A) (A) (A) (A) (A) (A)
 The electronic state is 1-A.
 Alpha  occ. eigenvalues --  -14.43302 -10.34027 -10.33116 -10.32004 -10.30726
 Alpha  occ. eigenvalues --  -10.30659 -10.30173 -10.29590 -10.28857 -10.28824
 Alpha  occ. eigenvalues --  -10.28709 -10.28701 -10.28602  -1.04704  -0.94974
 Alpha  occ. eigenvalues --   -0.90201  -0.89075  -0.84242  -0.83055  -0.78082
 Alpha  occ. eigenvalues --   -0.72618  -0.70449  -0.68878  -0.66407  -0.61430
 Alpha  occ. eigenvalues --   -0.60023  -0.57525  -0.55427  -0.54870  -0.52886
 Alpha  occ. eigenvalues --   -0.51351  -0.50748  -0.50001  -0.49703  -0.47902
 Alpha  occ. eigenvalues --   -0.46682  -0.45513  -0.43789  -0.41586  -0.41424
 Alpha  occ. eigenvalues --   -0.37217  -0.33753  -0.33525  -0.32124  -0.31093
 Alpha virt. eigenvalues --    0.04445   0.05137   0.07364   0.07720   0.14381
 Alpha virt. eigenvalues --    0.14992   0.16785   0.17997   0.18944   0.20532
 Alpha virt. eigenvalues --    0.20644   0.21916   0.23034   0.23310   0.24394
 Alpha virt. eigenvalues --    0.25666   0.26419   0.29370   0.31747   0.34620
 Alpha virt. eigenvalues --    0.36098   0.37488   0.38475   0.38765   0.39113
 Alpha virt. eigenvalues --    0.41286   0.42089   0.44059   0.46611   0.47231
 Alpha virt. eigenvalues --    0.48720   0.49019   0.50602   0.51093   0.53912
 Alpha virt. eigenvalues --    0.54148   0.54755   0.55202   0.55822   0.56871
 Alpha virt. eigenvalues --    0.58024   0.58723   0.59882   0.60632   0.61233
 Alpha virt. eigenvalues --    0.62498   0.63849   0.64936   0.65921   0.66240
 Alpha virt. eigenvalues --    0.69290   0.70351   0.71051   0.73327   0.73749
 Alpha virt. eigenvalues --    0.73861   0.74216   0.74419   0.75611   0.77083
 Alpha virt. eigenvalues --    0.77992   0.78128   0.78351   0.78876   0.80261
 Alpha virt. eigenvalues --    0.81037   0.81895   0.82873   0.83959   0.84536
 Alpha virt. eigenvalues --    0.85056   0.86479   0.88148   0.88662   0.89949
 Alpha virt. eigenvalues --    0.92167   0.93149   0.95838   1.00571   1.04302
 Alpha virt. eigenvalues --    1.07790   1.08907   1.10884   1.12821   1.16555
 Alpha virt. eigenvalues --    1.20316   1.20939   1.27226   1.27670   1.30751
 Alpha virt. eigenvalues --    1.32150   1.33556   1.34223   1.34315   1.36078
 Alpha virt. eigenvalues --    1.37883   1.39062   1.39296   1.40366   1.41974
 Alpha virt. eigenvalues --    1.44030   1.48361   1.53949   1.57870   1.59152
 Alpha virt. eigenvalues --    1.62459   1.67966   1.73753   1.76343   1.76665
 Alpha virt. eigenvalues --    1.78298   1.79775   1.80145   1.81401   1.82895
 Alpha virt. eigenvalues --    1.83901   1.85252   1.85803   1.86088   1.87114
 Alpha virt. eigenvalues --    1.87695   1.88311   1.88734   1.89733   1.89842
 Alpha virt. eigenvalues --    1.92960   1.94643   1.95757   1.97736   1.99482
 Alpha virt. eigenvalues --    2.02001   2.02605   2.04310   2.05593   2.06061
 Alpha virt. eigenvalues --    2.08566   2.09517   2.10302   2.11085   2.12416
 Alpha virt. eigenvalues --    2.16474   2.20154   2.22269   2.23936   2.24256
 Alpha virt. eigenvalues --    2.25432   2.26502   2.27492   2.30144   2.31825
 Alpha virt. eigenvalues --    2.37349   2.39261   2.40143   2.41032   2.41986
 Alpha virt. eigenvalues --    2.45060   2.45749   2.48287   2.49913   2.52751
 Alpha virt. eigenvalues --    2.53901   2.55409   2.58499   2.66203   2.67417
 Alpha virt. eigenvalues --    2.69060   2.72421   2.73164   2.74278   2.76680
 Alpha virt. eigenvalues --    2.78988   2.82076   2.83031   2.85053   2.85213
 Alpha virt. eigenvalues --    2.92062   2.94261   2.98733   3.00163   3.00571
 Alpha virt. eigenvalues --    3.01305   3.04796   3.09776   3.15043   3.21175
 Alpha virt. eigenvalues --    3.21583   3.25269   3.26495   3.38245   3.46215
 Alpha virt. eigenvalues --    3.76987   3.78172
          Condensed to atoms (all electrons):
               1          2          3          4          5          6
     1  C    5.081009   0.207033  -0.034344   0.002089  -0.000662   0.000105
     2  C    0.207033   5.071073   0.336914  -0.092055   0.014379  -0.000805
     3  C   -0.034344   0.336914   5.198506   0.313935   0.088047  -0.153784
     4  C    0.002089  -0.092055   0.313935   5.067634   0.314976   0.079731
     5  C   -0.000662   0.014379   0.088047   0.314976   5.016795   0.304462
     6  C    0.000105  -0.000805  -0.153784   0.079731   0.304462   5.071751
     7  C   -0.000536   0.013222   0.093979  -0.136364   0.077843   0.299632
     8  C   -0.002113  -0.105483   0.295435   0.068632  -0.137143   0.079564
     9  C    0.446934  -0.113606   0.012179  -0.000024  -0.000001   0.000001
    10  C   -0.007021   0.005772  -0.000483   0.000007  -0.000000   0.000000
    11  C   -0.076681   0.000147   0.000170  -0.000007  -0.000001   0.000001
    12  C   -0.051198   0.008295  -0.000170  -0.000005  -0.000024   0.000016
    13  N    0.599663  -0.149338   0.001881   0.008122  -0.001281   0.000608
    14  H   -0.007775   0.353230  -0.009022  -0.009653   0.000660  -0.000004
    15  H   -0.004713   0.346471  -0.004605   0.006925  -0.000558   0.000070
    16  H    0.000287  -0.016957  -0.070053   0.448700  -0.064551   0.014127
    17  H    0.000005  -0.000298   0.015837  -0.068518   0.450740  -0.071877
    18  H    0.000000   0.000024  -0.001524   0.013743  -0.067624   0.448906
    19  H   -0.000004  -0.000257   0.015589  -0.001967   0.014155  -0.071891
    20  H    0.001805  -0.016338  -0.071653   0.014534  -0.001872   0.014160
    21  H   -0.050343  -0.005528   0.000344  -0.000010   0.000002  -0.000000
    22  H    0.011529  -0.000430   0.000012   0.000000  -0.000000   0.000000
    23  H    0.000621   0.000135  -0.000005  -0.000000   0.000000  -0.000000
    24  H    0.006385   0.000198  -0.000000  -0.000022   0.000012  -0.000010
               7          8          9         10         11         12
     1  C   -0.000536  -0.002113   0.446934  -0.007021  -0.076681  -0.051198
     2  C    0.013222  -0.105483  -0.113606   0.005772   0.000147   0.008295
     3  C    0.093979   0.295435   0.012179  -0.000483   0.000170  -0.000170
     4  C   -0.136364   0.068632  -0.000024   0.000007  -0.000007  -0.000005
     5  C    0.077843  -0.137143  -0.000001  -0.000000  -0.000001  -0.000024
     6  C    0.299632   0.079564   0.000001   0.000000   0.000001   0.000016
     7  C    5.009978   0.324178  -0.000001  -0.000001  -0.000004  -0.000019
     8  C    0.324178   5.057766   0.000667   0.000017   0.000039   0.000133
     9  C   -0.000001   0.000667   4.988086   0.430837   0.015957  -0.081979
    10  C   -0.000001   0.000017   0.430837   4.824494   0.414841  -0.003643
    11  C   -0.000004   0.000039   0.015957   0.414841   5.002548   0.428518
    12  C   -0.000019   0.000133  -0.081979  -0.003643   0.428518   4.735518
    13  N   -0.002585   0.018610  -0.052631  -0.041160  -0.038438   0.529496
    14  H   -0.000414   0.008913  -0.004901   0.000635  -0.000028  -0.000187
    15  H    0.000389  -0.006827  -0.006626   0.000470  -0.000023  -0.000239
    16  H   -0.001843   0.014558  -0.000150   0.000003  -0.000001   0.000010
    17  H    0.014024  -0.001962  -0.000000   0.000000  -0.000000  -0.000000
    18  H   -0.067702   0.013768   0.000000  -0.000000   0.000000  -0.000000
    19  H    0.451519  -0.069201  -0.000001   0.000000  -0.000000  -0.000001
    20  H   -0.063078   0.449110  -0.000262   0.000016  -0.000008   0.000021
    21  H    0.000002  -0.000039   0.430903  -0.054879   0.011167  -0.000221
    22  H   -0.000000   0.000001  -0.056419   0.440725  -0.060801   0.009547
    23  H    0.000000  -0.000002   0.010206  -0.055938   0.425672  -0.043349
    24  H    0.000046  -0.000119   0.000495   0.006702  -0.073949   0.430165
              13         14         15         16         17         18
     1  C    0.599663  -0.007775  -0.004713   0.000287   0.000005   0.000000
     2  C   -0.149338   0.353230   0.346471  -0.016957  -0.000298   0.000024
     3  C    0.001881  -0.009022  -0.004605  -0.070053   0.015837  -0.001524
     4  C    0.008122  -0.009653   0.006925   0.448700  -0.068518   0.013743
     5  C   -0.001281   0.000660  -0.000558  -0.064551   0.450740  -0.067624
     6  C    0.000608  -0.000004   0.000070   0.014127  -0.071877   0.448906
     7  C   -0.002585  -0.000414   0.000389  -0.001843   0.014024  -0.067702
     8  C    0.018610   0.008913  -0.006827   0.014558  -0.001962   0.013768
     9  C   -0.052631  -0.004901  -0.006626  -0.000150  -0.000000   0.000000
    10  C   -0.041160   0.000635   0.000470   0.000003   0.000000  -0.000000
    11  C   -0.038438  -0.000028  -0.000023  -0.000001  -0.000000   0.000000
    12  C    0.529496  -0.000187  -0.000239   0.000010  -0.000000  -0.000000
    13  N    6.257560   0.002216   0.001255   0.000501  -0.000009  -0.000000
    14  H    0.002216   0.644106  -0.020717   0.005710  -0.000003  -0.000001
    15  H    0.001255  -0.020717   0.639482   0.000327   0.000009  -0.000001
    16  H    0.000501   0.005710   0.000327   0.689663  -0.012693  -0.000256
    17  H   -0.000009  -0.000003   0.000009  -0.012693   0.680183  -0.012247
    18  H   -0.000000  -0.000001  -0.000001  -0.000256  -0.012247   0.676846
    19  H   -0.000030   0.000009  -0.000003   0.000029  -0.000250  -0.012227
    20  H    0.001616   0.000298   0.003397  -0.000242   0.000028  -0.000254
    21  H    0.005281   0.001480   0.001293  -0.000002   0.000000   0.000000
    22  H   -0.000238   0.000011   0.000013  -0.000000  -0.000000   0.000000
    23  H    0.005222  -0.000003  -0.000002  -0.000000   0.000000   0.000000
    24  H   -0.041117   0.000009   0.000011  -0.000001   0.000000  -0.000000
              19         20         21         22         23         24
     1  C   -0.000004   0.001805  -0.050343   0.011529   0.000621   0.006385
     2  C   -0.000257  -0.016338  -0.005528  -0.000430   0.000135   0.000198
     3  C    0.015589  -0.071653   0.000344   0.000012  -0.000005  -0.000000
     4  C   -0.001967   0.014534  -0.000010   0.000000  -0.000000  -0.000022
     5  C    0.014155  -0.001872   0.000002  -0.000000   0.000000   0.000012
     6  C   -0.071891   0.014160  -0.000000   0.000000  -0.000000  -0.000010
     7  C    0.451519  -0.063078   0.000002  -0.000000   0.000000   0.000046
     8  C   -0.069201   0.449110  -0.000039   0.000001  -0.000002  -0.000119
     9  C   -0.000001  -0.000262   0.430903  -0.056419   0.010206   0.000495
    10  C    0.000000   0.000016  -0.054879   0.440725  -0.055938   0.006702
    11  C   -0.000000  -0.000008   0.011167  -0.060801   0.425672  -0.073949
    12  C   -0.000001   0.000021  -0.000221   0.009547  -0.043349   0.430165
    13  N   -0.000030   0.001616   0.005281  -0.000238   0.005222  -0.041117
    14  H    0.000009   0.000298   0.001480   0.000011  -0.000003   0.000009
    15  H   -0.000003   0.003397   0.001293   0.000013  -0.000002   0.000011
    16  H    0.000029  -0.000242  -0.000002  -0.000000  -0.000000  -0.000001
    17  H   -0.000250   0.000028   0.000000  -0.000000   0.000000   0.000000
    18  H   -0.012227  -0.000254   0.000000   0.000000   0.000000  -0.000000
    19  H    0.679528  -0.012620   0.000000  -0.000000   0.000000   0.000001
    20  H   -0.012620   0.688919  -0.000003  -0.000000  -0.000000  -0.000010
    21  H    0.000000  -0.000003   0.662702  -0.010653  -0.000153   0.000069
    22  H   -0.000000  -0.000000  -0.010653   0.652606  -0.010915  -0.000259
    23  H    0.000000  -0.000000  -0.000153  -0.010915   0.650827  -0.006315
    24  H    0.000001  -0.000010   0.000069  -0.000259  -0.006315   0.648278
 Mulliken charges:
               1
     1  C   -0.122074
     2  C    0.144203
     3  C   -0.027187
     4  C   -0.030404
     5  C   -0.008356
     6  C   -0.014763
     7  C   -0.012263
     8  C   -0.008504
     9  C   -0.019662
    10  C    0.038607
    11  C   -0.049120
    12  C    0.039318
    13  N   -0.105204
    14  H    0.035433
    15  H    0.044202
    16  H   -0.007165
    17  H    0.007032
    18  H    0.008549
    19  H    0.007624
    20  H   -0.007562
    21  H    0.008590
    22  H    0.025272
    23  H    0.024001
    24  H    0.029433
 Sum of Mulliken charges =  -0.00000
 Mulliken charges with hydrogens summed into heavy atoms:
               1
     1  C   -0.122074
     2  C    0.223838
     3  C   -0.027187
     4  C   -0.037569
     5  C   -0.001324
     6  C   -0.006214
     7  C   -0.004640
     8  C   -0.016066
     9  C   -0.011073
    10  C    0.063878
    11  C   -0.025119
    12  C    0.068752
    13  N   -0.105204
 Electronic spatial extent (au):  <R**2>=           2677.3534
 Charge=             -0.0000 electrons
 Dipole moment (field-independent basis, Debye):
    X=             -2.1130    Y=             -0.7474    Z=              0.1757  Tot=              2.2482
 Quadrupole moment (field-independent basis, Debye-Ang):
   XX=            -66.5576   YY=            -71.6870   ZZ=            -74.4949
   XY=              2.2960   XZ=             -1.0784   YZ=              0.6856
 Traceless Quadrupole moment (field-independent basis, Debye-Ang):
   XX=              4.3556   YY=             -0.7739   ZZ=             -3.5817
   XY=              2.2960   XZ=             -1.0784   YZ=              0.6856
 Octapole moment (field-independent basis, Debye-Ang**2):
  XXX=            -36.7756  YYY=              2.8047  ZZZ=              1.2823  XYY=            -13.0716
  XXY=             15.8752  XXZ=             -9.2642  XZZ=              9.4991  YZZ=             -0.5481
  YYZ=             -1.0157  XYZ=              9.5484
 Hexadecapole moment (field-independent basis, Debye-Ang**3):
 XXXX=          -2660.1215 YYYY=           -490.3950 ZZZZ=           -307.4548 XXXY=             52.1607
 XXXZ=            -24.1820 YYYX=             -2.6504 YYYZ=             -4.7990 ZZZX=             -9.2131
 ZZZY=              9.4806 XXYY=           -538.6254 XXZZ=           -541.3989 YYZZ=           -134.6199
 XXYZ=             -0.2022 YYXZ=              7.1896 ZZXY=              2.5235
 N-N= 7.048000369638D+02 E-N=-2.609426670219D+03  KE= 5.128059743288D+02
   1 Symmetry operations used in ECPInt.
 ECPInt:  NShTT=    6216 NPrTT=   22568 LenC2=    5947 LenP2D=   16137.
 LDataN:  DoStor=T MaxTD1= 5 Len=  102
 Calling FoFJK, ICntrl=      2127 FMM=F ISym2X=0 I1Cent= 0 IOpClX= 0 NMat=1 NMatS=1 NMatT=0.
 ***** Axes restored to original set *****
 -------------------------------------------------------------------
 Center     Atomic                   Forces (Hartrees/Bohr)
 Number     Number              X              Y              Z
 -------------------------------------------------------------------
      1        6           0.001027320    0.003036994    0.000116402
      2        6           0.001796023   -0.007192968    0.000733132
      3        6          -0.002262156    0.008395615   -0.000704269
      4        6          -0.000453234    0.000678512   -0.000582144
      5        6           0.001592587   -0.001094480    0.001626686
      6        6           0.001666094   -0.001335922    0.001174828
      7        6          -0.000093978   -0.000515894   -0.002172743
      8        6           0.001752713    0.000316338    0.000029335
      9        6          -0.000757146   -0.002123575    0.000156282
     10        6           0.000683967   -0.000304784    0.000022395
     11        6           0.000317169    0.000688727   -0.000028870
     12        6          -0.002234664   -0.001458632    0.000063447
     13        7           0.005879563   -0.000949738    0.000111969
     14        1           0.000510684    0.005108224    0.002413002
     15        1           0.000452429    0.004313254   -0.003749772
     16        1          -0.002579958    0.004885922    0.006736398
     17        1           0.004292298   -0.000526672    0.007364921
     18        1           0.006749792   -0.005347660    0.000634966
     19        1           0.002297574   -0.004697759   -0.006818414
     20        1          -0.004605502    0.000356027   -0.007740126
     21        1           0.000148203    0.008781003   -0.000806423
     22        1          -0.007249619    0.003976362   -0.000197897
     23        1          -0.007220465   -0.005323289    0.000672277
     24        1          -0.001709694   -0.009665604    0.000944619
 -------------------------------------------------------------------
 Cartesian Forces:  Max     0.009665604 RMS     0.003689578

 GradGradGradGradGradGradGradGradGradGradGradGradGradGradGradGradGradGrad
 Berny optimization.
 FormGI is forming the generalized inverse of G from B-inverse, IUseBI=4.
 Internal  Forces:  Max     0.013231598 RMS     0.004444899
 Search for a local minimum.
 Step number   1 out of a maximum of  131
 All quantities printed in internal units (Hartrees-Bohrs-Radians)
 Mixed Optimization -- RFO/linear search
 Second derivative matrix not updated -- first step.
 ITU=  0
     Eigenvalues ---    0.00645   0.00738   0.01574   0.01638   0.02226
     Eigenvalues ---    0.02255   0.02261   0.02271   0.02277   0.02282
     Eigenvalues ---    0.02294   0.02294   0.02298   0.02302   0.02303
     Eigenvalues ---    0.02308   0.02316   0.02427   0.02616   0.05015
     Eigenvalues ---    0.06503   0.09917   0.13237   0.16000   0.16000
     Eigenvalues ---    0.16000   0.16000   0.16000   0.16000   0.16000
     Eigenvalues ---    0.16000   0.16000   0.22000   0.22000   0.22000
     Eigenvalues ---    0.22005   0.22426   0.23477   0.24432   0.24996
     Eigenvalues ---    0.25000   0.31437   0.32153   0.34299   0.34422
     Eigenvalues ---    0.35685   0.35846   0.35876   0.35919   0.35927
     Eigenvalues ---    0.35936   0.35952   0.35974   0.36134   0.43203
     Eigenvalues ---    0.43534   0.43575   0.45706   0.47331   0.47824
     Eigenvalues ---    0.48044   0.48287   0.48371   0.48542   0.58764
     Eigenvalues ---    0.60422
 RFO step:  Lambda=-6.58644421D-03 EMin= 6.45021660D-03
 Linear search not attempted -- first point.
 Iteration  1 RMS(Cart)=  0.09465204 RMS(Int)=  0.00085555
 Iteration  2 RMS(Cart)=  0.00269353 RMS(Int)=  0.00008851
 Iteration  3 RMS(Cart)=  0.00000468 RMS(Int)=  0.00008850
 Iteration  4 RMS(Cart)=  0.00000000 RMS(Int)=  0.00008850
 Variable       Old X    -DE/DX   Delta X   Delta X   Delta X     New X
                                 (Linear)    (Quad)   (Total)
    R1        2.85186   0.01137   0.00000   0.03543   0.03543   2.88730
    R2        2.63570   0.00829   0.00000   0.01743   0.01743   2.65313
    R3        2.50107   0.00944   0.00000   0.01571   0.01571   2.51678
    R4        2.83865   0.00585   0.00000   0.01783   0.01783   2.85648
    R5        2.06623   0.00530   0.00000   0.01510   0.01510   2.08133
    R6        2.06829   0.00536   0.00000   0.01532   0.01532   2.08361
    R7        2.62138   0.00965   0.00000   0.01983   0.01983   2.64120
    R8        2.62401   0.01041   0.00000   0.02146   0.02146   2.64547
    R9        2.61544   0.01137   0.00000   0.02321   0.02321   2.63865
   R10        2.04323   0.00871   0.00000   0.02386   0.02386   2.06709
   R11        2.61465   0.00966   0.00000   0.01979   0.01979   2.63444
   R12        2.04208   0.00854   0.00000   0.02335   0.02335   2.06543
   R13        2.61664   0.01083   0.00000   0.02222   0.02222   2.63886
   R14        2.04156   0.00863   0.00000   0.02358   0.02358   2.06514
   R15        2.61261   0.01004   0.00000   0.02034   0.02034   2.63295
   R16        2.04195   0.00859   0.00000   0.02348   0.02348   2.06543
   R17        2.04182   0.00901   0.00000   0.02462   0.02462   2.06644
   R18        2.61225   0.00796   0.00000   0.01544   0.01544   2.62769
   R19        2.04122   0.00882   0.00000   0.02407   0.02407   2.06529
   R20        2.62198   0.00719   0.00000   0.01432   0.01431   2.63629
   R21        2.04277   0.00827   0.00000   0.02264   0.02264   2.06540
   R22        2.61689   0.00679   0.00000   0.01410   0.01410   2.63098
   R23        2.03873   0.00898   0.00000   0.02441   0.02441   2.06314
   R24        2.49686   0.01323   0.00000   0.02180   0.02180   2.51865
   R25        2.04578   0.00950   0.00000   0.02615   0.02615   2.07192
    A1        2.09811  -0.00366   0.00000  -0.01450  -0.01450   2.08361
    A2        2.05463   0.00701   0.00000   0.02711   0.02710   2.08174
    A3        2.13044  -0.00335   0.00000  -0.01261  -0.01260   2.11784
    A4        1.95794   0.01247   0.00000   0.06263   0.06228   2.02022
    A5        1.89418  -0.00355   0.00000  -0.01275  -0.01284   1.88134
    A6        1.88745  -0.00275   0.00000  -0.00309  -0.00352   1.88393
    A7        1.92483  -0.00334   0.00000  -0.01384  -0.01404   1.91079
    A8        1.91924  -0.00319   0.00000  -0.00884  -0.00945   1.90979
    A9        1.87800  -0.00011   0.00000  -0.02757  -0.02791   1.85009
   A10        2.10928  -0.00015   0.00000  -0.00029  -0.00031   2.10897
   A11        2.09806   0.00170   0.00000   0.00693   0.00691   2.10497
   A12        2.07571  -0.00154   0.00000  -0.00647  -0.00649   2.06922
   A13        2.10472   0.00114   0.00000   0.00476   0.00475   2.10946
   A14        2.08891  -0.00082   0.00000  -0.00387  -0.00387   2.08505
   A15        2.08955  -0.00032   0.00000  -0.00089  -0.00089   2.08866
   A16        2.09610  -0.00014   0.00000  -0.00047  -0.00047   2.09563
   A17        2.09185   0.00006   0.00000   0.00015   0.00016   2.09200
   A18        2.09523   0.00008   0.00000   0.00031   0.00032   2.09555
   A19        2.08879  -0.00061   0.00000  -0.00240  -0.00241   2.08638
   A20        2.09698   0.00032   0.00000   0.00128   0.00128   2.09825
   A21        2.09742   0.00029   0.00000   0.00113   0.00113   2.09855
   A22        2.09633   0.00012   0.00000   0.00051   0.00051   2.09684
   A23        2.09417   0.00004   0.00000   0.00033   0.00033   2.09450
   A24        2.09268  -0.00016   0.00000  -0.00084  -0.00084   2.09185
   A25        2.10471   0.00104   0.00000   0.00412   0.00411   2.10882
   A26        2.08475  -0.00039   0.00000  -0.00131  -0.00131   2.08344
   A27        2.09372  -0.00064   0.00000  -0.00283  -0.00283   2.09089
   A28        2.07458   0.00218   0.00000   0.00745   0.00745   2.08203
   A29        2.09788  -0.00125   0.00000  -0.00466  -0.00466   2.09322
   A30        2.11073  -0.00093   0.00000  -0.00279  -0.00279   2.10794
   A31        2.07384   0.00093   0.00000   0.00115   0.00114   2.07498
   A32        2.10367  -0.00050   0.00000  -0.00079  -0.00078   2.10289
   A33        2.10567  -0.00043   0.00000  -0.00036  -0.00036   2.10531
   A34        2.05741  -0.00024   0.00000  -0.00211  -0.00212   2.05528
   A35        2.11555   0.00064   0.00000   0.00417   0.00417   2.11972
   A36        2.11023  -0.00040   0.00000  -0.00206  -0.00205   2.10818
   A37        2.15585  -0.00090   0.00000  -0.00238  -0.00238   2.15347
   A38        2.11651  -0.00225   0.00000  -0.01501  -0.01501   2.10150
   A39        2.01082   0.00315   0.00000   0.01739   0.01739   2.02821
   A40        2.07425   0.00138   0.00000   0.00850   0.00851   2.08276
    D1        3.10033  -0.00020   0.00000  -0.00396  -0.00410   3.09623
    D2        0.96915  -0.00166   0.00000  -0.01849  -0.01849   0.95066
    D3       -1.06331   0.00184   0.00000   0.02254   0.02265  -1.04066
    D4       -0.04404  -0.00016   0.00000  -0.00162  -0.00173  -0.04577
    D5       -2.17522  -0.00161   0.00000  -0.01614  -0.01613  -2.19135
    D6        2.07551   0.00189   0.00000   0.02489   0.02501   2.10052
    D7        3.13672   0.00009   0.00000   0.00322   0.00319   3.13991
    D8       -0.00373   0.00005   0.00000   0.00168   0.00166  -0.00208
    D9       -0.00197   0.00003   0.00000   0.00070   0.00071  -0.00127
   D10        3.14076  -0.00002   0.00000  -0.00083  -0.00082   3.13993
   D11       -3.13785  -0.00004   0.00000  -0.00187  -0.00189  -3.13974
   D12        0.00091   0.00001   0.00000   0.00052   0.00053   0.00143
   D13       -1.76171   0.00057   0.00000   0.02574   0.02578  -1.73593
   D14        1.36228   0.00082   0.00000   0.03699   0.03707   1.39934
   D15        0.35192   0.00216   0.00000   0.04224   0.04212   0.39404
   D16       -2.80728   0.00241   0.00000   0.05350   0.05341  -2.75387
   D17        2.42026  -0.00200   0.00000  -0.00565  -0.00562   2.41465
   D18       -0.73894  -0.00175   0.00000   0.00561   0.00567  -0.73326
   D19        3.12987  -0.00004   0.00000  -0.00056  -0.00060   3.12927
   D20       -0.01234   0.00012   0.00000   0.00528   0.00525  -0.00709
   D21        0.00566  -0.00032   0.00000  -0.01181  -0.01179  -0.00613
   D22       -3.13655  -0.00015   0.00000  -0.00597  -0.00595   3.14069
   D23       -3.12721  -0.00005   0.00000  -0.00312  -0.00313  -3.13033
   D24        0.01002  -0.00019   0.00000  -0.00798  -0.00798   0.00204
   D25       -0.00288   0.00020   0.00000   0.00798   0.00797   0.00508
   D26        3.13434   0.00006   0.00000   0.00312   0.00311   3.13745
   D27       -0.00381   0.00019   0.00000   0.00699   0.00700   0.00319
   D28        3.13833   0.00011   0.00000   0.00409   0.00410  -3.14075
   D29        3.13840   0.00003   0.00000   0.00115   0.00114   3.13954
   D30       -0.00265  -0.00006   0.00000  -0.00175  -0.00175  -0.00440
   D31       -0.00089   0.00004   0.00000   0.00181   0.00182   0.00093
   D32        3.14157  -0.00007   0.00000  -0.00246  -0.00246   3.13911
   D33        3.14015   0.00013   0.00000   0.00471   0.00472  -3.13831
   D34       -0.00057   0.00001   0.00000   0.00044   0.00044  -0.00012
   D35        0.00365  -0.00016   0.00000  -0.00562  -0.00562  -0.00196
   D36       -3.13890  -0.00007   0.00000  -0.00279  -0.00280   3.14149
   D37       -3.13881  -0.00004   0.00000  -0.00135  -0.00134  -3.14015
   D38        0.00182   0.00005   0.00000   0.00148   0.00148   0.00330
   D39       -0.00175   0.00004   0.00000   0.00068   0.00067  -0.00109
   D40       -3.13896   0.00018   0.00000   0.00556   0.00554  -3.13342
   D41        3.14080  -0.00005   0.00000  -0.00215  -0.00215   3.13865
   D42        0.00359   0.00009   0.00000   0.00273   0.00273   0.00632
   D43        0.00128  -0.00002   0.00000  -0.00074  -0.00075   0.00053
   D44       -3.14012  -0.00004   0.00000  -0.00131  -0.00132  -3.14143
   D45       -3.14147   0.00003   0.00000   0.00081   0.00080  -3.14067
   D46        0.00032   0.00001   0.00000   0.00023   0.00023   0.00055
   D47        0.00034  -0.00001   0.00000  -0.00035  -0.00035  -0.00001
   D48       -3.14134  -0.00002   0.00000  -0.00053  -0.00053   3.14132
   D49       -3.14145   0.00001   0.00000   0.00023   0.00022  -3.14123
   D50        0.00006   0.00000   0.00000   0.00004   0.00004   0.00010
   D51       -0.00148   0.00005   0.00000   0.00166   0.00166   0.00018
   D52        3.14055  -0.00001   0.00000  -0.00031  -0.00030   3.14025
   D53        3.14020   0.00006   0.00000   0.00184   0.00184  -3.14115
   D54       -0.00096  -0.00000   0.00000  -0.00012  -0.00012  -0.00108
   D55        0.00086  -0.00005   0.00000  -0.00175  -0.00176  -0.00090
   D56       -3.14114   0.00000   0.00000   0.00010   0.00012  -3.14102
         Item               Value     Threshold  Converged?
 Maximum Force            0.013232     0.000450     NO 
 RMS     Force            0.004445     0.000300     NO 
 Maximum Displacement     0.401534     0.001800     NO 
 RMS     Displacement     0.096572     0.001200     NO 
 Predicted change in Energy=-3.386559D-03
 GradGradGradGradGradGradGradGradGradGradGradGradGradGradGradGradGradGrad

                          Input orientation:                          
 ---------------------------------------------------------------------
 Center     Atomic      Atomic             Coordinates (Angstroms)
 Number     Number       Type             X           Y           Z
 ---------------------------------------------------------------------
      1          6           0       -1.249083    0.679708   -0.086903
      2          6           0        0.095617    1.396914   -0.195748
      3          6           0        1.319937    0.517918   -0.080477
      4          6           0        2.023288    0.423519    1.123622
      5          6           0        3.145727   -0.399547    1.234891
      6          6           0        3.581801   -1.138448    0.136100
      7          6           0        2.889362   -1.047838   -1.073164
      8          6           0        1.769254   -0.225871   -1.178056
      9          6           0       -2.435173    1.429791   -0.128360
     10          6           0       -3.657981    0.774942   -0.031172
     11          6           0       -3.670019   -0.613328    0.105823
     12          6           0       -2.444069   -1.272417    0.137895
     13          7           0       -1.271645   -0.645375    0.044984
     14          1           0        0.126659    2.174049    0.584101
     15          1           0        0.118005    1.932251   -1.159408
     16          1           0        1.685690    0.998941    1.990478
     17          1           0        3.683069   -0.461628    2.184634
     18          1           0        4.461348   -1.781616    0.219786
     19          1           0        3.224663   -1.623721   -1.939500
     20          1           0        1.226666   -0.165013   -2.125509
     21          1           0       -2.389733    2.516461   -0.235686
     22          1           0       -4.593313    1.339577   -0.061382
     23          1           0       -4.605935   -1.169750    0.185901
     24          1           0       -2.402853   -2.362768    0.245411
 ---------------------------------------------------------------------
                    Distance matrix (angstroms):
                    1          2          3          4          5
     1  C    0.000000
     2  C    1.527891   0.000000
     3  C    2.574118   1.511582   0.000000
     4  C    3.498488   2.530642   1.397665   0.000000
     5  C    4.714476   3.818006   2.430112   1.396312   0.000000
     6  C    5.166513   4.323385   2.811847   2.417416   1.394087
     7  C    4.591715   3.814666   2.429015   2.782237   2.411042
     8  C    3.334823   2.529707   1.399924   2.404987   2.783372
     9  C    1.403978   2.531901   3.864538   4.738979   6.029211
    10  C    2.411424   3.808338   4.984793   5.808087   7.019458
    11  C    2.751365   4.279255   5.119969   5.875773   6.911938
    12  C    2.299852   3.699548   4.173815   4.879051   5.762910
    13  N    1.331821   2.469474   2.843465   3.628027   4.581429
    14  H    2.139152   1.101394   2.146705   2.636786   4.020161
    15  H    2.141976   1.102600   2.146874   3.334456   4.509662
    16  H    3.609752   2.732452   2.157316   1.093857   2.158330
    17  H    5.548752   4.689371   3.416815   2.159653   1.092978
    18  H    6.225849   5.416209   3.904674   3.409351   2.161345
    19  H    5.362118   4.685706   3.416222   3.875205   3.403175
    20  H    3.316444   2.728161   2.158066   3.396738   3.876866
    21  H    2.167229   2.726159   4.216623   5.069800   6.427053
    22  H    3.408805   4.691205   5.970093   6.784011   8.037264
    23  H    3.842313   5.370104   6.167264   6.882182   7.860144
    24  H    3.270822   4.535656   4.718445   5.303336   5.968253
                    6          7          8          9         10
     6  C    0.000000
     7  C    1.396425   0.000000
     8  C    2.417671   1.393296   0.000000
     9  C    6.547501   5.948275   4.638996   0.000000
    10  C    7.490226   6.875753   5.636652   1.390515   0.000000
    11  C    7.270870   6.678643   5.602156   2.398753   1.395064
    12  C    6.027360   5.473809   4.536417   2.715308   2.386178
    13  N    4.879279   4.327379   3.304372   2.385405   2.778075
    14  H    4.807426   4.556271   3.400431   2.761251   4.081613
    15  H    4.806809   4.070477   2.717436   2.798972   4.107353
    16  H    3.406227   3.876085   3.398051   4.653667   5.717697
    17  H    2.159822   3.403948   3.876332   6.808839   7.767233
    18  H    1.092827   2.163629   3.409058   7.615533   8.516013
    19  H    2.161286   1.092981   2.156849   6.681161   7.534328
    20  H    3.407215   2.156703   1.093514   4.465542   5.397179
    21  H    7.011120   6.424518   5.070070   1.092903   2.164063
    22  H    8.544712   7.919209   6.646792   2.161063   1.092964
    23  H    8.187947   7.601288   6.587436   3.401261   2.174296
    24  H    6.109582   5.610278   4.898883   3.811069   3.390733
                   11         12         13         14         15
    11  C    0.000000
    12  C    1.392257   0.000000
    13  N    2.399359   1.332814   0.000000
    14  H    4.734235   4.322716   3.192970   0.000000
    15  H    4.736021   4.303152   3.166361   1.760217   0.000000
    16  H    5.902114   5.064192   3.903146   2.406107   3.640121
    17  H    7.642798   6.510633   5.400098   4.707074   5.442696
    18  H    8.215656   6.924650   5.847120   5.879586   5.878742
    19  H    7.262292   6.047604   5.011201   5.512645   4.785896
    20  H    5.399754   4.452375   3.344151   3.744758   2.561444
    21  H    3.398726   3.807639   3.365428   2.668618   2.735564
    22  H    2.166625   3.388432   3.871024   4.836438   4.873750
    23  H    1.091769   2.164834   3.378212   5.808356   5.809292
    24  H    2.164656   1.096414   2.066213   5.205367   5.174498
                   16         17         18         19         20
    16  H    0.000000
    17  H    2.482031   0.000000
    18  H    4.309423   2.491729   0.000000
    19  H    4.969057   4.309185   2.493359   0.000000
    20  H    4.301957   4.969831   4.310102   2.480811   0.000000
    21  H    4.885462   7.183723   8.100508   7.180915   4.882630
    22  H    6.614532   8.762843   9.581638   8.569085   6.355830
    23  H    6.895235   8.555931   9.087967   8.126604   6.353846
    24  H    5.573376   6.664334   6.888806   6.081855   4.860535
                   21         22         23         24
    21  H    0.000000
    22  H    2.504237   0.000000
    23  H    4.321741   2.521514   0.000000
    24  H    4.902907   4.312725   2.506074   0.000000
 Stoichiometry    C12H11N
 Framework group  C1[X(C12H11N)]
 Deg. of freedom    66
 Full point group                 C1      NOp   1
 Largest Abelian subgroup         C1      NOp   1
 Largest concise Abelian subgroup C1      NOp   1
                         Standard orientation:                         
 ---------------------------------------------------------------------
 Center     Atomic      Atomic             Coordinates (Angstroms)
 Number     Number       Type             X           Y           Z
 ---------------------------------------------------------------------
      1          6           0       -1.321110   -0.510958    0.136220
      2          6           0       -0.074130   -1.358901    0.382156
      3          6           0        1.248529   -0.652696    0.190513
      4          6           0        1.977250   -0.805115   -0.992366
      5          6           0        3.192001   -0.141497   -1.175884
      6          6           0        3.696024    0.683435   -0.171431
      7          6           0        2.978507    0.839009    1.016411
      8          6           0        1.766304    0.175335    1.193539
      9          6           0       -2.589169   -1.104797    0.238864
     10          6           0       -3.722825   -0.330862    0.016643
     11          6           0       -3.565949    1.017859   -0.303587
     12          6           0       -2.269396    1.518788   -0.383590
     13          7           0       -1.182348    0.777516   -0.170906
     14          1           0       -0.124154   -2.232792   -0.286335
     15          1           0       -0.131543   -1.757647    1.408524
     16          1           0        1.586899   -1.449281   -1.785587
     17          1           0        3.747996   -0.271860   -2.107803
     18          1           0        4.647636    1.202164   -0.311526
     19          1           0        3.366641    1.483826    1.808983
     20          1           0        1.205285    0.307204    2.122861
     21          1           0       -2.676212   -2.164704    0.490767
     22          1           0       -4.719531   -0.773055    0.091563
     23          1           0       -4.426911    1.663766   -0.486633
     24          1           0       -2.095889    2.572169   -0.633401
 ---------------------------------------------------------------------
 Rotational constants (GHZ):           2.2024345           0.4261457           0.4046460
 Standard basis: def2SVP (5D, 7F)
 There are   250 symmetry adapted cartesian basis functions of A   symmetry.
 There are   237 symmetry adapted basis functions of A   symmetry.
   237 basis functions,   402 primitive gaussians,   250 cartesian basis functions
    45 alpha electrons       45 beta electrons
       nuclear repulsion energy       694.6478737054 Hartrees.
 NAtoms=   24 NActive=   24 NUniq=   24 SFac= 1.00D+00 NAtFMM=   60 NAOKFM=F Big=F
 Integral buffers will be    131072 words long.
 Raffenetti 2 integral format.
 Two-electron integral symmetry is turned on.
 Nuclear repulsion after empirical dispersion term =      694.6344465570 Hartrees.
 One-electron integrals computed using PRISM.
   1 Symmetry operations used in ECPInt.
 ECPInt:  NShTT=    6216 NPrTT=   22568 LenC2=    5919 LenP2D=   15984.
 LDataN:  DoStor=T MaxTD1= 4 Len=   56
 NBasis=   237 RedAO= T EigKep=  2.90D-04  NBF=   237
 NBsUse=   237 1.00D-06 EigRej= -1.00D+00 NBFU=   237
 Initial guess from the checkpoint file:  "Py6_7.chk"
 B after Tr=    -0.000000   -0.000000    0.000000
         Rot=    0.999985   -0.002245   -0.003325   -0.003706 Ang=  -0.63 deg.
 ExpMin= 1.22D-01 ExpMax= 1.71D+03 ExpMxC= 2.58D+02 IAcc=3 IRadAn=         5 AccDes= 0.00D+00
 Harris functional with IExCor= 4639 and IRadAn=       5 diagonalized for initial guess.
 HarFok:  IExCor= 4639 AccDes= 0.00D+00 IRadAn=         5 IDoV= 1 UseB2=F ITyADJ=14
 ICtDFT=  3500011 ScaDFX=  1.000000  1.000000  1.000000  1.000000
 FoFCou: FMM=F IPFlag=           0 FMFlag=      100000 FMFlg1=           0
         NFxFlg=           0 DoJE=T BraDBF=F KetDBF=T FulRan=T
         wScrn=  0.000000 ICntrl=       500 IOpCl=  0 I1Cent=   200000004 NGrid=           0
         NMat0=    1 NMatS0=      1 NMatT0=    0 NMatD0=    1 NMtDS0=    0 NMtDT0=    0
 Petite list used in FoFCou.
 Requested convergence on RMS density matrix=1.00D-08 within 128 cycles.
 Requested convergence on MAX density matrix=1.00D-06.
 Requested convergence on             energy=1.00D-06.
 No special actions if energy rises.
 Integral accuracy reduced to 1.0D-05 until final iterations.
 Initial convergence to 1.0D-05 achieved.  Increase integral accuracy.
 SCF Done:  E(RwB97XD) =  -518.105561220     A.U. after   13 cycles
            NFock= 13  Conv=0.58D-08     -V/T= 2.0114
   1 Symmetry operations used in ECPInt.
 ECPInt:  NShTT=    6216 NPrTT=   22568 LenC2=    5919 LenP2D=   15984.
 LDataN:  DoStor=T MaxTD1= 5 Len=  102
 Calling FoFJK, ICntrl=      2127 FMM=F ISym2X=0 I1Cent= 0 IOpClX= 0 NMat=1 NMatS=1 NMatT=0.
 ***** Axes restored to original set *****
 -------------------------------------------------------------------
 Center     Atomic                   Forces (Hartrees/Bohr)
 Number     Number              X              Y              Z
 -------------------------------------------------------------------
      1        6          -0.000058382   -0.001581272    0.000395900
      2        6          -0.000963921   -0.003565338    0.000601026
      3        6          -0.002132808    0.000116160   -0.000219590
      4        6           0.000349066   -0.001180051   -0.000141320
      5        6          -0.000479706    0.000439402   -0.000682556
      6        6          -0.000684000    0.000626457   -0.000188878
      7        6          -0.000153892    0.000330259    0.000566392
      8        6           0.000199876   -0.000341265    0.000793108
      9        6          -0.000308886    0.000306539   -0.000063507
     10        6           0.000890592    0.000411193   -0.000069912
     11        6           0.000512560    0.000304044   -0.000070298
     12        6           0.000493693    0.001437705   -0.000058702
     13        7           0.002943984    0.000958234   -0.000467231
     14        1          -0.000079636    0.000700972   -0.000103665
     15        1          -0.000432900    0.000287226   -0.000138416
     16        1           0.000053723   -0.000206086   -0.000172530
     17        1          -0.000290991    0.000107302   -0.000292184
     18        1          -0.000356995    0.000177585   -0.000057563
     19        1          -0.000147186    0.000282833    0.000246578
     20        1           0.000069924   -0.000111984    0.000223471
     21        1          -0.000199148   -0.000105392   -0.000007666
     22        1           0.000378767    0.000009761   -0.000002248
     23        1           0.000366379    0.000061166   -0.000002173
     24        1           0.000029890    0.000534549   -0.000088037
 -------------------------------------------------------------------
 Cartesian Forces:  Max     0.003565338 RMS     0.000759596

 GradGradGradGradGradGradGradGradGradGradGradGradGradGradGradGradGradGrad
 Berny optimization.
 Using GEDIIS/GDIIS optimizer.
 FormGI is forming the generalized inverse of G from B-inverse, IUseBI=4.
 Internal  Forces:  Max     0.005569977 RMS     0.000985021
 Search for a local minimum.
 Step number   2 out of a maximum of  131
 All quantities printed in internal units (Hartrees-Bohrs-Radians)
 Mixed Optimization -- En-DIIS/RFO-DIIS
 Update second derivatives using D2CorX and points    1    2
 DE= -2.64D-03 DEPred=-3.39D-03 R= 7.81D-01
 TightC=F SS=  1.41D+00  RLast= 1.67D-01 DXNew= 5.0454D-01 4.9986D-01
 Trust test= 7.81D-01 RLast= 1.67D-01 DXMaxT set to 5.00D-01
 ITU=  1  0
 Use linear search instead of GDIIS.
     Eigenvalues ---    0.00645   0.00741   0.01566   0.01637   0.02226
     Eigenvalues ---    0.02257   0.02261   0.02271   0.02277   0.02282
     Eigenvalues ---    0.02294   0.02295   0.02298   0.02303   0.02303
     Eigenvalues ---    0.02308   0.02316   0.02431   0.02616   0.04570
     Eigenvalues ---    0.06422   0.10508   0.13591   0.15957   0.15999
     Eigenvalues ---    0.16000   0.16000   0.16000   0.16000   0.16000
     Eigenvalues ---    0.16000   0.16013   0.21994   0.22000   0.22000
     Eigenvalues ---    0.22420   0.22641   0.23456   0.24607   0.24998
     Eigenvalues ---    0.25812   0.31883   0.32406   0.34310   0.34404
     Eigenvalues ---    0.35717   0.35854   0.35887   0.35922   0.35929
     Eigenvalues ---    0.35946   0.35962   0.36103   0.36864   0.43331
     Eigenvalues ---    0.43578   0.43651   0.45822   0.47171   0.47848
     Eigenvalues ---    0.48130   0.48344   0.48410   0.49667   0.60285
     Eigenvalues ---    0.60476
 RFO step:  Lambda=-1.66863311D-04 EMin= 6.45085146D-03
 Quartic linear search produced a step of -0.15183.
 Iteration  1 RMS(Cart)=  0.02217115 RMS(Int)=  0.00006063
 Iteration  2 RMS(Cart)=  0.00010079 RMS(Int)=  0.00001200
 Iteration  3 RMS(Cart)=  0.00000000 RMS(Int)=  0.00001200
 Variable       Old X    -DE/DX   Delta X   Delta X   Delta X     New X
                                 (Linear)    (Quad)   (Total)
    R1        2.88730  -0.00557  -0.00538  -0.00896  -0.01434   2.87296
    R2        2.65313  -0.00068  -0.00265   0.00173  -0.00091   2.65222
    R3        2.51678  -0.00294  -0.00239  -0.00148  -0.00386   2.51292
    R4        2.85648  -0.00303  -0.00271  -0.00494  -0.00764   2.84883
    R5        2.08133   0.00042  -0.00229   0.00362   0.00133   2.08266
    R6        2.08361   0.00025  -0.00233   0.00325   0.00093   2.08454
    R7        2.64120  -0.00087  -0.00301   0.00190  -0.00111   2.64009
    R8        2.64547  -0.00113  -0.00326   0.00173  -0.00153   2.64394
    R9        2.63865  -0.00162  -0.00352   0.00118  -0.00235   2.63630
   R10        2.06709  -0.00026  -0.00362   0.00348  -0.00014   2.06695
   R11        2.63444  -0.00098  -0.00301   0.00171  -0.00130   2.63314
   R12        2.06543  -0.00040  -0.00355   0.00306  -0.00048   2.06495
   R13        2.63886  -0.00115  -0.00337   0.00182  -0.00155   2.63731
   R14        2.06514  -0.00040  -0.00358   0.00312  -0.00046   2.06468
   R15        2.63295  -0.00127  -0.00309   0.00132  -0.00177   2.63118
   R16        2.06543  -0.00039  -0.00357   0.00312  -0.00045   2.06498
   R17        2.06644  -0.00024  -0.00374   0.00368  -0.00006   2.06638
   R18        2.62769  -0.00218  -0.00234  -0.00101  -0.00335   2.62434
   R19        2.06529  -0.00011  -0.00365   0.00387   0.00022   2.06550
   R20        2.63629  -0.00047  -0.00217   0.00181  -0.00036   2.63593
   R21        2.06540  -0.00032  -0.00344   0.00314  -0.00030   2.06510
   R22        2.63098  -0.00018  -0.00214   0.00217   0.00003   2.63101
   R23        2.06314  -0.00035  -0.00371   0.00339  -0.00032   2.06282
   R24        2.51865  -0.00149  -0.00331   0.00166  -0.00165   2.51700
   R25        2.07192  -0.00054  -0.00397   0.00321  -0.00076   2.07117
    A1        2.08361   0.00034   0.00220  -0.00112   0.00107   2.08468
    A2        2.08174  -0.00348  -0.00412  -0.00703  -0.01115   2.07059
    A3        2.11784   0.00313   0.00191   0.00815   0.01006   2.12790
    A4        2.02022  -0.00360  -0.00946  -0.00411  -0.01351   2.00672
    A5        1.88134   0.00115   0.00195   0.00222   0.00421   1.88554
    A6        1.88393   0.00068   0.00053  -0.00087  -0.00027   1.88366
    A7        1.91079   0.00119   0.00213   0.00342   0.00559   1.91638
    A8        1.90979   0.00139   0.00144   0.00377   0.00527   1.91506
    A9        1.85009  -0.00062   0.00424  -0.00468  -0.00041   1.84968
   A10        2.10897   0.00006   0.00005   0.00010   0.00014   2.10912
   A11        2.10497  -0.00017  -0.00105   0.00054  -0.00050   2.10447
   A12        2.06922   0.00011   0.00099  -0.00067   0.00030   2.06952
   A13        2.10946  -0.00008  -0.00072   0.00054  -0.00019   2.10927
   A14        2.08505   0.00006   0.00059  -0.00038   0.00021   2.08525
   A15        2.08866   0.00001   0.00014  -0.00014  -0.00000   2.08866
   A16        2.09563  -0.00002   0.00007  -0.00019  -0.00012   2.09551
   A17        2.09200  -0.00014  -0.00002  -0.00069  -0.00071   2.09129
   A18        2.09555   0.00015  -0.00005   0.00088   0.00083   2.09638
   A19        2.08638   0.00014   0.00037   0.00007   0.00044   2.08682
   A20        2.09825  -0.00002  -0.00019   0.00021   0.00002   2.09827
   A21        2.09855  -0.00011  -0.00017  -0.00028  -0.00045   2.09810
   A22        2.09684  -0.00009  -0.00008  -0.00024  -0.00032   2.09652
   A23        2.09450   0.00013  -0.00005   0.00066   0.00061   2.09512
   A24        2.09185  -0.00004   0.00013  -0.00042  -0.00029   2.09155
   A25        2.10882  -0.00006  -0.00062   0.00053  -0.00010   2.10872
   A26        2.08344   0.00006   0.00020   0.00001   0.00021   2.08365
   A27        2.09089   0.00000   0.00043  -0.00053  -0.00009   2.09079
   A28        2.08203  -0.00105  -0.00113  -0.00257  -0.00370   2.07833
   A29        2.09322   0.00073   0.00071   0.00219   0.00290   2.09612
   A30        2.10794   0.00033   0.00042   0.00038   0.00080   2.10873
   A31        2.07498  -0.00076  -0.00017  -0.00205  -0.00222   2.07276
   A32        2.10289   0.00017   0.00012  -0.00013  -0.00001   2.10288
   A33        2.10531   0.00059   0.00005   0.00217   0.00223   2.10754
   A34        2.05528   0.00047   0.00032   0.00197   0.00229   2.05757
   A35        2.11972  -0.00009  -0.00063   0.00027  -0.00036   2.11936
   A36        2.10818  -0.00037   0.00031  -0.00225  -0.00193   2.10625
   A37        2.15347   0.00061   0.00036   0.00188   0.00223   2.15571
   A38        2.10150  -0.00025   0.00228  -0.00332  -0.00104   2.10045
   A39        2.02821  -0.00036  -0.00264   0.00145  -0.00119   2.02702
   A40        2.08276  -0.00239  -0.00129  -0.00738  -0.00867   2.07409
    D1        3.09623   0.00002   0.00062  -0.00495  -0.00433   3.09190
    D2        0.95066   0.00006   0.00281  -0.00832  -0.00553   0.94513
    D3       -1.04066  -0.00013  -0.00344  -0.00356  -0.00701  -1.04768
    D4       -0.04577  -0.00007   0.00026  -0.00954  -0.00926  -0.05503
    D5       -2.19135  -0.00002   0.00245  -0.01291  -0.01045  -2.20180
    D6        2.10052  -0.00022  -0.00380  -0.00815  -0.01194   2.08858
    D7        3.13991  -0.00003  -0.00048  -0.00184  -0.00234   3.13757
    D8       -0.00208  -0.00004  -0.00025  -0.00213  -0.00240  -0.00447
    D9       -0.00127   0.00006  -0.00011   0.00285   0.00276   0.00149
   D10        3.13993   0.00005   0.00013   0.00256   0.00270  -3.14055
   D11       -3.13974   0.00002   0.00029   0.00164   0.00193  -3.13782
   D12        0.00143  -0.00007  -0.00008  -0.00304  -0.00313  -0.00170
   D13       -1.73593  -0.00005  -0.00391   0.00368  -0.00024  -1.73617
   D14        1.39934  -0.00017  -0.00563  -0.00201  -0.00765   1.39169
   D15        0.39404  -0.00018  -0.00640   0.00638  -0.00002   0.39402
   D16       -2.75387  -0.00030  -0.00811   0.00068  -0.00743  -2.76130
   D17        2.41465   0.00053   0.00085   0.00481   0.00567   2.42032
   D18       -0.73326   0.00041  -0.00086  -0.00089  -0.00174  -0.73501
   D19        3.12927   0.00013   0.00009   0.00361   0.00370   3.13297
   D20       -0.00709   0.00001  -0.00080  -0.00019  -0.00099  -0.00808
   D21       -0.00613   0.00025   0.00179   0.00918   0.01097   0.00484
   D22        3.14069   0.00014   0.00090   0.00538   0.00628  -3.13621
   D23       -3.13033  -0.00010   0.00047  -0.00275  -0.00227  -3.13260
   D24        0.00204  -0.00003   0.00121  -0.00062   0.00060   0.00263
   D25        0.00508  -0.00022  -0.00121  -0.00831  -0.00952  -0.00443
   D26        3.13745  -0.00015  -0.00047  -0.00618  -0.00665   3.13080
   D27        0.00319  -0.00013  -0.00106  -0.00447  -0.00553  -0.00234
   D28       -3.14075  -0.00009  -0.00062  -0.00311  -0.00374   3.13870
   D29        3.13954  -0.00001  -0.00017  -0.00066  -0.00083   3.13871
   D30       -0.00440   0.00003   0.00027   0.00070   0.00096  -0.00344
   D31        0.00093  -0.00003  -0.00028  -0.00130  -0.00158  -0.00065
   D32        3.13911   0.00005   0.00037   0.00151   0.00189   3.14100
   D33       -3.13831  -0.00007  -0.00072  -0.00266  -0.00338   3.14149
   D34       -0.00012   0.00000  -0.00007   0.00016   0.00009  -0.00004
   D35       -0.00196   0.00007   0.00085   0.00216   0.00302   0.00105
   D36        3.14149   0.00004   0.00043   0.00160   0.00203  -3.13967
   D37       -3.14015  -0.00001   0.00020  -0.00065  -0.00045  -3.14060
   D38        0.00330  -0.00004  -0.00022  -0.00121  -0.00144   0.00186
   D39       -0.00109   0.00006  -0.00010   0.00272   0.00262   0.00153
   D40       -3.13342  -0.00001  -0.00084   0.00058  -0.00026  -3.13368
[...]
 Alpha virt. eigenvalues --    2.67391   2.68858   2.69007   2.69838   2.70615
 Alpha virt. eigenvalues --    2.71693   2.74260   2.74466   2.74777   2.75351
 Alpha virt. eigenvalues --    2.76515   2.77406   2.77838   2.78220   2.79649
 Alpha virt. eigenvalues --    2.80651   2.80709   2.83350   2.85391   2.86129
 Alpha virt. eigenvalues --    2.86601   2.87982   2.88350   2.88514   2.89606
 Alpha virt. eigenvalues --    2.90061   2.92023   2.92708   2.93217   2.94647
 Alpha virt. eigenvalues --    2.95575   2.96194   2.97729   2.98975   3.00950
 Alpha virt. eigenvalues --    3.01556   3.02385   3.05585   3.06085   3.08423
 Alpha virt. eigenvalues --    3.10575   3.10773   3.12059   3.12324   3.14219
 Alpha virt. eigenvalues --    3.15842   3.17700   3.18578   3.19883   3.20785
 Alpha virt. eigenvalues --    3.21232   3.22237   3.22549   3.23514   3.23893
 Alpha virt. eigenvalues --    3.24632   3.25310   3.25948   3.27026   3.27858
 Alpha virt. eigenvalues --    3.29100   3.30650   3.31825   3.32676   3.33962
 Alpha virt. eigenvalues --    3.34965   3.36248   3.36985   3.37622   3.39062
 Alpha virt. eigenvalues --    3.40488   3.41491   3.41993   3.43287   3.43860
 Alpha virt. eigenvalues --    3.44683   3.45728   3.46954   3.48301   3.49476
 Alpha virt. eigenvalues --    3.50958   3.52302   3.52799   3.53863   3.54267
 Alpha virt. eigenvalues --    3.55128   3.57706   3.58436   3.59063   3.59881
 Alpha virt. eigenvalues --    3.61952   3.63695   3.64860   3.65527   3.68164
 Alpha virt. eigenvalues --    3.68929   3.70467   3.73242   3.74368   3.78378
 Alpha virt. eigenvalues --    3.79764   3.81318   3.84083   3.85001   3.85667
 Alpha virt. eigenvalues --    3.88910   3.89486   3.92251   3.94144   3.95324
 Alpha virt. eigenvalues --    3.96993   3.98430   3.99581   4.02099   4.04945
 Alpha virt. eigenvalues --    4.06689   4.09307   4.09565   4.11392   4.12850
 Alpha virt. eigenvalues --    4.14751   4.16493   4.20844   4.22606   4.23547
 Alpha virt. eigenvalues --    4.25409   4.27189   4.28765   4.29270   4.29868
 Alpha virt. eigenvalues --    4.30692   4.33233   4.33921   4.36900   4.39351
 Alpha virt. eigenvalues --    4.39622   4.40624   4.42818   4.44750   4.45884
 Alpha virt. eigenvalues --    4.49828   4.52257   4.54170   4.58982   4.61019
 Alpha virt. eigenvalues --    4.64827   4.69073   4.70399   4.76037   4.77082
 Alpha virt. eigenvalues --    4.79588   4.80515   4.81833   4.84158   4.85095
 Alpha virt. eigenvalues --    4.95094   4.96917   5.01708   5.02092   5.03827
 Alpha virt. eigenvalues --    5.06490   5.06845   5.12905   5.17117   5.17383
 Alpha virt. eigenvalues --    5.23427   5.27511   5.30338   5.31477   5.36409
 Alpha virt. eigenvalues --    5.41499   5.45805   5.49841   5.51569   5.53558
 Alpha virt. eigenvalues --    5.55940   5.73183   5.75235   5.82234   5.90845
 Alpha virt. eigenvalues --    6.19943  22.13449  22.42369  22.61170  22.67813
 Alpha virt. eigenvalues --   22.69757  22.71798  22.78657  22.83974  22.89496
 Alpha virt. eigenvalues --   22.99004  23.20333  23.30674  32.63787
          Condensed to atoms (all electrons):
               1          2          3          4          5          6
     1  C    4.824182   0.300948  -0.014714  -0.007001   0.000925  -0.000418
     2  C    0.300948   5.075779   0.306173  -0.067730   0.014934  -0.004676
     3  C   -0.014714   0.306173   5.042825   0.383436   0.029405  -0.099031
     4  C   -0.007001  -0.067730   0.383436   5.082237   0.420314   0.037748
     5  C    0.000925   0.014934   0.029405   0.420314   4.921174   0.443640
     6  C   -0.000418  -0.004676  -0.099031   0.037748   0.443640   4.942683
     7  C    0.002412   0.010353   0.027798  -0.088181   0.020325   0.423655
     8  C   -0.008110  -0.102326   0.376663   0.047656  -0.090630   0.045881
     9  C    0.494219  -0.063291   0.000153   0.004898  -0.001185   0.000315
    10  C   -0.022350  -0.000211   0.002080  -0.000830   0.000082  -0.000034
    11  C   -0.045270   0.000846  -0.000487   0.000048   0.000001   0.000008
    12  C   -0.083823   0.000386   0.000114  -0.000122  -0.000033   0.000016
    13  N    0.452298  -0.084312  -0.011902   0.001992  -0.000318   0.000326
    14  H   -0.039493   0.432279  -0.069078   0.004535   0.000616   0.000283
    15  H   -0.057030   0.392712  -0.017222   0.005557  -0.001384   0.000465
    16  H   -0.001993  -0.003764  -0.069087   0.439479  -0.049022   0.009850
    17  H    0.000031  -0.000193   0.013262  -0.058702   0.442803  -0.055112
    18  H    0.000002   0.000067  -0.002640   0.009789  -0.053535   0.440202
    19  H    0.000088  -0.000144   0.012690  -0.003153   0.010197  -0.056585
    20  H   -0.007065  -0.010172  -0.055871   0.013653  -0.004616   0.011044
    21  H   -0.044275   0.008126  -0.002898   0.001597   0.000037  -0.000017
    22  H    0.007003  -0.000377   0.000038  -0.000010  -0.000003   0.000001
    23  H   -0.000609   0.000165   0.000001  -0.000002   0.000000  -0.000000
    24  H    0.006756  -0.000149   0.000172   0.000001   0.000001  -0.000002
               7          8          9         10         11         12
     1  C    0.002412  -0.008110   0.494219  -0.022350  -0.045270  -0.083823
     2  C    0.010353  -0.102326  -0.063291  -0.000211   0.000846   0.000386
     3  C    0.027798   0.376663   0.000153   0.002080  -0.000487   0.000114
     4  C   -0.088181   0.047656   0.004898  -0.000830   0.000048  -0.000122
     5  C    0.020325  -0.090630  -0.001185   0.000082   0.000001  -0.000033
     6  C    0.423655   0.045881   0.000315  -0.000034   0.000008   0.000016
     7  C    4.942348   0.414685  -0.000956   0.000127  -0.000027   0.000080
     8  C    0.414685   5.133199   0.006834  -0.000530   0.000029   0.000960
     9  C   -0.000956   0.006834   4.963033   0.504485  -0.020220  -0.043646
    10  C    0.000127  -0.000530   0.504485   4.826840   0.490932  -0.003821
    11  C   -0.000027   0.000029  -0.020220   0.490932   4.937345   0.492526
    12  C    0.000080   0.000960  -0.043646  -0.003821   0.492526   4.742384
    13  N   -0.000646   0.002978  -0.051029  -0.023063  -0.057066   0.530789
    14  H   -0.000736   0.008434   0.001664   0.000580   0.000077  -0.000373
    15  H   -0.000085  -0.004311   0.010007  -0.000931   0.000456   0.001065
    16  H   -0.003740   0.014348   0.001218  -0.000146   0.000016  -0.000013
    17  H    0.011031  -0.004182  -0.000011   0.000000  -0.000000   0.000000
    18  H   -0.054194   0.009972  -0.000001   0.000000  -0.000000   0.000000
    19  H    0.442900  -0.056532   0.000007  -0.000001  -0.000002  -0.000010
    20  H   -0.050489   0.432081   0.002140  -0.000082   0.000613   0.000311
    21  H   -0.000013  -0.000666   0.414771  -0.043000   0.007380  -0.001384
    22  H   -0.000001   0.000035  -0.041381   0.428006  -0.043093   0.004459
    23  H    0.000001  -0.000009   0.006288  -0.050607   0.417878  -0.033804
    24  H   -0.000008   0.000085  -0.001824   0.005665  -0.073926   0.434653
              13         14         15         16         17         18
     1  C    0.452298  -0.039493  -0.057030  -0.001993   0.000031   0.000002
     2  C   -0.084312   0.432279   0.392712  -0.003764  -0.000193   0.000067
     3  C   -0.011902  -0.069078  -0.017222  -0.069087   0.013262  -0.002640
     4  C    0.001992   0.004535   0.005557   0.439479  -0.058702   0.009789
     5  C   -0.000318   0.000616  -0.001384  -0.049022   0.442803  -0.053535
     6  C    0.000326   0.000283   0.000465   0.009850  -0.055112   0.440202
     7  C   -0.000646  -0.000736  -0.000085  -0.003740   0.011031  -0.054194
     8  C    0.002978   0.008434  -0.004311   0.014348  -0.004182   0.009972
     9  C   -0.051029   0.001664   0.010007   0.001218  -0.000011  -0.000001
    10  C   -0.023063   0.000580  -0.000931  -0.000146   0.000000   0.000000
    11  C   -0.057066   0.000077   0.000456   0.000016  -0.000000  -0.000000
    12  C    0.530789  -0.000373   0.001065  -0.000013   0.000000   0.000000
    13  N    6.544314   0.003591   0.010350   0.000036  -0.000000   0.000000
    14  H    0.003591   0.546155  -0.020686   0.002669  -0.000068  -0.000001
    15  H    0.010350  -0.020686   0.551131   0.000874   0.000004  -0.000001
    16  H    0.000036   0.002669   0.000874   0.557354  -0.007109  -0.000160
    17  H   -0.000000  -0.000068   0.000004  -0.007109   0.548392  -0.006934
    18  H    0.000000  -0.000001  -0.000001  -0.000160  -0.006934   0.546299
    19  H   -0.000080   0.000004  -0.000017   0.000044  -0.000129  -0.006960
    20  H    0.024222   0.000433   0.003209   0.000000   0.000014  -0.000075
    21  H    0.005184  -0.001033   0.000132   0.000404  -0.000004  -0.000000
    22  H   -0.001155  -0.000007   0.000014  -0.000001  -0.000000   0.000000
    23  H    0.005867  -0.000004  -0.000013  -0.000000   0.000000  -0.000000
    24  H   -0.032603   0.000000  -0.000137  -0.000000   0.000000  -0.000000
              19         20         21         22         23         24
     1  C    0.000088  -0.007065  -0.044275   0.007003  -0.000609   0.006756
     2  C   -0.000144  -0.010172   0.008126  -0.000377   0.000165  -0.000149
     3  C    0.012690  -0.055871  -0.002898   0.000038   0.000001   0.000172
     4  C   -0.003153   0.013653   0.001597  -0.000010  -0.000002   0.000001
     5  C    0.010197  -0.004616   0.000037  -0.000003   0.000000   0.000001
     6  C   -0.056585   0.011044  -0.000017   0.000001  -0.000000  -0.000002
     7  C    0.442900  -0.050489  -0.000013  -0.000001   0.000001  -0.000008
     8  C   -0.056532   0.432081  -0.000666   0.000035  -0.000009   0.000085
     9  C    0.000007   0.002140   0.414771  -0.041381   0.006288  -0.001824
    10  C   -0.000001  -0.000082  -0.043000   0.428006  -0.050607   0.005665
    11  C   -0.000002   0.000613   0.007380  -0.043093   0.417878  -0.073926
    12  C   -0.000010   0.000311  -0.001384   0.004459  -0.033804   0.434653
    13  N   -0.000080   0.024222   0.005184  -0.001155   0.005867  -0.032603
    14  H    0.000004   0.000433  -0.001033  -0.000007  -0.000004   0.000000
    15  H   -0.000017   0.003209   0.000132   0.000014  -0.000013  -0.000137
    16  H    0.000044   0.000000   0.000404  -0.000001  -0.000000  -0.000000
    17  H   -0.000129   0.000014  -0.000004  -0.000000   0.000000   0.000000
    18  H   -0.006960  -0.000075  -0.000000   0.000000  -0.000000  -0.000000
    19  H    0.545927  -0.006736   0.000001  -0.000000   0.000000   0.000002
    20  H   -0.006736   0.505288  -0.000140   0.000007  -0.000025  -0.000544
    21  H    0.000001  -0.000140   0.535072  -0.005876  -0.000021   0.000103
    22  H   -0.000000   0.000007  -0.005876   0.525691  -0.005950  -0.000197
    23  H    0.000000  -0.000025  -0.000021  -0.005950   0.532500  -0.002147
    24  H    0.000002  -0.000544   0.000103  -0.000197  -0.002147   0.538403
 Mulliken charges:
               1
     1  C    0.243287
     2  C   -0.205424
     3  C    0.148120
     4  C   -0.227211
     5  C   -0.103727
     6  C   -0.140240
     7  C   -0.096638
     8  C   -0.226543
     9  C   -0.186488
    10  C   -0.113191
    11  C   -0.108063
    12  C   -0.040716
    13  N   -0.319776
    14  H    0.130159
    15  H    0.125840
    16  H    0.108743
    17  H    0.116906
    18  H    0.118170
    19  H    0.118487
    20  H    0.142798
    21  H    0.126521
    22  H    0.132797
    23  H    0.130492
    24  H    0.125696
 Sum of Mulliken charges =  -0.00000
 Mulliken charges with hydrogens summed into heavy atoms:
               1
     1  C    0.243287
     2  C    0.050575
     3  C    0.148120
     4  C   -0.118468
     5  C    0.013179
     6  C   -0.022070
     7  C    0.021850
     8  C   -0.083745
     9  C   -0.059968
    10  C    0.019606
    11  C    0.022429
    12  C    0.084980
    13  N   -0.319776
 Electronic spatial extent (au):  <R**2>=           2689.1990
 Charge=              0.0000 electrons
 Dipole moment (field-independent basis, Debye):
    X=             -0.9688    Y=             -1.2482    Z=             -1.1448  Tot=              1.9512
 Quadrupole moment (field-independent basis, Debye-Ang):
   XX=            -69.1074   YY=            -69.6166   ZZ=            -77.9331
   XY=             -0.1905   XZ=              2.0534   YZ=             -1.0067
 Traceless Quadrupole moment (field-independent basis, Debye-Ang):
   XX=              3.1117   YY=              2.6024   ZZ=             -5.7141
   XY=             -0.1905   XZ=              2.0534   YZ=             -1.0067
 Octapole moment (field-independent basis, Debye-Ang**2):
  XXX=            -19.1343  YYY=             -0.8699  ZZZ=              2.8367  XYY=             -0.1631
  XXY=              6.0180  XXZ=            -35.3927  XZZ=             -5.5442  YZZ=             -3.8524
  YYZ=             -4.3448  XYZ=             -3.9407
 Hexadecapole moment (field-independent basis, Debye-Ang**3):
 XXXX=          -2685.5921 YYYY=           -531.0404 ZZZZ=           -356.8196 XXXY=            -45.8040
 XXXZ=             -1.0167 YYYX=             -7.1825 YYYZ=             -0.6065 ZZZX=              9.7704
 ZZZY=              1.4953 XXYY=           -517.6116 XXZZ=           -523.1175 YYZZ=           -157.6397
 XXYZ=              2.9933 YYXZ=              1.7880 ZZXY=             10.8735
 N-N= 6.986278223066D+02 E-N=-2.601012037933D+03  KE= 5.157546389432D+02
 Breneman (CHELPG) radii used.
 Read replacement radii for each type of atom:
 Atom Element Radius
    1     6    1.50
    2     6    1.50
    3     6    1.50
    4     6    1.50
    5     6    1.50
    6     6    1.50
    7     6    1.50
    8     6    1.50
    9     6    1.50
   10     6    1.50
   11     6    1.50
   12     6    1.50
   13     7    1.70
   14     1    1.45
   15     1    1.45
   16     1    1.45
   17     1    1.45
   18     1    1.45
   19     1    1.45
   20     1    1.45
   21     1    1.45
   22     1    1.45
   23     1    1.45
   24     1    1.45
 Generate Potential Derived Charges using the Breneman model, NDens= 1.
 Grid spacing= 0.300 Box extension= 2.800
 NStep X,Y,Z=   50     36     34   Total possible points=       61200
 Number of Points to Fit=   15854

 **********************************************************************

            Electrostatic Properties Using The SCF Density.

 **********************************************************************

       Atomic Center    1 is at  -1.273171 -0.322276  0.602538
       Atomic Center    2 is at  -0.015282 -0.640935  1.378616
       Atomic Center    3 is at   1.236036 -0.251985  0.615864
       Atomic Center    4 is at   2.150631 -1.217356  0.187109
       Atomic Center    5 is at   3.292123 -0.852156 -0.527922
       Atomic Center    6 is at   3.530742  0.487444 -0.825037
       Atomic Center    7 is at   2.621285  1.459001 -0.403565
       Atomic Center    8 is at   1.483502  1.092424  0.309872
       Atomic Center    9 is at  -1.838013 -1.257067 -0.273667
       Atomic Center   10 is at  -2.970398 -0.904541 -0.999278
       Atomic Center   11 is at  -3.503835  0.371380 -0.830833
       Atomic Center   12 is at  -2.869698  1.232677  0.061822
       Atomic Center   13 is at  -1.787189  0.899716  0.761452
       Atomic Center   14 is at   0.016890 -1.714109  1.616468
       Atomic Center   15 is at  -0.058446 -0.086426  2.327444
       Atomic Center   16 is at   1.970994 -2.271095  0.418350
       Atomic Center   17 is at   3.997553 -1.620246 -0.853265
       Atomic Center   18 is at   4.423641  0.775902 -1.384078
       Atomic Center   19 is at   2.800946  2.511838 -0.633250
       Atomic Center   20 is at   0.762882  1.848804  0.631209
       Atomic Center   21 is at  -1.386785 -2.245578 -0.382416
       Atomic Center   22 is at  -3.431225 -1.616040 -1.688347
       Atomic Center   23 is at  -4.391432  0.694762 -1.377136
       Atomic Center   24 is at  -3.258233  2.244511  0.221746
   15854 points will be used for fitting atomic charges
 Fitting point charges to electrostatic potential
 Charges from ESP fit, RMS=   0.00409 RRMS=   0.35347:
 ESP charges:
               1
     1  C    0.618612
     2  C   -0.377654
     3  C    0.264361
     4  C   -0.225530
     5  C   -0.065597
     6  C   -0.130257
     7  C   -0.059173
     8  C   -0.206630
     9  C   -0.447636
    10  C    0.171266
    11  C   -0.350510
    12  C    0.347240
    13  N   -0.611297
    14  H    0.101967
    15  H    0.094745
    16  H    0.112649
    17  H    0.089156
    18  H    0.093997
    19  H    0.089683
    20  H    0.118843
    21  H    0.148988
    22  H    0.065766
    23  H    0.127561
    24  H    0.029448
 Sum of ESP charges =  -0.00000
 ESP charges with hydrogens summed into heavy atoms:
               1
     1  C    0.618612
     2  C   -0.180942
     3  C    0.264361
     4  C   -0.112881
     5  C    0.023559
     6  C   -0.036259
     7  C    0.030510
     8  C   -0.087786
     9  C   -0.298647
    10  C    0.237033
    11  C   -0.222949
    12  C    0.376689
    13  N   -0.611297
 Charge=  -0.00000 Dipole=    -0.9391    -1.2721    -1.0539 Tot=     1.9002
 -----------------------------------------------------------------

              Electrostatic Properties (Atomic Units)

 -----------------------------------------------------------------
    Center     Electric         -------- Electric Field --------
               Potential          X             Y             Z
 -----------------------------------------------------------------
    1 Atom    -14.726548
    2 Atom    -14.761224
    3 Atom    -14.760942
    4 Atom    -14.772698
    5 Atom    -14.771844
    6 Atom    -14.773678
    7 Atom    -14.773075
    8 Atom    -14.777558
    9 Atom    -14.761191
   10 Atom    -14.749266
   11 Atom    -14.761294
   12 Atom    -14.735509
   13 Atom    -18.401513
   14 Atom     -1.112451
   15 Atom     -1.115339
   16 Atom     -1.108241
   17 Atom     -1.109740
   18 Atom     -1.111064
   19 Atom     -1.112115
   20 Atom     -1.116168
   21 Atom     -1.094271
   22 Atom     -1.090536
   23 Atom     -1.093863
   24 Atom     -1.105591
 -----------------------------------------------------------------
 Unable to Open any file for archive entry.
 1\1\GINC-NOTCH074\SP\RwB97XD\def2TZVP\C12H11N1\U1112142\19-Dec-2025\0\
 \#N Guess=Read Geom=Check Integral(Ultrafine) Density Pop=(ChelpG,Read
 Radii) NMR wB97XD def2TZVP\\Py6_7\\0,1\C,0,-1.252131446,0.6877815177,-
 0.4888860574\C,0,0.0565501232,1.3972531629,-0.7536993095\C,0,1.2463586
 658,0.594434852,-0.2651219673\C,0,2.0604337139,1.0647607311,0.76848011
 08\C,0,3.1444955567,0.3122998709,1.2226360165\C,0,3.4255595497,-0.9245
 18651,0.6472871453\C,0,2.6162138707,-1.4043153951,-0.3839400809\C,0,1.
 5356064093,-0.6518414282,-0.8355934386\C,0,-1.9503683214,0.8828092398,
 0.7090474515\C,0,-3.1275416155,0.1759879458,0.927565235\C,0,-3.5714566
 738,-0.7064605951,-0.0548439816\C,0,-2.8067590958,-0.8350742227,-1.212
 2084019\N,0,-1.6806285846,-0.1588144479,-1.428246882\H,0,0.0532908457,
 2.3838232633,-0.2679223354\H,0,0.1369974205,1.5560801954,-1.8390200032
 \H,0,1.8471151403,2.0359596989,1.2238638938\H,0,3.7716373323,0.6967695
 782,2.0302984055\H,0,4.2737146719,-1.5151219561,1.0005930634\H,0,2.829
 6592658,-2.3738401458,-0.8399672745\H,0,0.8923385377,-1.0293722806,-1.
 6345537848\H,0,-1.5666025756,1.5793341244,1.4574887863\H,0,-3.69187865
 09,0.3111899764,1.8531201355\H,0,-4.4893888287,-1.2832796439,0.0697808
 836\H,0,-3.1219353116,-1.5190953904,-2.00789761\\Version=ES64L-G16RevC
 .01\State=1-A\HF=-518.6546141\RMSD=3.635e-09\Dipole=-0.4497132,0.11020
 3,0.6123164\Quadrupole=2.5234382,0.2220441,-2.7454824,0.6998605,-0.484
 1988,2.9632906\PG=C01 [X(C12H11N1)]\\@
 The archive entry for this job was punched.


 BLACK HOLES SUCK.
 Job cpu time:       0 days  1 hours  2 minutes 51.1 seconds.
 Elapsed time:       0 days  0 hours  4 minutes  7.9 seconds.
 File lengths (MBytes):  RWF=    141 Int=      0 D2E=      0 Chk=     21 Scr=      2
 Normal termination of Gaussian 16 at Fri Dec 19 04:55:49 2025.
