 Entering Gaussian System, Link 0=g16
 Input=Py6_5.com
 Output=Py6_5.log
 Initial command:
 /uufs/chpc.utah.edu/sys/installdir/gaussian16/C01/AVX/g16/l1.exe "/scratch/general/vast/u1112142/9381409-notchpeak.peaks/Gau-139249.inp" -scrdir="/scratch/general/vast/u1112142/9381409-notchpeak.peaks/"
 Entering Link 1 = /uufs/chpc.utah.edu/sys/installdir/gaussian16/C01/AVX/g16/l1.exe PID=    139250.
  
 Copyright (c) 1988-2019, Gaussian, Inc.  All Rights Reserved.
  
 This is part of the Gaussian(R) 16 program.  It is based on
 the Gaussian(R) 09 system (copyright 2009, Gaussian, Inc.),
 the Gaussian(R) 03 system (copyright 2003, Gaussian, Inc.),
 the Gaussian(R) 98 system (copyright 1998, Gaussian, Inc.),
 the Gaussian(R) 94 system (copyright 1995, Gaussian, Inc.),
 the Gaussian 92(TM) system (copyright 1992, Gaussian, Inc.),
 the Gaussian 90(TM) system (copyright 1990, Gaussian, Inc.),
 the Gaussian 88(TM) system (copyright 1988, Gaussian, Inc.),
 the Gaussian 86(TM) system (copyright 1986, Carnegie Mellon
 University), and the Gaussian 82(TM) system (copyright 1983,
 Carnegie Mellon University). Gaussian is a federally registered
 trademark of Gaussian, Inc.
  
 This software contains proprietary and confidential information,
 including trade secrets, belonging to Gaussian, Inc.
  
 This software is provided under written license and may be
 used, copied, transmitted, or stored only in accord with that
 written license.
  
 The following legend is applicable only to US Government
 contracts under FAR:
  
                    RESTRICTED RIGHTS LEGEND
  
 Use, reproduction and disclosure by the US Government is
 subject to restrictions as set forth in subparagraphs (a)
 and (c) of the Commercial Computer Software - Restricted
 Rights clause in FAR 52.227-19.
  
 Gaussian, Inc.
 340 Quinnipiac St., Bldg. 40, Wallingford CT 06492
  
  
 ---------------------------------------------------------------
 Warning -- This program may not be used in any manner that
 competes with the business of Gaussian, Inc. or will provide
 assistance to any competitor of Gaussian, Inc.  The licensee
 of this program is prohibited from giving any competitor of
 Gaussian, Inc. access to this program.  By using this program,
 the user acknowledges that Gaussian, Inc. is engaged in the
 business of creating and licensing software in the field of
 computational chemistry and represents and warrants to the
 licensee that it is not a competitor of Gaussian, Inc. and that
 it will not use this program in any manner prohibited above.
 ---------------------------------------------------------------
  

 Cite this work as:
 Gaussian 16, Revision C.01,
 M. J. Frisch, G. W. Trucks, H. B. Schlegel, G. E. Scuseria, 
 M. A. Robb, J. R. Cheeseman, G. Scalmani, V. Barone, 
 G. A. Petersson, H. Nakatsuji, X. Li, M. Caricato, A. V. Marenich, 
 J. Bloino, B. G. Janesko, R. Gomperts, B. Mennucci, H. P. Hratchian, 
 J. V. Ortiz, A. F. Izmaylov, J. L. Sonnenberg, D. Williams-Young, 
 F. Ding, F. Lipparini, F. Egidi, J. Goings, B. Peng, A. Petrone, 
 T. Henderson, D. Ranasinghe, V. G. Zakrzewski, J. Gao, N. Rega, 
 G. Zheng, W. Liang, M. Hada, M. Ehara, K. Toyota, R. Fukuda, 
 J. Hasegawa, M. Ishida, T. Nakajima, Y. Honda, O. Kitao, H. Nakai, 
 T. Vreven, K. Throssell, J. A. Montgomery, Jr., J. E. Peralta, 
 F. Ogliaro, M. J. Bearpark, J. J. Heyd, E. N. Brothers, K. N. Kudin, 
 V. N. Staroverov, T. A. Keith, R. Kobayashi, J. Normand, 
 K. Raghavachari, A. P. Rendell, J. C. Burant, S. S. Iyengar, 
 J. Tomasi, M. Cossi, J. M. Millam, M. Klene, C. Adamo, R. Cammi, 
 J. W. Ochterski, R. L. Martin, K. Morokuma, O. Farkas, 
 J. B. Foresman, and D. J. Fox, Gaussian, Inc., Wallingford CT, 2019.
 
 ******************************************
 Gaussian 16:  ES64L-G16RevC.01  3-Jul-2019
                19-Dec-2025 
 ******************************************
 %NProcShared=16
 Will use up to   16 processors via shared memory.
 %Mem=40GB
 %chk=Py6_5.chk
 ------------------------------------------------------
 #N OPT FREQ=NORAMAN Integral(Ultrafine) wB97XD def2SVP
 ------------------------------------------------------
 1/18=20,19=15,26=4,38=1/1,3;
 2/9=110,12=2,17=6,18=5,40=1/2;
 3/5=43,7=101,11=2,25=1,30=1,71=1,74=-58,75=-5/1,2,3;
 4//1;
 5/5=2,38=5/2;
 6/7=2,8=2,9=2,10=2,28=1/1;
 7//1,2,3,16;
 1/18=20,19=15,26=4/3(2);
 2/9=110/2;
 99//99;
 2/9=110/2;
 3/5=43,7=101,11=2,25=1,30=1,71=1,74=-58,75=-5/1,2,3;
 4/5=5,16=3,69=1/1;
 5/5=2,38=5/2;
 7//1,2,3,16;
 1/18=20,19=15,26=4/3(-5);
 2/9=110/2;
 6/7=2,8=2,9=2,10=2,19=2,28=1/1;
 99/9=1/99;
 -----
 Py6_5
 -----
 Symbolic Z-matrix:
 Charge =  0 Multiplicity = 1
 C                    -1.29142   0.00943   0.59743 
 C                    -0.05727  -0.29325   1.39382 
 C                     1.22259  -0.23243   0.5907 
 C                     1.27876   0.2823   -0.69615 
 C                     2.47909   0.32513  -1.38608 
 C                     3.63979  -0.14473  -0.79911 
 C                     3.59387  -0.66095   0.48525 
 C                     2.39518  -0.70381   1.17183 
 C                    -1.70092   1.31997   0.35814 
 C                    -2.84063   1.53636  -0.39584 
 C                    -3.53651   0.44111  -0.88498 
 C                    -3.05102  -0.8223   -0.58786 
 N                    -1.96342  -1.03419   0.131 
 H                    -0.15737  -1.2989    1.80772 
 H                     0.02329   0.41435   2.22503 
 H                     0.38079   0.64905  -1.17149 
 H                     2.50449   0.72763  -2.38844 
 H                     4.57476  -0.11172  -1.33872 
 H                     4.49447  -1.03306   0.95186 
 H                     2.36424  -1.10965   2.17334 
 H                    -1.13199   2.1473    0.75601 
 H                    -3.18237   2.54162  -0.59869 
 H                    -4.43034   0.56485  -1.47634 
 H                    -3.55565  -1.71338  -0.93919 
 

 GradGradGradGradGradGradGradGradGradGradGradGradGradGradGradGradGradGrad
 Berny optimization.
 Initialization pass.
                           ----------------------------
                           !    Initial Parameters    !
                           ! (Angstroms and Degrees)  !
 --------------------------                            --------------------------
 ! Name  Definition              Value          Derivative Info.                !
 --------------------------------------------------------------------------------
 ! R1    R(1,2)                  1.4997         estimate D2E/DX2                !
 ! R2    R(1,9)                  1.3937         estimate D2E/DX2                !
 ! R3    R(1,13)                 1.326          estimate D2E/DX2                !
 ! R4    R(2,3)                  1.5122         estimate D2E/DX2                !
 ! R5    R(2,14)                 1.0921         estimate D2E/DX2                !
 ! R6    R(2,15)                 1.0946         estimate D2E/DX2                !
 ! R7    R(3,4)                  1.3871         estimate D2E/DX2                !
 ! R8    R(3,8)                  1.391          estimate D2E/DX2                !
 ! R9    R(4,5)                  1.3851         estimate D2E/DX2                !
 ! R10   R(4,16)                 1.0802         estimate D2E/DX2                !
 ! R11   R(5,6)                  1.3829         estimate D2E/DX2                !
 ! R12   R(5,17)                 1.0805         estimate D2E/DX2                !
 ! R13   R(6,7)                  1.385          estimate D2E/DX2                !
 ! R14   R(6,18)                 1.08           estimate D2E/DX2                !
 ! R15   R(7,8)                  1.3821         estimate D2E/DX2                !
 ! R16   R(7,19)                 1.0804         estimate D2E/DX2                !
 ! R17   R(8,20)                 1.0811         estimate D2E/DX2                !
 ! R18   R(9,10)                 1.3836         estimate D2E/DX2                !
 ! R19   R(9,21)                 1.08           estimate D2E/DX2                !
 ! R20   R(10,11)                1.3868         estimate D2E/DX2                !
 ! R21   R(10,22)                1.081          estimate D2E/DX2                !
 ! R22   R(11,12)                1.3857         estimate D2E/DX2                !
 ! R23   R(11,23)                1.0789         estimate D2E/DX2                !
 ! R24   R(12,13)                1.3208         estimate D2E/DX2                !
 ! R25   R(12,24)                1.0826         estimate D2E/DX2                !
 ! A1    A(2,1,9)              121.5176         estimate D2E/DX2                !
 ! A2    A(2,1,13)             116.424          estimate D2E/DX2                !
 ! A3    A(9,1,13)             122.0576         estimate D2E/DX2                !
 ! A4    A(1,2,3)              113.9763         estimate D2E/DX2                !
 ! A5    A(1,2,14)             108.1612         estimate D2E/DX2                !
 ! A6    A(1,2,15)             109.4731         estimate D2E/DX2                !
 ! A7    A(3,2,14)             108.4149         estimate D2E/DX2                !
 ! A8    A(3,2,15)             108.3618         estimate D2E/DX2                !
 ! A9    A(14,2,15)            108.3144         estimate D2E/DX2                !
 ! A10   A(2,3,4)              122.8133         estimate D2E/DX2                !
 ! A11   A(2,3,8)              118.552          estimate D2E/DX2                !
 ! A12   A(4,3,8)              118.6329         estimate D2E/DX2                !
 ! A13   A(3,4,5)              120.5742         estimate D2E/DX2                !
 ! A14   A(3,4,16)             120.0379         estimate D2E/DX2                !
 ! A15   A(5,4,16)             119.3869         estimate D2E/DX2                !
 ! A16   A(4,5,6)              120.3579         estimate D2E/DX2                !
 ! A17   A(4,5,17)             119.6026         estimate D2E/DX2                !
 ! A18   A(6,5,17)             120.0395         estimate D2E/DX2                !
 ! A19   A(5,6,7)              119.499          estimate D2E/DX2                !
 ! A20   A(5,6,18)             120.2739         estimate D2E/DX2                !
 ! A21   A(7,6,18)             120.227          estimate D2E/DX2                !
 ! A22   A(6,7,8)              120.0665         estimate D2E/DX2                !
 ! A23   A(6,7,19)             120.0823         estimate D2E/DX2                !
 ! A24   A(8,7,19)             119.8511         estimate D2E/DX2                !
 ! A25   A(3,8,7)              120.8695         estimate D2E/DX2                !
 ! A26   A(3,8,20)             119.3491         estimate D2E/DX2                !
 ! A27   A(7,8,20)             119.7813         estimate D2E/DX2                !
 ! A28   A(1,9,10)             118.8594         estimate D2E/DX2                !
 ! A29   A(1,9,21)             120.1512         estimate D2E/DX2                !
 ! A30   A(10,9,21)            120.9893         estimate D2E/DX2                !
 ! A31   A(9,10,11)            118.8198         estimate D2E/DX2                !
 ! A32   A(9,10,22)            120.5397         estimate D2E/DX2                !
 ! A33   A(11,10,22)           120.6405         estimate D2E/DX2                !
 ! A34   A(10,11,12)           117.9467         estimate D2E/DX2                !
 ! A35   A(10,11,23)           121.2314         estimate D2E/DX2                !
 ! A36   A(12,11,23)           120.8216         estimate D2E/DX2                !
 ! A37   A(11,12,13)           123.4672         estimate D2E/DX2                !
 ! A38   A(11,12,24)           121.1671         estimate D2E/DX2                !
 ! A39   A(13,12,24)           115.3655         estimate D2E/DX2                !
 ! A40   A(1,13,12)            118.8482         estimate D2E/DX2                !
 ! D1    D(9,1,2,3)            -83.1608         estimate D2E/DX2                !
 ! D2    D(9,1,2,14)           156.1927         estimate D2E/DX2                !
 ! D3    D(9,1,2,15)            38.3686         estimate D2E/DX2                !
 ! D4    D(13,1,2,3)            96.521          estimate D2E/DX2                !
 ! D5    D(13,1,2,14)          -24.1255         estimate D2E/DX2                !
 ! D6    D(13,1,2,15)         -141.9496         estimate D2E/DX2                !
 ! D7    D(2,1,9,10)           179.3171         estimate D2E/DX2                !
 ! D8    D(2,1,9,21)            -0.5555         estimate D2E/DX2                !
 ! D9    D(13,1,9,10)           -0.3466         estimate D2E/DX2                !
 ! D10   D(13,1,9,21)          179.7808         estimate D2E/DX2                !
 ! D11   D(2,1,13,12)         -179.355          estimate D2E/DX2                !
 ! D12   D(9,1,13,12)            0.3249         estimate D2E/DX2                !
 ! D13   D(1,2,3,4)             10.7522         estimate D2E/DX2                !
 ! D14   D(1,2,3,8)           -169.7459         estimate D2E/DX2                !
 ! D15   D(14,2,3,4)           131.2568         estimate D2E/DX2                !
 ! D16   D(14,2,3,8)           -49.2412         estimate D2E/DX2                !
 ! D17   D(15,2,3,4)          -111.3906         estimate D2E/DX2                !
 ! D18   D(15,2,3,8)            68.1114         estimate D2E/DX2                !
 ! D19   D(2,3,4,5)            179.4901         estimate D2E/DX2                !
 ! D20   D(2,3,4,16)            -0.8677         estimate D2E/DX2                !
 ! D21   D(8,3,4,5)             -0.0115         estimate D2E/DX2                !
 ! D22   D(8,3,4,16)           179.6307         estimate D2E/DX2                !
 ! D23   D(2,3,8,7)           -179.4644         estimate D2E/DX2                !
 ! D24   D(2,3,8,20)             0.6261         estimate D2E/DX2                !
 ! D25   D(4,3,8,7)              0.0587         estimate D2E/DX2                !
 ! D26   D(4,3,8,20)          -179.8508         estimate D2E/DX2                !
 ! D27   D(3,4,5,6)             -0.0555         estimate D2E/DX2                !
 ! D28   D(3,4,5,17)           179.8838         estimate D2E/DX2                !
 ! D29   D(16,4,5,6)          -179.7            estimate D2E/DX2                !
 ! D30   D(16,4,5,17)            0.2393         estimate D2E/DX2                !
 ! D31   D(4,5,6,7)              0.0752         estimate D2E/DX2                !
 ! D32   D(4,5,6,18)           179.9301         estimate D2E/DX2                !
 ! D33   D(17,5,6,7)          -179.8638         estimate D2E/DX2                !
 ! D34   D(17,5,6,18)           -0.009          estimate D2E/DX2                !
 ! D35   D(5,6,7,8)             -0.0283         estimate D2E/DX2                !
 ! D36   D(5,6,7,19)           179.8343         estimate D2E/DX2                !
 ! D37   D(18,6,7,8)          -179.8832         estimate D2E/DX2                !
 ! D38   D(18,6,7,19)           -0.0206         estimate D2E/DX2                !
 ! D39   D(6,7,8,3)             -0.0391         estimate D2E/DX2                !
 ! D40   D(6,7,8,20)           179.87           estimate D2E/DX2                !
 ! D41   D(19,7,8,3)          -179.902          estimate D2E/DX2                !
 ! D42   D(19,7,8,20)            0.0071         estimate D2E/DX2                !
 ! D43   D(1,9,10,11)            0.1059         estimate D2E/DX2                !
 ! D44   D(1,9,10,22)         -179.9546         estimate D2E/DX2                !
 ! D45   D(21,9,10,11)         179.9774         estimate D2E/DX2                !
 ! D46   D(21,9,10,22)          -0.0831         estimate D2E/DX2                !
 ! D47   D(9,10,11,12)           0.1326         estimate D2E/DX2                !
 ! D48   D(9,10,11,23)         179.9465         estimate D2E/DX2                !
 ! D49   D(22,10,11,12)       -179.8069         estimate D2E/DX2                !
 ! D50   D(22,10,11,23)          0.0071         estimate D2E/DX2                !
 ! D51   D(10,11,12,13)         -0.162          estimate D2E/DX2                !
 ! D52   D(10,11,12,24)        179.7179         estimate D2E/DX2                !
 ! D53   D(23,11,12,13)       -179.9768         estimate D2E/DX2                !
 ! D54   D(23,11,12,24)         -0.0968         estimate D2E/DX2                !
 ! D55   D(11,12,13,1)          -0.0666         estimate D2E/DX2                !
 ! D56   D(24,12,13,1)        -179.9529         estimate D2E/DX2                !
 --------------------------------------------------------------------------------
 Trust Radius=3.00D-01 FncErr=1.00D-07 GrdErr=1.00D-06 EigMax=2.50D+02 EigMin=1.00D-04
 Number of steps in this run=    131 maximum allowed number of steps=    144.
 GradGradGradGradGradGradGradGradGradGradGradGradGradGradGradGradGradGrad

                          Input orientation:                          
 ---------------------------------------------------------------------
 Center     Atomic      Atomic             Coordinates (Angstroms)
 Number     Number       Type             X           Y           Z
 ---------------------------------------------------------------------
      1          6           0       -1.291420    0.009430    0.597430
      2          6           0       -0.057270   -0.293250    1.393820
      3          6           0        1.222590   -0.232430    0.590700
      4          6           0        1.278760    0.282300   -0.696150
      5          6           0        2.479090    0.325130   -1.386080
      6          6           0        3.639790   -0.144730   -0.799110
      7          6           0        3.593870   -0.660950    0.485250
      8          6           0        2.395180   -0.703810    1.171830
      9          6           0       -1.700920    1.319970    0.358140
     10          6           0       -2.840630    1.536360   -0.395840
     11          6           0       -3.536510    0.441110   -0.884980
     12          6           0       -3.051020   -0.822300   -0.587860
     13          7           0       -1.963420   -1.034190    0.131000
     14          1           0       -0.157370   -1.298900    1.807720
     15          1           0        0.023290    0.414350    2.225030
     16          1           0        0.380790    0.649050   -1.171490
     17          1           0        2.504490    0.727630   -2.388440
     18          1           0        4.574760   -0.111720   -1.338720
     19          1           0        4.494470   -1.033060    0.951860
     20          1           0        2.364240   -1.109650    2.173340
     21          1           0       -1.131990    2.147300    0.756010
     22          1           0       -3.182370    2.541620   -0.598690
     23          1           0       -4.430340    0.564850   -1.476340
     24          1           0       -3.555650   -1.713380   -0.939190
 ---------------------------------------------------------------------
                    Distance matrix (angstroms):
                    1          2          3          4          5
     1  C    0.000000
     2  C    1.499659   0.000000
     3  C    2.525626   1.512198   0.000000
     4  C    2.890265   2.546411   1.387114   0.000000
     5  C    4.272087   3.813576   2.407763   1.385146   0.000000
     6  C    5.127467   4.301076   2.789645   2.401545   1.382941
     7  C    4.932348   3.780413   2.411995   2.764988   2.391017
     8  C    3.798640   2.496468   1.390999   2.389175   2.758380
     9  C    1.393723   2.525212   3.318274   3.326677   4.637294
    10  C    2.391266   3.781197   4.540004   4.316506   5.545004
    11  C    2.724760   4.223426   5.027954   4.821587   6.037549
    12  C    2.278789   3.628979   4.472213   4.469772   5.704022
    13  N    1.326003   2.403563   3.317349   3.595699   4.887246
    14  H    2.112486   1.092092   2.126684   3.291205   4.448455
    15  H    2.131081   1.094577   2.127834   3.182285   4.367955
    16  H    2.516839   2.767786   2.142650   1.080187   2.133972
    17  H    4.882639   4.680844   3.382345   2.136487   1.080452
    18  H    6.178626   5.381025   3.869661   3.381089   2.141241
    19  H    5.889731   4.632600   3.387720   3.845374   3.372299
    20  H    4.135176   2.671679   2.139539   3.368941   3.839434
    21  H    2.149664   2.741917   3.351789   3.376197   4.576981
    22  H    3.379110   4.666137   5.339820   5.001570   6.130656
    23  H    3.802872   5.300745   6.071567   5.769086   6.914176
    24  H    3.233576   4.438284   5.231190   5.235774   6.385399
                    6          7          8          9         10
     6  C    0.000000
     7  C    1.384981   0.000000
     8  C    2.397129   1.382059   0.000000
     9  C    5.657540   5.654644   4.640669   0.000000
    10  C    6.707051   6.856186   5.906747   1.383564   0.000000
    11  C    7.200685   7.344003   6.381713   2.384771   1.386751
    12  C    6.728348   6.732916   5.724652   2.703148   2.375797
    13  N    5.749105   5.581064   4.493314   2.379615   2.766728
    14  H    4.748273   4.028363   2.697035   3.367834   4.482662
    15  H    4.747322   4.114869   2.825840   2.697837   4.041028
    16  H    3.374883   3.845097   3.373299   2.668973   3.430233
    17  H    2.139133   3.372387   3.838814   5.057672   5.761493
    18  H    1.080017   2.142584   3.376981   6.656818   7.654619
    19  H    2.141379   1.080403   2.136308   6.653729   7.888086
    20  H    3.375434   2.136111   1.081058   5.071837   6.379085
    21  H    5.517398   5.503938   4.554411   1.080026   2.149292
    22  H    7.334747   7.572900   6.691534   2.145378   1.080963
    23  H    8.129523   8.350950   7.430345   3.374205   2.153715
    24  H    7.365775   7.365614   6.394374   3.784746   3.371542
                   11         12         13         14         15
    11  C    0.000000
    12  C    1.385708   0.000000
    13  N    2.383975   1.320807   0.000000
    14  H    4.657988   3.786709   2.478564   0.000000
    15  H    4.727056   4.346612   3.229589   1.772572   0.000000
    16  H    3.933264   3.779261   3.166243   3.599975   3.423337
    17  H    6.231867   6.042190   5.423450   5.366571   5.247724
    18  H    8.142739   7.695533   6.764527   5.805388   5.804562
    19  H    8.369217   7.703868   6.509851   4.737381   4.869025
    20  H    6.824737   6.085379   4.785968   2.554997   2.793796
    21  H    3.374263   3.782484   3.347207   3.732596   2.548687
    22  H    2.149307   3.366501   3.847688   5.448947   4.772308
    23  H    1.078865   2.148512   3.350547   5.702358   5.792893
    24  H    2.155257   1.082639   2.035142   4.389261   5.229564
                   16         17         18         19         20
    16  H    0.000000
    17  H    2.448927   0.000000
    18  H    4.265691   2.468287   0.000000
    19  H    4.925492   4.268214   2.470237   0.000000
    20  H    4.267902   4.919868   4.268118   2.456778   0.000000
    21  H    2.872022   5.012685   6.485219   6.466073   4.983992
    22  H    4.075050   6.231705   8.231702   8.609089   7.195888
    23  H    4.821514   6.996448   9.031529   9.386251   7.892429
    24  H    4.596803   6.692096   8.296295   8.297189   6.715462
                   21         22         23         24
    21  H    0.000000
    22  H    2.488927   0.000000
    23  H    4.285633   2.497062   0.000000
    24  H    4.863402   4.284892   2.498789   0.000000
 Stoichiometry    C12H11N
 Framework group  C1[X(C12H11N)]
 Deg. of freedom    66
 Full point group                 C1      NOp   1
 Largest Abelian subgroup         C1      NOp   1
 Largest concise Abelian subgroup C1      NOp   1
                         Standard orientation:                         
 ---------------------------------------------------------------------
 Center     Atomic      Atomic             Coordinates (Angstroms)
 Number     Number       Type             X           Y           Z
 ---------------------------------------------------------------------
      1          6           0       -1.265119   -0.633713    0.222120
      2          6           0        0.029917   -1.352200    0.457993
      3          6           0        1.257305   -0.513892    0.179602
      4          6           0        1.198636    0.853955   -0.043192
      5          6           0        2.354209    1.578835   -0.283671
      6          6           0        3.584201    0.946975   -0.303660
      7          6           0        3.653093   -0.418536   -0.082743
      8          6           0        2.498996   -1.140414    0.156086
      9          6           0       -1.821643    0.201410    1.189237
     10          6           0       -3.011768    0.848510    0.907966
     11          6           0       -3.609960    0.641338   -0.325859
     12          6           0       -2.980243   -0.211949   -1.217791
     13          7           0       -1.843993   -0.831666   -0.954317
     14          1           0        0.056155   -2.228974   -0.192579
     15          1           0        0.073869   -1.693476    1.497077
     16          1           0        0.245725    1.362592   -0.035943
     17          1           0        2.290115    2.643350   -0.457098
     18          1           0        4.484243    1.513308   -0.492416
     19          1           0        4.608776   -0.922203   -0.098907
     20          1           0        2.557900   -2.206432    0.325855
     21          1           0       -1.325470    0.337740    2.138808
     22          1           0       -3.466999    1.502980    1.637978
     23          1           0       -4.538469    1.125393   -0.585690
     24          1           0       -3.403634   -0.414532   -2.193398
 ---------------------------------------------------------------------
 Rotational constants (GHZ):           2.1969235           0.4393130           0.4140957
 Standard basis: def2SVP (5D, 7F)
 There are   250 symmetry adapted cartesian basis functions of A   symmetry.
 There are   237 symmetry adapted basis functions of A   symmetry.
   237 basis functions,   402 primitive gaussians,   250 cartesian basis functions
    45 alpha electrons       45 beta electrons
       nuclear repulsion energy       701.9446398175 Hartrees.
 NAtoms=   24 NActive=   24 NUniq=   24 SFac= 1.00D+00 NAtFMM=   60 NAOKFM=F Big=F
 Integral buffers will be    131072 words long.
 Raffenetti 2 integral format.
 Two-electron integral symmetry is turned on.
 Nuclear repulsion after empirical dispersion term =      701.9306050041 Hartrees.
 One-electron integrals computed using PRISM.
   1 Symmetry operations used in ECPInt.
 ECPInt:  NShTT=    6216 NPrTT=   22568 LenC2=    5937 LenP2D=   16113.
 LDataN:  DoStor=T MaxTD1= 4 Len=   56
 NBasis=   237 RedAO= T EigKep=  2.73D-04  NBF=   237
 NBsUse=   237 1.00D-06 EigRej= -1.00D+00 NBFU=   237
 ExpMin= 1.22D-01 ExpMax= 1.71D+03 ExpMxC= 2.58D+02 IAcc=3 IRadAn=         5 AccDes= 0.00D+00
 Harris functional with IExCor= 4639 and IRadAn=       5 diagonalized for initial guess.
 HarFok:  IExCor= 4639 AccDes= 0.00D+00 IRadAn=         5 IDoV= 1 UseB2=F ITyADJ=14
 ICtDFT=  3500011 ScaDFX=  1.000000  1.000000  1.000000  1.000000
 FoFCou: FMM=F IPFlag=           0 FMFlag=      100000 FMFlg1=           0
         NFxFlg=           0 DoJE=T BraDBF=F KetDBF=T FulRan=T
         wScrn=  0.000000 ICntrl=       500 IOpCl=  0 I1Cent=   200000004 NGrid=           0
         NMat0=    1 NMatS0=      1 NMatT0=    0 NMatD0=    1 NMtDS0=    0 NMtDT0=    0
 Petite list used in FoFCou.
 Requested convergence on RMS density matrix=1.00D-08 within 128 cycles.
 Requested convergence on MAX density matrix=1.00D-06.
 Requested convergence on             energy=1.00D-06.
 No special actions if energy rises.
 Integral accuracy reduced to 1.0D-05 until final iterations.
 Initial convergence to 1.0D-05 achieved.  Increase integral accuracy.
 SCF Done:  E(RwB97XD) =  -518.104532421     A.U. after   14 cycles
            NFock= 14  Conv=0.59D-08     -V/T= 2.0103

 **********************************************************************

            Population analysis using the SCF Density.

 **********************************************************************

 Orbital symmetries:
       Occupied  (A) (A) (A) (A) (A) (A) (A) (A) (A) (A) (A) (A)
                 (A) (A) (A) (A) (A) (A) (A) (A) (A) (A) (A) (A)
                 (A) (A) (A) (A) (A) (A) (A) (A) (A) (A) (A) (A)
                 (A) (A) (A) (A) (A) (A) (A) (A) (A)
       Virtual   (A) (A) (A) (A) (A) (A) (A) (A) (A) (A) (A) (A)
                 (A) (A) (A) (A) (A) (A) (A) (A) (A) (A) (A) (A)
                 (A) (A) (A) (A) (A) (A) (A) (A) (A) (A) (A) (A)
                 (A) (A) (A) (A) (A) (A) (A) (A) (A) (A) (A) (A)
                 (A) (A) (A) (A) (A) (A) (A) (A) (A) (A) (A) (A)
                 (A) (A) (A) (A) (A) (A) (A) (A) (A) (A) (A) (A)
                 (A) (A) (A) (A) (A) (A) (A) (A) (A) (A) (A) (A)
                 (A) (A) (A) (A) (A) (A) (A) (A) (A) (A) (A) (A)
                 (A) (A) (A) (A) (A) (A) (A) (A) (A) (A) (A) (A)
                 (A) (A) (A) (A) (A) (A) (A) (A) (A) (A) (A) (A)
                 (A) (A) (A) (A) (A) (A) (A) (A) (A) (A) (A) (A)
                 (A) (A) (A) (A) (A) (A) (A) (A) (A) (A) (A) (A)
                 (A) (A) (A) (A) (A) (A) (A) (A) (A) (A) (A) (A)
                 (A) (A) (A) (A) (A) (A) (A) (A) (A) (A) (A) (A)
                 (A) (A) (A) (A) (A) (A) (A) (A) (A) (A) (A) (A)
                 (A) (A) (A) (A) (A) (A) (A) (A) (A) (A) (A) (A)
 The electronic state is 1-A.
 Alpha  occ. eigenvalues --  -14.43505 -10.33922 -10.33255 -10.32116 -10.30867
 Alpha  occ. eigenvalues --  -10.30842 -10.30534 -10.29986 -10.29599 -10.29533
 Alpha  occ. eigenvalues --  -10.29345 -10.29341 -10.29220  -1.04751  -0.95672
 Alpha  occ. eigenvalues --   -0.90296  -0.89353  -0.84633  -0.83682  -0.78376
 Alpha  occ. eigenvalues --   -0.72673  -0.71059  -0.69184  -0.66930  -0.61591
 Alpha  occ. eigenvalues --   -0.60126  -0.58623  -0.55754  -0.54077  -0.53322
 Alpha  occ. eigenvalues --   -0.51854  -0.50991  -0.50459  -0.49985  -0.48106
 Alpha  occ. eigenvalues --   -0.47570  -0.44959  -0.44402  -0.42413  -0.41825
 Alpha  occ. eigenvalues --   -0.37275  -0.33831  -0.33600  -0.33001  -0.31950
 Alpha virt. eigenvalues --    0.04157   0.04922   0.06766   0.06949   0.14362
 Alpha virt. eigenvalues --    0.15143   0.16812   0.17937   0.19416   0.20379
 Alpha virt. eigenvalues --    0.21218   0.21481   0.22471   0.23046   0.23397
 Alpha virt. eigenvalues --    0.24539   0.26189   0.29412   0.32000   0.33745
 Alpha virt. eigenvalues --    0.36107   0.36865   0.37792   0.38099   0.39646
 Alpha virt. eigenvalues --    0.41001   0.43642   0.43761   0.44255   0.47221
 Alpha virt. eigenvalues --    0.48033   0.49499   0.50021   0.51558   0.53306
 Alpha virt. eigenvalues --    0.54056   0.54604   0.55155   0.55806   0.56612
 Alpha virt. eigenvalues --    0.57181   0.58875   0.59487   0.61033   0.62138
 Alpha virt. eigenvalues --    0.63369   0.63825   0.64834   0.67454   0.68215
 Alpha virt. eigenvalues --    0.68854   0.69487   0.70881   0.72149   0.73007
 Alpha virt. eigenvalues --    0.73755   0.74300   0.75510   0.76262   0.77052
 Alpha virt. eigenvalues --    0.77512   0.78522   0.78761   0.79964   0.80746
 Alpha virt. eigenvalues --    0.80939   0.81907   0.82964   0.84012   0.84894
 Alpha virt. eigenvalues --    0.85837   0.87488   0.87843   0.89667   0.90366
 Alpha virt. eigenvalues --    0.92311   0.94897   0.95485   0.99072   1.01620
 Alpha virt. eigenvalues --    1.04540   1.06689   1.08262   1.13409   1.16567
 Alpha virt. eigenvalues --    1.18662   1.22509   1.25992   1.28635   1.29281
 Alpha virt. eigenvalues --    1.31257   1.33214   1.33622   1.33837   1.34292
 Alpha virt. eigenvalues --    1.36962   1.38231   1.39202   1.40818   1.41382
 Alpha virt. eigenvalues --    1.45331   1.47843   1.55647   1.57449   1.61429
 Alpha virt. eigenvalues --    1.63007   1.67581   1.74431   1.75825   1.77318
 Alpha virt. eigenvalues --    1.77800   1.79232   1.79922   1.81589   1.82253
 Alpha virt. eigenvalues --    1.84454   1.84685   1.85189   1.85855   1.86077
 Alpha virt. eigenvalues --    1.86861   1.87116   1.88367   1.89390   1.91217
 Alpha virt. eigenvalues --    1.91500   1.94186   1.95759   1.97884   1.99984
 Alpha virt. eigenvalues --    2.00966   2.03055   2.04206   2.05548   2.06347
 Alpha virt. eigenvalues --    2.07656   2.08964   2.09844   2.13064   2.13539
 Alpha virt. eigenvalues --    2.16730   2.17213   2.20794   2.23008   2.24063
 Alpha virt. eigenvalues --    2.24400   2.26263   2.26467   2.30590   2.34672
 Alpha virt. eigenvalues --    2.37113   2.39613   2.39902   2.40719   2.43336
 Alpha virt. eigenvalues --    2.44719   2.45550   2.47882   2.50364   2.50795
 Alpha virt. eigenvalues --    2.53866   2.57766   2.59245   2.60828   2.67349
 Alpha virt. eigenvalues --    2.70763   2.71793   2.72213   2.73075   2.76008
 Alpha virt. eigenvalues --    2.79715   2.82160   2.82739   2.84342   2.85699
 Alpha virt. eigenvalues --    2.90893   2.93274   2.98288   2.99690   3.00846
 Alpha virt. eigenvalues --    3.01850   3.05671   3.09101   3.15969   3.19923
 Alpha virt. eigenvalues --    3.21182   3.25090   3.26143   3.37131   3.46994
 Alpha virt. eigenvalues --    3.76752   3.77380
          Condensed to atoms (all electrons):
               1          2          3          4          5          6
     1  C    5.068591   0.301161  -0.023121  -0.002706  -0.002284   0.000121
     2  C    0.301161   4.853264   0.333398  -0.104503   0.017457  -0.000554
     3  C   -0.023121   0.333398   5.212243   0.361534   0.068693  -0.146718
     4  C   -0.002706  -0.104503   0.361534   5.047847   0.316954   0.070443
     5  C   -0.002284   0.017457   0.068693   0.316954   5.020946   0.310040
     6  C    0.000121  -0.000554  -0.146718   0.070443   0.310040   5.066838
     7  C   -0.000808   0.011386   0.074350  -0.128527   0.075395   0.302860
     8  C    0.009896  -0.071508   0.327073   0.041912  -0.131002   0.073934
     9  C    0.405432  -0.102170  -0.007282   0.000059  -0.000051  -0.000035
    10  C   -0.003685   0.005513   0.000367  -0.000970  -0.000005  -0.000001
    11  C   -0.074395   0.001483  -0.000118   0.000065   0.000003   0.000000
    12  C   -0.052162   0.006632  -0.000024   0.000260  -0.000017   0.000000
    13  N    0.561382  -0.092428   0.001497   0.000333  -0.000120  -0.000003
    14  H   -0.006902   0.330093  -0.002142   0.004477  -0.000386  -0.000006
    15  H   -0.002055   0.341786  -0.000832  -0.000863  -0.000586   0.000073
    16  H    0.013990  -0.032533  -0.053816   0.447829  -0.069081   0.013914
    17  H    0.000027  -0.000324   0.015675  -0.064355   0.448811  -0.072417
    18  H   -0.000000   0.000031  -0.001479   0.013934  -0.066757   0.449780
    19  H    0.000011  -0.000339   0.015075  -0.001757   0.013677  -0.069752
    20  H    0.000862  -0.013978  -0.073755   0.013778  -0.001963   0.014033
    21  H   -0.047917  -0.006231  -0.000715   0.001549   0.000012  -0.000001
    22  H    0.011545  -0.000321   0.000003  -0.000006   0.000000  -0.000000
    23  H    0.000305   0.000075   0.000001  -0.000005  -0.000000   0.000000
    24  H    0.005859  -0.000264   0.000022  -0.000002  -0.000000  -0.000000
               7          8          9         10         11         12
     1  C   -0.000808   0.009896   0.405432  -0.003685  -0.074395  -0.052162
     2  C    0.011386  -0.071508  -0.102170   0.005513   0.001483   0.006632
     3  C    0.074350   0.327073  -0.007282   0.000367  -0.000118  -0.000024
     4  C   -0.128527   0.041912   0.000059  -0.000970   0.000065   0.000260
     5  C    0.075395  -0.131002  -0.000051  -0.000005   0.000003  -0.000017
     6  C    0.302860   0.073934  -0.000035  -0.000001   0.000000   0.000000
     7  C    5.011407   0.329267   0.000012  -0.000000   0.000000  -0.000000
     8  C    0.329267   5.067899  -0.000988   0.000009  -0.000001   0.000006
     9  C    0.000012  -0.000988   5.038292   0.413965   0.019144  -0.081765
    10  C   -0.000000   0.000009   0.413965   4.843464   0.411791  -0.002515
    11  C    0.000000  -0.000001   0.019144   0.411791   4.990685   0.433996
    12  C   -0.000000   0.000006  -0.081765  -0.002515   0.433996   4.732729
    13  N   -0.000001  -0.000849  -0.055541  -0.043907  -0.039902   0.529943
    14  H    0.000586  -0.011280   0.013021  -0.000522   0.000300   0.000509
    15  H    0.000042  -0.009453  -0.008750   0.001455  -0.000163  -0.000151
    16  H   -0.001787   0.013418   0.001350   0.000370   0.000094   0.000538
    17  H    0.013713  -0.001779   0.000028   0.000002  -0.000001  -0.000000
    18  H   -0.068307   0.013596   0.000000   0.000000   0.000000  -0.000000
    19  H    0.450004  -0.067695   0.000000   0.000000  -0.000000   0.000000
    20  H   -0.065346   0.453217  -0.000027  -0.000000  -0.000000   0.000000
    21  H   -0.000006  -0.000088   0.430029  -0.055236   0.011343  -0.000303
    22  H    0.000000  -0.000001  -0.058287   0.443005  -0.060676   0.009770
    23  H   -0.000000   0.000000   0.010865  -0.056282   0.425745  -0.044256
    24  H   -0.000000   0.000001   0.000725   0.006652  -0.071069   0.427593
              13         14         15         16         17         18
     1  C    0.561382  -0.006902  -0.002055   0.013990   0.000027  -0.000000
     2  C   -0.092428   0.330093   0.341786  -0.032533  -0.000324   0.000031
     3  C    0.001497  -0.002142  -0.000832  -0.053816   0.015675  -0.001479
     4  C    0.000333   0.004477  -0.000863   0.447829  -0.064355   0.013934
     5  C   -0.000120  -0.000386  -0.000586  -0.069081   0.448811  -0.066757
     6  C   -0.000003  -0.000006   0.000073   0.013914  -0.072417   0.449780
     7  C   -0.000001   0.000586   0.000042  -0.001787   0.013713  -0.068307
     8  C   -0.000849  -0.011280  -0.009453   0.013418  -0.001779   0.013596
     9  C   -0.055541   0.013021  -0.008750   0.001350   0.000028   0.000000
    10  C   -0.043907  -0.000522   0.001455   0.000370   0.000002   0.000000
    11  C   -0.039902   0.000300  -0.000163   0.000094  -0.000001   0.000000
    12  C    0.529943   0.000509  -0.000151   0.000538  -0.000000  -0.000000
    13  N    6.268098   0.013234   0.003942  -0.000664   0.000002   0.000000
    14  H    0.013234   0.628964  -0.017318   0.000170   0.000009  -0.000000
    15  H    0.003942  -0.017318   0.650697   0.000800   0.000008  -0.000000
    16  H   -0.000664   0.000170   0.000800   0.668675  -0.012773  -0.000248
    17  H    0.000002   0.000009   0.000008  -0.012773   0.676355  -0.011988
    18  H    0.000000  -0.000000  -0.000000  -0.000248  -0.011988   0.672632
    19  H    0.000000  -0.000000   0.000009   0.000031  -0.000248  -0.011968
    20  H   -0.000006   0.003338   0.001934  -0.000211   0.000030  -0.000245
    21  H    0.005715  -0.000009   0.001415   0.000276   0.000003  -0.000000
    22  H   -0.000241   0.000012   0.000013   0.000009   0.000000   0.000000
    23  H    0.005464  -0.000008  -0.000003   0.000009  -0.000000  -0.000000
    24  H   -0.039670  -0.000166   0.000010  -0.000014   0.000000  -0.000000
              19         20         21         22         23         24
     1  C    0.000011   0.000862  -0.047917   0.011545   0.000305   0.005859
     2  C   -0.000339  -0.013978  -0.006231  -0.000321   0.000075  -0.000264
     3  C    0.015075  -0.073755  -0.000715   0.000003   0.000001   0.000022
     4  C   -0.001757   0.013778   0.001549  -0.000006  -0.000005  -0.000002
     5  C    0.013677  -0.001963   0.000012   0.000000  -0.000000  -0.000000
     6  C   -0.069752   0.014033  -0.000001  -0.000000   0.000000  -0.000000
     7  C    0.450004  -0.065346  -0.000006   0.000000  -0.000000  -0.000000
     8  C   -0.067695   0.453217  -0.000088  -0.000001   0.000000   0.000001
     9  C    0.000000  -0.000027   0.430029  -0.058287   0.010865   0.000725
    10  C    0.000000  -0.000000  -0.055236   0.443005  -0.056282   0.006652
    11  C   -0.000000  -0.000000   0.011343  -0.060676   0.425745  -0.071069
    12  C    0.000000   0.000000  -0.000303   0.009770  -0.044256   0.427593
    13  N    0.000000  -0.000006   0.005715  -0.000241   0.005464  -0.039670
    14  H   -0.000000   0.003338  -0.000009   0.000012  -0.000008  -0.000166
    15  H    0.000009   0.001934   0.001415   0.000013  -0.000003   0.000010
    16  H    0.000031  -0.000211   0.000276   0.000009   0.000009  -0.000014
    17  H   -0.000248   0.000030   0.000003   0.000000  -0.000000   0.000000
    18  H   -0.011968  -0.000245  -0.000000   0.000000  -0.000000  -0.000000
    19  H    0.673901  -0.012350  -0.000000  -0.000000  -0.000000  -0.000000
    20  H   -0.012350   0.681954   0.000011   0.000000   0.000000   0.000000
    21  H   -0.000000   0.000011   0.656573  -0.010626  -0.000134   0.000069
    22  H   -0.000000   0.000000  -0.010626   0.650535  -0.010848  -0.000253
    23  H   -0.000000   0.000000  -0.000134  -0.010848   0.650639  -0.006338
    24  H   -0.000000   0.000000   0.000069  -0.000253  -0.006338   0.647823
 Mulliken charges:
               1
     1  C   -0.163147
     2  C    0.222873
     3  C   -0.099930
     4  C   -0.017277
     5  C    0.000263
     6  C   -0.012550
     7  C   -0.004240
     8  C   -0.035585
     9  C   -0.018026
    10  C    0.036530
    11  C   -0.048324
    12  C    0.039218
    13  N   -0.116277
    14  H    0.044025
    15  H    0.037993
    16  H    0.009652
    17  H    0.009222
    18  H    0.011020
    19  H    0.011402
    20  H   -0.001276
    21  H    0.014273
    22  H    0.026368
    23  H    0.024771
    24  H    0.029023
 Sum of Mulliken charges =  -0.00000
 Mulliken charges with hydrogens summed into heavy atoms:
               1
     1  C   -0.163147
     2  C    0.304891
     3  C   -0.099930
     4  C   -0.007626
     5  C    0.009484
     6  C   -0.001529
     7  C    0.007162
     8  C   -0.036861
     9  C   -0.003754
    10  C    0.062898
    11  C   -0.023554
    12  C    0.068240
    13  N   -0.116277
 Electronic spatial extent (au):  <R**2>=           2735.6407
 Charge=             -0.0000 electrons
 Dipole moment (field-independent basis, Debye):
    X=             -0.8674    Y=              0.9805    Z=              1.3883  Tot=              1.9082
 Quadrupole moment (field-independent basis, Debye-Ang):
   XX=            -66.4083   YY=            -72.6896   ZZ=            -76.7048
   XY=             -4.8120   XZ=             -1.0171   YZ=             -1.4890
 Traceless Quadrupole moment (field-independent basis, Debye-Ang):
   XX=              5.5260   YY=             -0.7554   ZZ=             -4.7706
   XY=             -4.8120   XZ=             -1.0171   YZ=             -1.4890
 Octapole moment (field-independent basis, Debye-Ang**2):
  XXX=            -10.1823  YYY=              0.9605  ZZZ=              3.8780  XYY=              8.4082
  XXY=             15.0227  XXZ=            -10.4015  XZZ=            -15.7083  YZZ=              2.1136
  YYZ=              2.2704  XYZ=             -5.2684
 Hexadecapole moment (field-independent basis, Debye-Ang**3):
 XXXX=          -2720.1270 YYYY=           -487.5515 ZZZZ=           -296.5491 XXXY=            -62.2544
 XXXZ=             16.6653 YYYX=             -2.3728 YYYZ=             -5.8682 ZZZX=              9.5416
 ZZZY=              4.8676 XXYY=           -551.9888 XXZZ=           -549.1669 YYZZ=           -140.5506
 XXYZ=              1.7179 YYXZ=            -11.2806 ZZXY=             -9.5825
 N-N= 7.019306050041D+02 E-N=-2.603375636539D+03  KE= 5.128080511408D+02
   1 Symmetry operations used in ECPInt.
 ECPInt:  NShTT=    6216 NPrTT=   22568 LenC2=    5937 LenP2D=   16113.
 LDataN:  DoStor=T MaxTD1= 5 Len=  102
 Calling FoFJK, ICntrl=      2127 FMM=F ISym2X=0 I1Cent= 0 IOpClX= 0 NMat=1 NMatS=1 NMatT=0.
 ***** Axes restored to original set *****
 -------------------------------------------------------------------
 Center     Atomic                   Forces (Hartrees/Bohr)
 Number     Number              X              Y              Z
 -------------------------------------------------------------------
      1        6           0.001853045   -0.001033725    0.006416399
      2        6           0.001034502    0.003152186   -0.004625461
      3        6          -0.004425016   -0.000519184    0.004336507
      4        6          -0.000427102    0.000040801   -0.000859683
      5        6           0.001203633    0.000657102   -0.001496037
      6        6           0.001470024    0.000432865   -0.001728212
      7        6           0.001304382   -0.000641025    0.001310663
      8        6           0.000650820    0.000066445   -0.000274490
      9        6          -0.001636557   -0.001314919   -0.000111538
     10        6          -0.000012501   -0.000875211   -0.000441714
     11        6           0.000802473    0.001000913    0.000452207
     12        6          -0.001500731    0.000264851   -0.001324256
     13        7           0.004442542   -0.008087015    0.002120787
     14        1          -0.001780243   -0.003595797    0.002747296
     15        1           0.000325896    0.002429631    0.005047106
     16        1          -0.006553634    0.002568922   -0.003866126
     17        1           0.000206021    0.003125399   -0.008054824
     18        1           0.007581335    0.000255968   -0.004413844
     19        1           0.007231628   -0.003009806    0.003775711
     20        1          -0.000261536   -0.003501675    0.008277052
     21        1           0.004726523    0.006581382    0.003243695
     22        1          -0.002601633    0.007688048   -0.001464518
     23        1          -0.007502812    0.000628637   -0.004903631
     24        1          -0.006131061   -0.006314791   -0.004163089
 -------------------------------------------------------------------
 Cartesian Forces:  Max     0.008277052 RMS     0.003689134

 GradGradGradGradGradGradGradGradGradGradGradGradGradGradGradGradGradGrad
 Berny optimization.
 FormGI is forming the generalized inverse of G from B-inverse, IUseBI=4.
 Internal  Forces:  Max     0.012808463 RMS     0.004212427
 Search for a local minimum.
 Step number   1 out of a maximum of  131
 All quantities printed in internal units (Hartrees-Bohrs-Radians)
 Mixed Optimization -- RFO/linear search
 Second derivative matrix not updated -- first step.
 ITU=  0
     Eigenvalues ---    0.00605   0.00770   0.01572   0.01630   0.02229
     Eigenvalues ---    0.02238   0.02261   0.02268   0.02271   0.02273
     Eigenvalues ---    0.02288   0.02289   0.02296   0.02302   0.02304
     Eigenvalues ---    0.02311   0.02312   0.02421   0.02605   0.04851
     Eigenvalues ---    0.06492   0.10154   0.13386   0.16000   0.16000
     Eigenvalues ---    0.16000   0.16000   0.16000   0.16000   0.16000
     Eigenvalues ---    0.16000   0.16000   0.22000   0.22000   0.22000
     Eigenvalues ---    0.22075   0.22427   0.23475   0.24430   0.24999
     Eigenvalues ---    0.25000   0.31131   0.32413   0.34289   0.34572
     Eigenvalues ---    0.35677   0.35867   0.35878   0.35940   0.35946
     Eigenvalues ---    0.35972   0.35991   0.35992   0.36132   0.43250
     Eigenvalues ---    0.43385   0.43553   0.45699   0.47338   0.47594
     Eigenvalues ---    0.48015   0.48169   0.48329   0.48583   0.58386
     Eigenvalues ---    0.60343
 RFO step:  Lambda=-5.46998027D-03 EMin= 6.04592966D-03
 Linear search not attempted -- first point.
 Iteration  1 RMS(Cart)=  0.05886142 RMS(Int)=  0.00044367
 Iteration  2 RMS(Cart)=  0.00128722 RMS(Int)=  0.00004626
 Iteration  3 RMS(Cart)=  0.00000072 RMS(Int)=  0.00004626
 Variable       Old X    -DE/DX   Delta X   Delta X   Delta X     New X
                                 (Linear)    (Quad)   (Total)
    R1        2.83395   0.00602   0.00000   0.01825   0.01825   2.85220
    R2        2.63376   0.00766   0.00000   0.01610   0.01610   2.64986
    R3        2.50578   0.01067   0.00000   0.01794   0.01795   2.52373
    R4        2.85764   0.00833   0.00000   0.02629   0.02629   2.88393
    R5        2.06375   0.00452   0.00000   0.01286   0.01286   2.07661
    R6        2.06845   0.00543   0.00000   0.01558   0.01558   2.08403
    R7        2.62127   0.01127   0.00000   0.02333   0.02333   2.64460
    R8        2.62861   0.01075   0.00000   0.02252   0.02252   2.65113
    R9        2.61755   0.01135   0.00000   0.02335   0.02335   2.64090
   R10        2.04126   0.00802   0.00000   0.02197   0.02197   2.06322
   R11        2.61338   0.00947   0.00000   0.01930   0.01930   2.63268
   R12        2.04176   0.00864   0.00000   0.02369   0.02369   2.06545
   R13        2.61723   0.01044   0.00000   0.02139   0.02139   2.63862
   R14        2.04094   0.00878   0.00000   0.02402   0.02402   2.06496
   R15        2.61171   0.01042   0.00000   0.02110   0.02110   2.63281
   R16        2.04167   0.00870   0.00000   0.02383   0.02383   2.06549
   R17        2.04290   0.00899   0.00000   0.02469   0.02469   2.06759
   R18        2.61456   0.00797   0.00000   0.01556   0.01556   2.63011
   R19        2.04095   0.00873   0.00000   0.02388   0.02388   2.06484
   R20        2.62058   0.00693   0.00000   0.01374   0.01373   2.63431
   R21        2.04272   0.00825   0.00000   0.02264   0.02264   2.06537
   R22        2.61861   0.00766   0.00000   0.01593   0.01593   2.63454
   R23        2.03876   0.00898   0.00000   0.02447   0.02447   2.06323
   R24        2.49596   0.01281   0.00000   0.02113   0.02113   2.51709
   R25        2.04589   0.00941   0.00000   0.02597   0.02597   2.07186
    A1        2.12088  -0.00149   0.00000  -0.00616  -0.00618   2.11470
    A2        2.03198   0.00310   0.00000   0.01178   0.01175   2.04374
    A3        2.13031  -0.00161   0.00000  -0.00569  -0.00570   2.12461
    A4        1.98926   0.00661   0.00000   0.03350   0.03337   2.02264
    A5        1.88777  -0.00270   0.00000  -0.01616  -0.01623   1.87154
    A6        1.91067  -0.00159   0.00000  -0.00264  -0.00295   1.90772
    A7        1.89220  -0.00101   0.00000  -0.00179  -0.00168   1.89051
    A8        1.89127  -0.00134   0.00000   0.00148   0.00129   1.89256
    A9        1.89044  -0.00022   0.00000  -0.01678  -0.01690   1.87355
   A10        2.14350   0.00282   0.00000   0.01110   0.01110   2.15459
   A11        2.06912  -0.00064   0.00000  -0.00241  -0.00242   2.06670
   A12        2.07053  -0.00218   0.00000  -0.00866  -0.00866   2.06188
   A13        2.10442   0.00095   0.00000   0.00420   0.00421   2.10862
   A14        2.09506  -0.00017   0.00000  -0.00026  -0.00026   2.09480
   A15        2.08370  -0.00078   0.00000  -0.00396  -0.00396   2.07974
   A16        2.10064   0.00031   0.00000   0.00132   0.00132   2.10196
   A17        2.08746  -0.00013   0.00000  -0.00054  -0.00054   2.08692
   A18        2.09508  -0.00018   0.00000  -0.00079  -0.00079   2.09430
   A19        2.08565  -0.00065   0.00000  -0.00310  -0.00311   2.08254
   A20        2.09918   0.00030   0.00000   0.00138   0.00139   2.10056
   A21        2.09836   0.00035   0.00000   0.00171   0.00171   2.10007
   A22        2.09556   0.00021   0.00000   0.00055   0.00054   2.09609
   A23        2.09583  -0.00008   0.00000  -0.00011  -0.00010   2.09573
   A24        2.09180  -0.00013   0.00000  -0.00044  -0.00044   2.09136
   A25        2.10957   0.00136   0.00000   0.00568   0.00568   2.11526
   A26        2.08303  -0.00066   0.00000  -0.00271  -0.00271   2.08032
   A27        2.09058  -0.00070   0.00000  -0.00297  -0.00297   2.08760
   A28        2.07449   0.00151   0.00000   0.00455   0.00456   2.07904
   A29        2.09703  -0.00092   0.00000  -0.00328  -0.00329   2.09374
   A30        2.11166  -0.00059   0.00000  -0.00128  -0.00129   2.11038
   A31        2.07380   0.00075   0.00000   0.00021   0.00021   2.07400
   A32        2.10381  -0.00043   0.00000  -0.00045  -0.00045   2.10337
   A33        2.10557  -0.00032   0.00000   0.00024   0.00024   2.10581
   A34        2.05856   0.00024   0.00000  -0.00015  -0.00016   2.05840
   A35        2.11589   0.00029   0.00000   0.00255   0.00255   2.11844
   A36        2.10874  -0.00053   0.00000  -0.00240  -0.00240   2.10634
   A37        2.15491  -0.00061   0.00000  -0.00112  -0.00112   2.15379
   A38        2.11477  -0.00227   0.00000  -0.01498  -0.01499   2.09978
   A39        2.01351   0.00287   0.00000   0.01610   0.01610   2.02961
   A40        2.07429  -0.00029   0.00000   0.00219   0.00221   2.07650
    D1       -1.45143  -0.00057   0.00000  -0.03757  -0.03763  -1.48906
    D2        2.72608  -0.00162   0.00000  -0.04541  -0.04527   2.68080
    D3        0.66966   0.00107   0.00000  -0.01457  -0.01457   0.65509
    D4        1.68461  -0.00084   0.00000  -0.04967  -0.04978   1.63483
    D5       -0.42107  -0.00189   0.00000  -0.05751  -0.05742  -0.47849
    D6       -2.47749   0.00080   0.00000  -0.02667  -0.02671  -2.50420
    D7        3.12967  -0.00035   0.00000  -0.01396  -0.01390   3.11577
    D8       -0.00969  -0.00020   0.00000  -0.00919  -0.00914  -0.01883
    D9       -0.00605  -0.00008   0.00000  -0.00123  -0.00125  -0.00730
   D10        3.13777   0.00007   0.00000   0.00354   0.00352   3.14129
   D11       -3.13034   0.00033   0.00000   0.01281   0.01286  -3.11747
   D12        0.00567   0.00006   0.00000   0.00064   0.00065   0.00632
   D13        0.18766   0.00014   0.00000  -0.01733  -0.01730   0.17036
   D14       -2.96262   0.00021   0.00000  -0.01356  -0.01352  -2.97614
   D15        2.29086   0.00027   0.00000  -0.01744  -0.01740   2.27347
   D16       -0.85942   0.00034   0.00000  -0.01367  -0.01361  -0.87304
   D17       -1.94413  -0.00128   0.00000  -0.03752  -0.03762  -1.98175
   D18        1.18877  -0.00121   0.00000  -0.03376  -0.03383   1.15493
   D19        3.13269  -0.00006   0.00000  -0.00148  -0.00147   3.13122
   D20       -0.01514  -0.00011   0.00000  -0.00338  -0.00338  -0.01852
   D21       -0.00020  -0.00014   0.00000  -0.00528  -0.00527  -0.00547
   D22        3.13515  -0.00019   0.00000  -0.00719  -0.00718   3.12797
   D23       -3.13224   0.00005   0.00000   0.00183   0.00185  -3.13040
   D24        0.01093   0.00004   0.00000   0.00126   0.00127   0.01220
   D25        0.00102   0.00015   0.00000   0.00554   0.00553   0.00655
   D26       -3.13899   0.00013   0.00000   0.00497   0.00495  -3.13404
   D27       -0.00097   0.00005   0.00000   0.00208   0.00209   0.00112
   D28        3.13957  -0.00003   0.00000  -0.00107  -0.00106   3.13850
   D29       -3.13636   0.00011   0.00000   0.00396   0.00397  -3.13239
   D30        0.00418   0.00002   0.00000   0.00081   0.00082   0.00499
   D31        0.00131   0.00003   0.00000   0.00100   0.00100   0.00231
   D32        3.14037  -0.00004   0.00000  -0.00146  -0.00146   3.13891
   D33       -3.13922   0.00011   0.00000   0.00416   0.00417  -3.13505
   D34       -0.00016   0.00005   0.00000   0.00170   0.00170   0.00155
   D35       -0.00049  -0.00002   0.00000  -0.00076  -0.00077  -0.00126
   D36        3.13870  -0.00006   0.00000  -0.00230  -0.00230   3.13640
   D37       -3.13955   0.00005   0.00000   0.00170   0.00170  -3.13786
   D38       -0.00036   0.00000   0.00000   0.00016   0.00016  -0.00020
   D39       -0.00068  -0.00007   0.00000  -0.00256  -0.00257  -0.00325
   D40        3.13932  -0.00006   0.00000  -0.00199  -0.00199   3.13734
   D41       -3.13988  -0.00003   0.00000  -0.00103  -0.00104  -3.14092
   D42        0.00012  -0.00001   0.00000  -0.00046  -0.00046  -0.00033
   D43        0.00185   0.00005   0.00000   0.00138   0.00140   0.00325
   D44       -3.14080   0.00002   0.00000   0.00018   0.00019  -3.14061
   D45        3.14120  -0.00009   0.00000  -0.00343  -0.00342   3.13778
   D46       -0.00145  -0.00013   0.00000  -0.00464  -0.00463  -0.00608
   D47        0.00231  -0.00001   0.00000  -0.00098  -0.00098   0.00134
   D48        3.14066  -0.00005   0.00000  -0.00175  -0.00176   3.13890
   D49       -3.13822   0.00002   0.00000   0.00023   0.00024  -3.13798
   D50        0.00012  -0.00001   0.00000  -0.00055  -0.00055  -0.00042
   D51       -0.00283   0.00001   0.00000   0.00042   0.00041  -0.00242
   D52        3.13667  -0.00003   0.00000  -0.00057  -0.00057   3.13610
   D53       -3.14119   0.00004   0.00000   0.00118   0.00118  -3.14001
   D54       -0.00169   0.00000   0.00000   0.00019   0.00020  -0.00149
   D55       -0.00116  -0.00004   0.00000  -0.00025  -0.00024  -0.00141
   D56       -3.14077   0.00001   0.00000   0.00072   0.00073  -3.14004
         Item               Value     Threshold  Converged?
 Maximum Force            0.012808     0.000450     NO 
 RMS     Force            0.004212     0.000300     NO 
 Maximum Displacement     0.181755     0.001800     NO 
 RMS     Displacement     0.059550     0.001200     NO 
 Predicted change in Energy=-2.812863D-03
 GradGradGradGradGradGradGradGradGradGradGradGradGradGradGradGradGradGrad

                          Input orientation:                          
 ---------------------------------------------------------------------
 Center     Atomic      Atomic             Coordinates (Angstroms)
 Number     Number       Type             X           Y           Z
 ---------------------------------------------------------------------
      1          6           0       -1.318241    0.012083    0.598262
      2          6           0       -0.055379   -0.279402    1.371733
      3          6           0        1.242930   -0.229014    0.571195
      4          6           0        1.322598    0.254441   -0.739690
      5          6           0        2.544132    0.286799   -1.417793
      6          6           0        3.707379   -0.164691   -0.798206
      7          6           0        3.640839   -0.653355    0.508097
      8          6           0        2.421197   -0.685363    1.180792
      9          6           0       -1.760358    1.327960    0.400039
     10          6           0       -2.914013    1.549691   -0.346293
     11          6           0       -3.596560    0.453125   -0.870661
     12          6           0       -3.083857   -0.818075   -0.616092
     13          7           0       -1.979573   -1.034162    0.096687
     14          1           0       -0.159702   -1.287064    1.797535
     15          1           0        0.027051    0.426851    2.214719
     16          1           0        0.422404    0.605360   -1.248177
     17          1           0        2.582510    0.665830   -2.442236
     18          1           0        4.661385   -0.141127   -1.330533
     19          1           0        4.545006   -1.015228    1.004287
     20          1           0        2.377507   -1.073619    2.202775
     21          1           0       -1.196866    2.162669    0.823896
     22          1           0       -3.278551    2.566022   -0.515740
     23          1           0       -4.507023    0.578946   -1.459969
     24          1           0       -3.592406   -1.707948   -1.005388
 ---------------------------------------------------------------------
                    Distance matrix (angstroms):
                    1          2          3          4          5
     1  C    0.000000
     2  C    1.509318   0.000000
     3  C    2.572637   1.526109   0.000000
     4  C    2.970334   2.577192   1.399462   0.000000
     5  C    4.365533   3.854803   2.432131   1.397504   0.000000
     6  C    5.219026   4.345129   2.820089   2.422040   1.393152
     7  C    5.004340   3.814150   2.435983   2.784835   2.407427
     8  C    3.848268   2.516881   1.402916   2.403831   2.777203
     9  C    1.402246   2.536682   3.387212   3.457751   4.787188
    10  C    2.408923   3.803812   4.613649   4.447618   5.703890
    11  C    2.746450   4.254983   5.095579   4.924910   6.167262
    12  C    2.298090   3.662416   4.525233   4.536784   5.791177
    13  N    1.335502   2.428565   3.355287   3.642027   4.950000
    14  H    2.113824   1.098897   2.142606   3.318277   4.486212
    15  H    2.143543   1.102821   2.147020   3.230588   4.421590
    16  H    2.605986   2.806245   2.163228   1.091811   2.152204
    17  H    4.988775   4.732682   3.417014   2.157610   1.092987
    18  H    6.284875   5.437760   3.912815   3.413659   2.161827
    19  H    5.966397   4.673329   3.421901   3.877813   3.400771
    20  H    4.172741   2.690790   2.159323   3.396274   3.871307
    21  H    2.165794   2.750787   3.425874   3.526164   4.747539
    22  H    3.406819   4.695511   5.425628   5.154040   6.317610
    23  H    3.837444   5.345319   6.151454   5.882906   7.057331
    24  H    3.271395   4.494664   5.296540   5.298946   6.465771
                    6          7          8          9         10
     6  C    0.000000
     7  C    1.396298   0.000000
     8  C    2.416981   1.393224   0.000000
     9  C    5.793095   5.754148   4.706214   0.000000
    10  C    6.854645   6.967746   5.982634   1.391796   0.000000
    11  C    7.330380   7.450182   6.458948   2.398260   1.394019
    12  C    6.825024   6.820005   5.792410   2.718388   2.389132
    13  N    5.822219   5.648302   4.545737   2.391589   2.783110
    14  H    4.790815   4.063047   2.720929   3.369488   4.497712
    15  H    4.792959   4.139912   2.835130   2.701831   4.058252
    16  H    3.403896   3.876491   3.400151   2.828996   3.582853
    17  H    2.158223   3.400702   3.870152   5.232346   5.948609
    18  H    1.092728   2.164359   3.409016   6.811159   7.823953
    19  H    2.161947   1.093012   2.156509   6.753760   8.002490
    20  H    3.405965   2.155125   1.094121   5.112668   6.432705
    21  H    5.665637   5.606524   4.618338   1.092665   2.166490
    22  H    7.505984   7.700038   6.777672   2.162488   1.092945
    23  H    8.274498   8.472279   7.521457   3.400709   2.172626
    24  H    7.464008   7.464760   6.479851   3.814231   3.392173
                   11         12         13         14         15
    11  C    0.000000
    12  C    1.394137   0.000000
    13  N    2.400506   1.331987   0.000000
    14  H    4.686098   3.820501   2.503752   0.000000
    15  H    4.759287   4.386465   3.262998   1.773817   0.000000
    16  H    4.039526   3.836609   3.204089   3.632696   3.489960
    17  H    6.379341   6.135510   5.490784   5.413795   5.317397
    18  H    8.292061   7.807526   6.851044   5.860108   5.862462
    19  H    8.482723   7.801542   6.587430   4.778851   4.894554
    20  H    6.889589   6.151245   4.839558   2.578218   2.788584
    21  H    3.398910   3.810398   3.370637   3.731534   2.538784
    22  H    2.165971   3.391177   3.876046   5.470350   4.791498
    23  H    1.091815   2.165455   3.378357   5.743912   5.838175
    24  H    2.165272   1.096379   2.066346   4.451626   5.294046
                   16         17         18         19         20
    16  H    0.000000
    17  H    2.468905   0.000000
    18  H    4.304995   2.491743   0.000000
    19  H    4.969482   4.307652   2.495793   0.000000
    20  H    4.307026   4.964256   4.309281   2.477465   0.000000
    21  H    3.056261   5.214579   6.653431   6.565110   5.015079
    22  H    4.251791   6.455552   8.428234   8.737498   7.254537
    23  H    4.934046   7.157784   9.197552   9.515944   7.971413
    24  H    4.639940   6.769707   8.407479   8.410477   6.806948
                   21         22         23         24
    21  H    0.000000
    22  H    2.508132   0.000000
    23  H    4.322193   2.519759   0.000000
    24  H    4.905769   4.313360   2.504606   0.000000
 Stoichiometry    C12H11N
 Framework group  C1[X(C12H11N)]
 Deg. of freedom    66
 Full point group                 C1      NOp   1
 Largest Abelian subgroup         C1      NOp   1
 Largest concise Abelian subgroup C1      NOp   1
                         Standard orientation:                         
 ---------------------------------------------------------------------
 Center     Atomic      Atomic             Coordinates (Angstroms)
 Number     Number       Type             X           Y           Z
 ---------------------------------------------------------------------
      1          6           0       -1.294752   -0.644269    0.186103
      2          6           0        0.023441   -1.350513    0.390133
      3          6           0        1.274096   -0.508457    0.153885
      4          6           0        1.246302    0.877991   -0.034480
      5          6           0        2.427766    1.597118   -0.234519
      6          6           0        3.657751    0.943104   -0.251162
      7          6           0        3.698953   -0.440588   -0.068549
      8          6           0        2.519103   -1.154624    0.129385
      9          6           0       -1.883645    0.104581    1.215045
     10          6           0       -3.084725    0.763998    0.970765
     11          6           0       -3.666858    0.655070   -0.291196
     12          6           0       -3.010289   -0.116396   -1.248992
     13          7           0       -1.860264   -0.747963   -1.019305
     14          1           0        0.045963   -2.204014   -0.301678
     15          1           0        0.064772   -1.756525    1.414662
     16          1           0        0.293081    1.410366   -0.033957
     17          1           0        2.382192    2.679089   -0.382450
     18          1           0        4.580532    1.506348   -0.410180
     19          1           0        4.656781   -0.966890   -0.084200
     20          1           0        2.560289   -2.239192    0.267653
     21          1           0       -1.395845    0.169590    2.190618
     22          1           0       -3.563158    1.354752    1.756028
     23          1           0       -4.609478    1.152843   -0.527310
     24          1           0       -3.436135   -0.232723   -2.252571
 ---------------------------------------------------------------------
 Rotational constants (GHZ):           2.1857355           0.4239695           0.4021843
 Standard basis: def2SVP (5D, 7F)
 There are   250 symmetry adapted cartesian basis functions of A   symmetry.
 There are   237 symmetry adapted basis functions of A   symmetry.
   237 basis functions,   402 primitive gaussians,   250 cartesian basis functions
    45 alpha electrons       45 beta electrons
       nuclear repulsion energy       694.4871516172 Hartrees.
 NAtoms=   24 NActive=   24 NUniq=   24 SFac= 1.00D+00 NAtFMM=   60 NAOKFM=F Big=F
 Integral buffers will be    131072 words long.
 Raffenetti 2 integral format.
 Two-electron integral symmetry is turned on.
 Nuclear repulsion after empirical dispersion term =      694.4733616585 Hartrees.
 One-electron integrals computed using PRISM.
   1 Symmetry operations used in ECPInt.
 ECPInt:  NShTT=    6216 NPrTT=   22568 LenC2=    5906 LenP2D=   16008.
 LDataN:  DoStor=T MaxTD1= 4 Len=   56
 NBasis=   237 RedAO= T EigKep=  2.95D-04  NBF=   237
 NBsUse=   237 1.00D-06 EigRej= -1.00D+00 NBFU=   237
 Initial guess from the checkpoint file:  "Py6_5.chk"
 B after Tr=    -0.000000   -0.000000   -0.000000
         Rot=    0.999639   -0.026777    0.001568    0.001361 Ang=  -3.08 deg.
 ExpMin= 1.22D-01 ExpMax= 1.71D+03 ExpMxC= 2.58D+02 IAcc=3 IRadAn=         5 AccDes= 0.00D+00
 Harris functional with IExCor= 4639 and IRadAn=       5 diagonalized for initial guess.
 HarFok:  IExCor= 4639 AccDes= 0.00D+00 IRadAn=         5 IDoV= 1 UseB2=F ITyADJ=14
 ICtDFT=  3500011 ScaDFX=  1.000000  1.000000  1.000000  1.000000
 FoFCou: FMM=F IPFlag=           0 FMFlag=      100000 FMFlg1=           0
         NFxFlg=           0 DoJE=T BraDBF=F KetDBF=T FulRan=T
         wScrn=  0.000000 ICntrl=       500 IOpCl=  0 I1Cent=   200000004 NGrid=           0
         NMat0=    1 NMatS0=      1 NMatT0=    0 NMatD0=    1 NMtDS0=    0 NMtDT0=    0
 Petite list used in FoFCou.
 Requested convergence on RMS density matrix=1.00D-08 within 128 cycles.
 Requested convergence on MAX density matrix=1.00D-06.
 Requested convergence on             energy=1.00D-06.
 No special actions if energy rises.
 Integral accuracy reduced to 1.0D-05 until final iterations.
 Initial convergence to 1.0D-05 achieved.  Increase integral accuracy.
 SCF Done:  E(RwB97XD) =  -518.106882142     A.U. after   13 cycles
            NFock= 13  Conv=0.57D-08     -V/T= 2.0114
   1 Symmetry operations used in ECPInt.
 ECPInt:  NShTT=    6216 NPrTT=   22568 LenC2=    5906 LenP2D=   16008.
 LDataN:  DoStor=T MaxTD1= 5 Len=  102
 Calling FoFJK, ICntrl=      2127 FMM=F ISym2X=0 I1Cent= 0 IOpClX= 0 NMat=1 NMatS=1 NMatT=0.
 ***** Axes restored to original set *****
 -------------------------------------------------------------------
 Center     Atomic                   Forces (Hartrees/Bohr)
 Number     Number              X              Y              Z
 -------------------------------------------------------------------
      1        6           0.000005121    0.000930647   -0.001582555
      2        6           0.000983791    0.000310654   -0.002153157
      3        6          -0.000537645   -0.000181795   -0.000157028
      4        6           0.000136256   -0.000663145    0.001188867
      5        6          -0.000132256   -0.000347183    0.000875944
      6        6          -0.000823564    0.000030477    0.000221543
      7        6          -0.000978020    0.000173475    0.000013578
      8        6           0.000076859    0.000642059   -0.000651208
      9        6          -0.000156207   -0.000390441   -0.000224197
     10        6           0.000020250   -0.000287911    0.000110912
     11        6           0.000567428    0.000369466    0.000380494
     12        6           0.001053727    0.000747836    0.001116861
     13        7           0.000435934   -0.000752396   -0.000533966
     14        1          -0.000053386   -0.000336088    0.000636994
     15        1           0.000199039   -0.000180289   -0.000022663
     16        1          -0.000509501    0.000089645    0.000142272
     17        1          -0.000180712   -0.000109580    0.000371636
     18        1          -0.000366002    0.000028528    0.000231763
     19        1          -0.000409662    0.000101452   -0.000068169
     20        1           0.000101133    0.000030134   -0.000217164
     21        1          -0.000165362   -0.000188173   -0.000108447
     22        1           0.000182203   -0.000265519    0.000110683
     23        1           0.000306716   -0.000185906    0.000117928
     24        1           0.000243857    0.000434051    0.000199080
 -------------------------------------------------------------------
 Cartesian Forces:  Max     0.002153157 RMS     0.000549637

 GradGradGradGradGradGradGradGradGradGradGradGradGradGradGradGradGradGrad
 Berny optimization.
 Using GEDIIS/GDIIS optimizer.
 FormGI is forming the generalized inverse of G from B-inverse, IUseBI=4.
 Internal  Forces:  Max     0.004106639 RMS     0.000800405
 Search for a local minimum.
 Step number   2 out of a maximum of  131
 All quantities printed in internal units (Hartrees-Bohrs-Radians)
 Mixed Optimization -- En-DIIS/RFO-DIIS
 Update second derivatives using D2CorX and points    1    2
 DE= -2.35D-03 DEPred=-2.81D-03 R= 8.35D-01
 TightC=F SS=  1.41D+00  RLast= 1.68D-01 DXNew= 5.0454D-01 5.0475D-01
 Trust test= 8.35D-01 RLast= 1.68D-01 DXMaxT set to 5.05D-01
 ITU=  1  0
 Use linear search instead of GDIIS.
     Eigenvalues ---    0.00603   0.00773   0.01567   0.01628   0.02229
     Eigenvalues ---    0.02238   0.02261   0.02268   0.02271   0.02273
     Eigenvalues ---    0.02288   0.02289   0.02296   0.02302   0.02304
     Eigenvalues ---    0.02311   0.02312   0.02425   0.02606   0.04617
     Eigenvalues ---    0.06447   0.10475   0.13575   0.15942   0.16000
     Eigenvalues ---    0.16000   0.16000   0.16000   0.16000   0.16000
     Eigenvalues ---    0.16000   0.16025   0.21992   0.22000   0.22000
     Eigenvalues ---    0.22396   0.22568   0.23606   0.24485   0.24918
     Eigenvalues ---    0.25248   0.31403   0.32587   0.34310   0.34464
     Eigenvalues ---    0.35711   0.35806   0.35877   0.35899   0.35943
     Eigenvalues ---    0.35969   0.35991   0.36100   0.36497   0.43309
     Eigenvalues ---    0.43445   0.43720   0.45844   0.47342   0.47596
     Eigenvalues ---    0.48155   0.48266   0.48379   0.50981   0.59204
     Eigenvalues ---    0.60746
 RFO step:  Lambda=-1.64659733D-04 EMin= 6.03085045D-03
 Quartic linear search produced a step of -0.11500.
 Iteration  1 RMS(Cart)=  0.02955190 RMS(Int)=  0.00016106
 Iteration  2 RMS(Cart)=  0.00028210 RMS(Int)=  0.00000429
 Iteration  3 RMS(Cart)=  0.00000003 RMS(Int)=  0.00000429
 Variable       Old X    -DE/DX   Delta X   Delta X   Delta X     New X
                                 (Linear)    (Quad)   (Total)
    R1        2.85220  -0.00180  -0.00210  -0.00239  -0.00449   2.84771
    R2        2.64986  -0.00081  -0.00185   0.00072  -0.00113   2.64873
    R3        2.52373  -0.00111  -0.00206   0.00083  -0.00124   2.52250
    R4        2.88393  -0.00411  -0.00302  -0.00803  -0.01105   2.87288
    R5        2.07661   0.00056  -0.00148   0.00322   0.00174   2.07835
    R6        2.08403  -0.00012  -0.00179   0.00185   0.00006   2.08409
    R7        2.64460  -0.00256  -0.00268  -0.00158  -0.00427   2.64033
    R8        2.65113  -0.00158  -0.00259   0.00011  -0.00248   2.64864
    R9        2.64090  -0.00159  -0.00269   0.00028  -0.00240   2.63850
   R10        2.06322   0.00038  -0.00253   0.00399   0.00146   2.06468
   R11        2.63268  -0.00097  -0.00222   0.00097  -0.00125   2.63143
   R12        2.06545  -0.00039  -0.00272   0.00232  -0.00041   2.06504
   R13        2.63862  -0.00072  -0.00246   0.00175  -0.00071   2.63791
   R14        2.06496  -0.00043  -0.00276   0.00227  -0.00049   2.06446
   R15        2.63281  -0.00173  -0.00243  -0.00018  -0.00261   2.63020
   R16        2.06549  -0.00040  -0.00274   0.00231  -0.00043   2.06506
   R17        2.06759  -0.00022  -0.00284   0.00288   0.00004   2.06763
   R18        2.63011  -0.00135  -0.00179  -0.00022  -0.00201   2.62810
   R19        2.06484  -0.00027  -0.00275   0.00264  -0.00010   2.06474
   R20        2.63431  -0.00114  -0.00158  -0.00015  -0.00173   2.63258
   R21        2.06537  -0.00032  -0.00260   0.00234  -0.00027   2.06510
   R22        2.63454  -0.00036  -0.00183   0.00153  -0.00030   2.63423
   R23        2.06323  -0.00034  -0.00281   0.00255  -0.00026   2.06297
   R24        2.51709  -0.00158  -0.00243   0.00061  -0.00182   2.51527
   R25        2.07186  -0.00054  -0.00299   0.00227  -0.00072   2.07114
    A1        2.11470  -0.00039   0.00071  -0.00222  -0.00150   2.11319
    A2        2.04374  -0.00085  -0.00135  -0.00136  -0.00270   2.04103
    A3        2.12461   0.00124   0.00066   0.00355   0.00420   2.12882
    A4        2.02264  -0.00320  -0.00384  -0.00872  -0.01254   2.01009
    A5        1.87154   0.00115   0.00187   0.00430   0.00619   1.87773
    A6        1.90772   0.00092   0.00034   0.00152   0.00186   1.90958
    A7        1.89051   0.00095   0.00019   0.00472   0.00492   1.89543
    A8        1.89256   0.00082  -0.00015   0.00107   0.00093   1.89349
    A9        1.87355  -0.00051   0.00194  -0.00256  -0.00062   1.87293
   A10        2.15459  -0.00249  -0.00128  -0.00717  -0.00845   2.14615
   A11        2.06670   0.00126   0.00028   0.00423   0.00450   2.07121
   A12        2.06188   0.00123   0.00100   0.00293   0.00393   2.06580
   A13        2.10862  -0.00038  -0.00048  -0.00113  -0.00161   2.10701
   A14        2.09480  -0.00019   0.00003  -0.00131  -0.00128   2.09352
   A15        2.07974   0.00058   0.00046   0.00244   0.00289   2.08263
   A16        2.10196  -0.00019  -0.00015  -0.00042  -0.00058   2.10138
   A17        2.08692  -0.00008   0.00006  -0.00074  -0.00068   2.08624
   A18        2.09430   0.00027   0.00009   0.00117   0.00126   2.09555
   A19        2.08254   0.00013   0.00036   0.00052   0.00088   2.08342
   A20        2.10056  -0.00006  -0.00016  -0.00025  -0.00041   2.10015
   A21        2.10007  -0.00007  -0.00020  -0.00027  -0.00046   2.09961
   A22        2.09609  -0.00017  -0.00006  -0.00022  -0.00028   2.09581
   A23        2.09573   0.00023   0.00001   0.00093   0.00094   2.09667
   A24        2.09136  -0.00006   0.00005  -0.00071  -0.00066   2.09070
   A25        2.11526  -0.00062  -0.00065  -0.00168  -0.00233   2.11293
   A26        2.08032   0.00041   0.00031   0.00143   0.00174   2.08207
   A27        2.08760   0.00021   0.00034   0.00024   0.00059   2.08819
   A28        2.07904  -0.00010  -0.00052   0.00045  -0.00008   2.07897
   A29        2.09374   0.00008   0.00038  -0.00019   0.00019   2.09393
   A30        2.11038   0.00002   0.00015  -0.00024  -0.00009   2.11028
   A31        2.07400  -0.00063  -0.00002  -0.00225  -0.00228   2.07173
   A32        2.10337   0.00021   0.00005   0.00049   0.00054   2.10391
   A33        2.10581   0.00042  -0.00003   0.00176   0.00174   2.10755
   A34        2.05840   0.00024   0.00002   0.00097   0.00099   2.05939
   A35        2.11844   0.00004  -0.00029   0.00071   0.00041   2.11885
   A36        2.10634  -0.00027   0.00028  -0.00168  -0.00140   2.10494
   A37        2.15379   0.00076   0.00013   0.00268   0.00281   2.15660
   A38        2.09978  -0.00038   0.00172  -0.00347  -0.00175   2.09803
   A39        2.02961  -0.00038  -0.00185   0.00080  -0.00106   2.02855
   A40        2.07650  -0.00151  -0.00025  -0.00538  -0.00563   2.07087
    D1       -1.48906   0.00003   0.00433  -0.01585  -0.01153  -1.50059
    D2        2.68080   0.00002   0.00521  -0.01947  -0.01427   2.66653
    D3        0.65509  -0.00047   0.00168  -0.01957  -0.01789   0.63719
    D4        1.63483   0.00003   0.00572  -0.01740  -0.01167   1.62316
    D5       -0.47849   0.00003   0.00660  -0.02102  -0.01442  -0.49290
    D6       -2.50420  -0.00047   0.00307  -0.02112  -0.01804  -2.52224
    D7        3.11577   0.00009   0.00160   0.00177   0.00336   3.11914
    D8       -0.01883   0.00002   0.00105  -0.00012   0.00092  -0.01791
    D9       -0.00730   0.00010   0.00014   0.00344   0.00359  -0.00370
   D10        3.14129   0.00003  -0.00040   0.00155   0.00115  -3.14075
   D11       -3.11747  -0.00014  -0.00148  -0.00325  -0.00473  -3.12220
   D12        0.00632  -0.00015  -0.00007  -0.00487  -0.00494   0.00138
   D13        0.17036  -0.00030   0.00199  -0.02626  -0.02427   0.14609
   D14       -2.97614  -0.00036   0.00155  -0.02919  -0.02763  -3.00377
   D15        2.27347  -0.00023   0.00200  -0.02294  -0.02095   2.25251
   D16       -0.87304  -0.00028   0.00157  -0.02587  -0.02431  -0.89735
   D17       -1.98175   0.00011   0.00433  -0.02287  -0.01854  -2.00029
   D18        1.15493   0.00006   0.00389  -0.02580  -0.02190   1.13303
   D19        3.13122  -0.00003   0.00017  -0.00206  -0.00189   3.12934
   D20       -0.01852  -0.00001   0.00039  -0.00157  -0.00117  -0.01969
   D21       -0.00547   0.00003   0.00061   0.00085   0.00146  -0.00401
   D22        3.12797   0.00005   0.00083   0.00135   0.00218   3.13015
   D23       -3.13040   0.00004  -0.00021   0.00211   0.00191  -3.12849
   D24        0.01220   0.00006  -0.00015   0.00276   0.00262   0.01482
   D25        0.00655  -0.00002  -0.00064  -0.00069  -0.00133   0.00522
   D26       -3.13404  -0.00001  -0.00057  -0.00004  -0.00062  -3.13466
   D27        0.00112  -0.00002  -0.00024  -0.00064  -0.00088   0.00025
   D28        3.13850   0.00000   0.00012  -0.00012   0.00000   3.13850
   D29       -3.13239  -0.00004  -0.00046  -0.00111  -0.00157  -3.13396
   D30        0.00499  -0.00001  -0.00009  -0.00060  -0.00069   0.00430
   D31        0.00231   0.00000  -0.00012   0.00021   0.00010   0.00241
   D32        3.13891   0.00003   0.00017   0.00095   0.00112   3.14003
   D33       -3.13505  -0.00002  -0.00048  -0.00030  -0.00078  -3.13583
   D34        0.00155   0.00001  -0.00020   0.00044   0.00024   0.00179
   D35       -0.00126  -0.00000   0.00009  -0.00005   0.00004  -0.00122
   D36        3.13640   0.00001   0.00026   0.00007   0.00033   3.13673
   D37       -3.13786  -0.00003  -0.00019  -0.00079  -0.00098  -3.13884
   D38       -0.00020  -0.00002  -0.00002  -0.00067  -0.00069  -0.00089
   D39       -0.00325   0.00001   0.00030   0.00030   0.00060  -0.00265
   D40        3.13734  -0.00000   0.00023  -0.00035  -0.00011   3.13722
[...]
 Alpha virt. eigenvalues --    2.71687   2.74263   2.74466   2.74781   2.75352
 Alpha virt. eigenvalues --    2.76517   2.77404   2.77837   2.78218   2.79646
 Alpha virt. eigenvalues --    2.80651   2.80711   2.83347   2.85393   2.86129
 Alpha virt. eigenvalues --    2.86600   2.87978   2.88347   2.88515   2.89610
 Alpha virt. eigenvalues --    2.90058   2.92025   2.92711   2.93215   2.94647
 Alpha virt. eigenvalues --    2.95569   2.96196   2.97731   2.98979   3.00949
 Alpha virt. eigenvalues --    3.01552   3.02380   3.05587   3.06079   3.08423
 Alpha virt. eigenvalues --    3.10583   3.10782   3.12065   3.12326   3.14223
 Alpha virt. eigenvalues --    3.15840   3.17694   3.18578   3.19883   3.20792
 Alpha virt. eigenvalues --    3.21231   3.22241   3.22549   3.23516   3.23896
 Alpha virt. eigenvalues --    3.24633   3.25306   3.25947   3.27022   3.27857
 Alpha virt. eigenvalues --    3.29106   3.30651   3.31826   3.32678   3.33968
 Alpha virt. eigenvalues --    3.34964   3.36244   3.36986   3.37620   3.39066
 Alpha virt. eigenvalues --    3.40492   3.41489   3.41998   3.43283   3.43855
 Alpha virt. eigenvalues --    3.44685   3.45732   3.46954   3.48304   3.49475
 Alpha virt. eigenvalues --    3.50951   3.52297   3.52799   3.53869   3.54271
 Alpha virt. eigenvalues --    3.55127   3.57707   3.58433   3.59063   3.59885
 Alpha virt. eigenvalues --    3.61952   3.63688   3.64862   3.65528   3.68165
 Alpha virt. eigenvalues --    3.68928   3.70479   3.73247   3.74364   3.78385
 Alpha virt. eigenvalues --    3.79765   3.81317   3.84088   3.85007   3.85670
 Alpha virt. eigenvalues --    3.88913   3.89487   3.92244   3.94140   3.95319
 Alpha virt. eigenvalues --    3.96989   3.98432   3.99581   4.02100   4.04944
 Alpha virt. eigenvalues --    4.06686   4.09306   4.09569   4.11391   4.12850
 Alpha virt. eigenvalues --    4.14753   4.16492   4.20848   4.22604   4.23545
 Alpha virt. eigenvalues --    4.25407   4.27191   4.28763   4.29266   4.29868
 Alpha virt. eigenvalues --    4.30694   4.33238   4.33922   4.36901   4.39345
 Alpha virt. eigenvalues --    4.39616   4.40622   4.42829   4.44751   4.45883
 Alpha virt. eigenvalues --    4.49831   4.52257   4.54174   4.58979   4.61027
 Alpha virt. eigenvalues --    4.64817   4.69079   4.70394   4.76037   4.77084
 Alpha virt. eigenvalues --    4.79590   4.80515   4.81825   4.84157   4.85095
 Alpha virt. eigenvalues --    4.95095   4.96918   5.01717   5.02094   5.03828
 Alpha virt. eigenvalues --    5.06488   5.06843   5.12901   5.17121   5.17381
 Alpha virt. eigenvalues --    5.23430   5.27514   5.30338   5.31478   5.36414
 Alpha virt. eigenvalues --    5.41507   5.45806   5.49842   5.51571   5.53552
 Alpha virt. eigenvalues --    5.55938   5.73188   5.75236   5.82237   5.90848
 Alpha virt. eigenvalues --    6.19951  22.13455  22.42372  22.61167  22.67806
 Alpha virt. eigenvalues --   22.69759  22.71802  22.78659  22.83978  22.89496
 Alpha virt. eigenvalues --   22.99012  23.20333  23.30675  32.63790
          Condensed to atoms (all electrons):
               1          2          3          4          5          6
     1  C    4.824194   0.300901  -0.014660  -0.008134   0.002411  -0.000418
     2  C    0.300901   5.075869   0.306063  -0.102332   0.010359  -0.004677
     3  C   -0.014660   0.306063   5.042948   0.376556   0.027907  -0.099102
     4  C   -0.008134  -0.102332   0.376556   5.133249   0.414568   0.045964
     5  C    0.002411   0.010359   0.027907   0.414568   4.942385   0.423619
     6  C   -0.000418  -0.004677  -0.099102   0.045964   0.423619   4.942731
     7  C    0.000930   0.014931   0.029500  -0.090716   0.020390   0.443553
     8  C   -0.007009  -0.067682   0.383311   0.047820  -0.088255   0.037800
     9  C    0.494118  -0.063262   0.000131   0.006852  -0.000956   0.000315
    10  C   -0.022378  -0.000211   0.002082  -0.000532   0.000127  -0.000034
    11  C   -0.045260   0.000844  -0.000486   0.000031  -0.000027   0.000008
    12  C   -0.083845   0.000379   0.000114   0.000962   0.000080   0.000016
    13  N    0.452435  -0.084347  -0.011915   0.003011  -0.000652   0.000327
    14  H   -0.057017   0.392816  -0.017331  -0.004280  -0.000085   0.000466
    15  H   -0.039527   0.432288  -0.069012   0.008415  -0.000736   0.000283
    16  H   -0.007063  -0.010158  -0.055902   0.432128  -0.050506   0.011050
    17  H    0.000087  -0.000143   0.012696  -0.056544   0.442909  -0.056592
    18  H    0.000002   0.000067  -0.002642   0.009973  -0.054199   0.440210
    19  H    0.000031  -0.000193   0.013262  -0.004182   0.011031  -0.055111
    20  H   -0.002003  -0.003739  -0.069108   0.014343  -0.003740   0.009851
    21  H   -0.044274   0.008137  -0.002904  -0.000667  -0.000013  -0.000017
    22  H    0.007003  -0.000377   0.000039   0.000035  -0.000001   0.000001
    23  H   -0.000608   0.000165   0.000001  -0.000009   0.000001  -0.000000
    24  H    0.006753  -0.000148   0.000172   0.000085  -0.000008  -0.000002
               7          8          9         10         11         12
     1  C    0.000930  -0.007009   0.494118  -0.022378  -0.045260  -0.083845
     2  C    0.014931  -0.067682  -0.063262  -0.000211   0.000844   0.000379
     3  C    0.029500   0.383311   0.000131   0.002082  -0.000486   0.000114
     4  C   -0.090716   0.047820   0.006852  -0.000532   0.000031   0.000962
     5  C    0.020390  -0.088255  -0.000956   0.000127  -0.000027   0.000080
     6  C    0.443553   0.037800   0.000315  -0.000034   0.000008   0.000016
     7  C    4.921259   0.420268  -0.001187   0.000082   0.000001  -0.000033
     8  C    0.420268   5.082212   0.004895  -0.000830   0.000048  -0.000122
     9  C   -0.001187   0.004895   4.963027   0.504620  -0.020231  -0.043622
    10  C    0.000082  -0.000830   0.504620   4.826774   0.490886  -0.003833
    11  C    0.000001   0.000048  -0.020231   0.490886   4.937320   0.492618
    12  C   -0.000033  -0.000122  -0.043622  -0.003833   0.492618   4.742321
    13  N   -0.000319   0.001998  -0.051030  -0.023066  -0.057075   0.530774
    14  H   -0.001384   0.005552   0.009994  -0.000930   0.000455   0.001066
    15  H    0.000616   0.004535   0.001678   0.000579   0.000077  -0.000373
    16  H   -0.004621   0.013658   0.002136  -0.000081   0.000612   0.000311
    17  H    0.010201  -0.003156   0.000007  -0.000001  -0.000002  -0.000010
    18  H   -0.053541   0.009791  -0.000001   0.000000  -0.000000   0.000000
    19  H    0.442801  -0.058698  -0.000011   0.000000  -0.000000   0.000000
    20  H   -0.049017   0.439483   0.001221  -0.000146   0.000016  -0.000013
    21  H    0.000037   0.001598   0.414752  -0.042981   0.007379  -0.001383
    22  H   -0.000003  -0.000010  -0.041374   0.428000  -0.043095   0.004458
    23  H    0.000000  -0.000002   0.006285  -0.050608   0.417873  -0.033799
    24  H    0.000001   0.000001  -0.001825   0.005665  -0.073919   0.434657
              13         14         15         16         17         18
     1  C    0.452435  -0.057017  -0.039527  -0.007063   0.000087   0.000002
     2  C   -0.084347   0.392816   0.432288  -0.010158  -0.000143   0.000067
     3  C   -0.011915  -0.017331  -0.069012  -0.055902   0.012696  -0.002642
     4  C    0.003011  -0.004280   0.008415   0.432128  -0.056544   0.009973
     5  C   -0.000652  -0.000085  -0.000736  -0.050506   0.442909  -0.054199
     6  C    0.000327   0.000466   0.000283   0.011050  -0.056592   0.440210
     7  C   -0.000319  -0.001384   0.000616  -0.004621   0.010201  -0.053541
     8  C    0.001998   0.005552   0.004535   0.013658  -0.003156   0.009791
     9  C   -0.051030   0.009994   0.001678   0.002136   0.000007  -0.000001
    10  C   -0.023066  -0.000930   0.000579  -0.000081  -0.000001   0.000000
    11  C   -0.057075   0.000455   0.000077   0.000612  -0.000002  -0.000000
    12  C    0.530774   0.001066  -0.000373   0.000311  -0.000010   0.000000
    13  N    6.544202   0.010353   0.003588   0.024219  -0.000080   0.000000
    14  H    0.010353   0.551061  -0.020658   0.003210  -0.000017  -0.000001
    15  H    0.003588  -0.020658   0.546077   0.000433   0.000004  -0.000001
    16  H    0.024219   0.003210   0.000433   0.505301  -0.006738  -0.000075
    17  H   -0.000080  -0.000017   0.000004  -0.006738   0.545937  -0.006961
    18  H    0.000000  -0.000001  -0.000001  -0.000075  -0.006961   0.546301
    19  H   -0.000000   0.000004  -0.000068   0.000014  -0.000129  -0.006934
    20  H    0.000036   0.000873   0.002662   0.000000   0.000044  -0.000160
    21  H    0.005183   0.000131  -0.001032  -0.000139   0.000001  -0.000000
    22  H   -0.001155   0.000014  -0.000007   0.000007  -0.000000   0.000000
    23  H    0.005869  -0.000013  -0.000004  -0.000025   0.000000  -0.000000
    24  H   -0.032602  -0.000137   0.000000  -0.000544   0.000002  -0.000000
              19         20         21         22         23         24
     1  C    0.000031  -0.002003  -0.044274   0.007003  -0.000608   0.006753
     2  C   -0.000193  -0.003739   0.008137  -0.000377   0.000165  -0.000148
     3  C    0.013262  -0.069108  -0.002904   0.000039   0.000001   0.000172
     4  C   -0.004182   0.014343  -0.000667   0.000035  -0.000009   0.000085
     5  C    0.011031  -0.003740  -0.000013  -0.000001   0.000001  -0.000008
     6  C   -0.055111   0.009851  -0.000017   0.000001  -0.000000  -0.000002
     7  C    0.442801  -0.049017   0.000037  -0.000003   0.000000   0.000001
     8  C   -0.058698   0.439483   0.001598  -0.000010  -0.000002   0.000001
     9  C   -0.000011   0.001221   0.414752  -0.041374   0.006285  -0.001825
    10  C    0.000000  -0.000146  -0.042981   0.428000  -0.050608   0.005665
    11  C   -0.000000   0.000016   0.007379  -0.043095   0.417873  -0.073919
    12  C    0.000000  -0.000013  -0.001383   0.004458  -0.033799   0.434657
    13  N   -0.000000   0.000036   0.005183  -0.001155   0.005869  -0.032602
    14  H    0.000004   0.000873   0.000131   0.000014  -0.000013  -0.000137
    15  H   -0.000068   0.002662  -0.001032  -0.000007  -0.000004   0.000000
    16  H    0.000014   0.000000  -0.000139   0.000007  -0.000025  -0.000544
    17  H   -0.000129   0.000044   0.000001  -0.000000   0.000000   0.000002
    18  H   -0.006934  -0.000160  -0.000000   0.000000  -0.000000  -0.000000
    19  H    0.548394  -0.007110  -0.000004  -0.000000   0.000000   0.000000
    20  H   -0.007110   0.557364   0.000405  -0.000001  -0.000000  -0.000000
    21  H   -0.000004   0.000405   0.535073  -0.005876  -0.000021   0.000103
    22  H   -0.000000  -0.000001  -0.005876   0.525698  -0.005951  -0.000197
    23  H    0.000000  -0.000000  -0.000021  -0.005951   0.532506  -0.002147
    24  H    0.000000  -0.000000   0.000103  -0.000197  -0.002147   0.538394
 Mulliken charges:
               1
     1  C    0.243332
     2  C   -0.205550
     3  C    0.148282
     4  C   -0.226596
     5  C   -0.096607
     6  C   -0.140240
     7  C   -0.103748
     8  C   -0.227207
     9  C   -0.186532
    10  C   -0.113185
    11  C   -0.108070
    12  C   -0.040723
    13  N   -0.319754
    14  H    0.125858
    15  H    0.130183
    16  H    0.142772
    17  H    0.118484
    18  H    0.118169
    19  H    0.116903
    20  H    0.108739
    21  H    0.126511
    22  H    0.132791
    23  H    0.130488
    24  H    0.125698
 Sum of Mulliken charges =  -0.00000
 Mulliken charges with hydrogens summed into heavy atoms:
               1
     1  C    0.243332
     2  C    0.050492
     3  C    0.148282
     4  C   -0.083823
     5  C    0.021877
     6  C   -0.022071
     7  C    0.013155
     8  C   -0.118468
     9  C   -0.060021
    10  C    0.019606
    11  C    0.022418
    12  C    0.084974
    13  N   -0.319754
 Electronic spatial extent (au):  <R**2>=           2688.9078
 Charge=             -0.0000 electrons
 Dipole moment (field-independent basis, Debye):
    X=             -0.9690    Y=             -1.2489    Z=              1.1436  Tot=              1.9510
 Quadrupole moment (field-independent basis, Debye-Ang):
   XX=            -69.1126   YY=            -69.6145   ZZ=            -77.9297
   XY=             -0.1850   XZ=             -2.0511   YZ=              1.0072
 Traceless Quadrupole moment (field-independent basis, Debye-Ang):
   XX=              3.1063   YY=              2.6044   ZZ=             -5.7107
   XY=             -0.1850   XZ=             -2.0511   YZ=              1.0072
 Octapole moment (field-independent basis, Debye-Ang**2):
  XXX=            -19.1428  YYY=             -0.8781  ZZZ=             -2.8467  XYY=             -0.1697
  XXY=              6.0061  XXZ=             35.4097  XZZ=             -5.5356  YZZ=             -3.8426
  YYZ=              4.3451  XYZ=              3.9220
 Hexadecapole moment (field-independent basis, Debye-Ang**3):
 XXXX=          -2685.2609 YYYY=           -531.1183 ZZZZ=           -356.8854 XXXY=            -45.6790
 XXXZ=              0.9992 YYYX=             -7.1596 YYYZ=              0.6124 ZZZX=             -9.7323
 ZZZY=             -1.4941 XXYY=           -517.5123 XXZZ=           -522.9943 YYZZ=           -157.6765
 XXYZ=             -2.9949 YYXZ=             -1.8068 ZZXY=             10.8474
 N-N= 6.986392177658D+02 E-N=-2.601035182939D+03  KE= 5.157548631187D+02
 Breneman (CHELPG) radii used.
 Read replacement radii for each type of atom:
 Atom Element Radius
    1     6    1.50
    2     6    1.50
    3     6    1.50
    4     6    1.50
    5     6    1.50
    6     6    1.50
    7     6    1.50
    8     6    1.50
    9     6    1.50
   10     6    1.50
   11     6    1.50
   12     6    1.50
   13     7    1.70
   14     1    1.45
   15     1    1.45
   16     1    1.45
   17     1    1.45
   18     1    1.45
   19     1    1.45
   20     1    1.45
   21     1    1.45
   22     1    1.45
   23     1    1.45
   24     1    1.45
 Generate Potential Derived Charges using the Breneman model, NDens= 1.
 Grid spacing= 0.300 Box extension= 2.800
 NStep X,Y,Z=   50     36     34   Total possible points=       61200
 Number of Points to Fit=   15852

 **********************************************************************

            Electrostatic Properties Using The SCF Density.

 **********************************************************************

       Atomic Center    1 is at  -1.273106 -0.321790 -0.602857
       Atomic Center    2 is at  -0.015383 -0.640059 -1.379345
       Atomic Center    3 is at   1.235924 -0.251584 -0.616273
       Atomic Center    4 is at   1.484091  1.092703 -0.310396
       Atomic Center    5 is at   2.621820  1.458640  0.403476
       Atomic Center    6 is at   3.530457  0.486596  0.825521
       Atomic Center    7 is at   3.291099 -0.852917  0.528559
       Atomic Center    8 is at   2.149709 -1.217490 -0.186917
       Atomic Center    9 is at  -1.838225 -1.257366  0.272461
       Atomic Center   10 is at  -2.970387 -0.905126  0.998472
       Atomic Center   11 is at  -3.503406  0.371201  0.831345
       Atomic Center   12 is at  -2.869094  1.233144 -0.060460
       Atomic Center   13 is at  -1.786725  0.900423 -0.760528
       Atomic Center   14 is at  -0.058565 -0.084802 -2.327720
       Atomic Center   15 is at   0.016800 -1.713066 -1.617836
       Atomic Center   16 is at   0.764075  1.849481 -0.632083
       Atomic Center   17 is at   2.802075  2.511404  0.633002
       Atomic Center   18 is at   4.423283  0.774572  1.384911
       Atomic Center   19 is at   3.995890 -1.621397  0.854344
       Atomic Center   20 is at   1.969517 -2.271142 -0.418081
       Atomic Center   21 is at  -1.387367 -2.246146  0.380115
       Atomic Center   22 is at  -3.431523 -1.617078  1.686857
       Atomic Center   23 is at  -4.390830  0.694262  1.378107
       Atomic Center   24 is at  -3.257274  2.245250 -0.219429
   15852 points will be used for fitting atomic charges
 Fitting point charges to electrostatic potential
 Charges from ESP fit, RMS=   0.00409 RRMS=   0.35366:
 ESP charges:
               1
     1  C    0.618234
     2  C   -0.377067
     3  C    0.264433
     4  C   -0.206584
     5  C   -0.059467
     6  C   -0.129988
     7  C   -0.065164
     8  C   -0.226275
     9  C   -0.447030
    10  C    0.170880
    11  C   -0.350352
    12  C    0.347249
    13  N   -0.611314
    14  H    0.094619
    15  H    0.101832
    16  H    0.118888
    17  H    0.089740
    18  H    0.093908
    19  H    0.089063
    20  H    0.112868
    21  H    0.148737
    22  H    0.065863
    23  H    0.127544
    24  H    0.029383
 Sum of ESP charges =   0.00000
 ESP charges with hydrogens summed into heavy atoms:
               1
     1  C    0.618234
     2  C   -0.180615
     3  C    0.264433
     4  C   -0.087696
     5  C    0.030274
     6  C   -0.036080
     7  C    0.023899
     8  C   -0.113408
     9  C   -0.298293
    10  C    0.236743
    11  C   -0.222809
    12  C    0.376632
    13  N   -0.611314
 Charge=   0.00000 Dipole=    -0.9380    -1.2726     1.0527 Tot=     1.8994
 -----------------------------------------------------------------

              Electrostatic Properties (Atomic Units)

 -----------------------------------------------------------------
    Center     Electric         -------- Electric Field --------
               Potential          X             Y             Z
 -----------------------------------------------------------------
    1 Atom    -14.726550
    2 Atom    -14.761228
    3 Atom    -14.760944
    4 Atom    -14.777559
    5 Atom    -14.773079
    6 Atom    -14.773682
    7 Atom    -14.771848
    8 Atom    -14.772703
    9 Atom    -14.761189
   10 Atom    -14.749272
   11 Atom    -14.761302
   12 Atom    -14.735515
   13 Atom    -18.401523
   14 Atom     -1.115339
   15 Atom     -1.112448
   16 Atom     -1.116170
   17 Atom     -1.112120
   18 Atom     -1.111066
   19 Atom     -1.109742
   20 Atom     -1.108243
   21 Atom     -1.094268
   22 Atom     -1.090543
   23 Atom     -1.093870
   24 Atom     -1.105591
 -----------------------------------------------------------------
 Unable to Open any file for archive entry.
 1\1\GINC-NOTCH212\SP\RwB97XD\def2TZVP\C12H11N1\U1112142\19-Dec-2025\0\
 \#N Guess=Read Geom=Check Integral(Ultrafine) Density Pop=(ChelpG,Read
 Radii) NMR wB97XD def2TZVP\\Py6_5\\0,1\C,0,-1.2960485486,-0.173678706,
 0.5479747166\C,0,-0.1200579168,-0.8622161667,1.2029996444\C,0,1.183180
 3112,-0.5613268831,0.4888600213\C,0,1.3734995673,-0.9815470659,-0.8338
 077648\C,0,2.5599475694,-0.6967881505,-1.5040338044\C,0,3.5762021402,0
 .0146825239,-0.8639956373\C,0,3.3953368497,0.4390965147,0.4501328677\C
 ,0,2.2049796478,0.152789314,1.1199597065\C,0,-1.6887515833,1.112838525
 5,0.9372090912\C,0,-2.7486297342,1.7241836584,0.2770043382\C,0,-3.3834
 191273,1.0345345126,-0.7537610302\C,0,-2.9190955028,-0.2400204478,-1.0
 708240372\N,0,-1.9068132324,-0.8316034077,-0.4402407061\H,0,-0.3126735
 789,-1.9448348568,1.1823274729\H,0,-0.043183204,-0.553299421,2.2555769
 633\H,0,0.5706295869,-1.5277815959,-1.3354521289\H,0,2.693847529,-1.03
 2616725,-2.5349444774\H,0,4.5071089195,0.2370485948,-1.3902592422\H,0,
 4.1844055182,0.9966131387,0.960008887\H,0,2.0710087478,0.4876235604,2.
 152444855\H,0,-1.1619823893,1.6230841268,1.746351218\H,0,-3.0756393409
 ,2.7266966713,0.5623617034\H,0,-4.2200203291,1.4717091285,-1.301314307
 2\H,0,-3.3914218994,-0.8144568433,-1.8753383498\\Version=ES64L-G16RevC
 .01\State=1-A\HF=-518.6546161\RMSD=3.629e-09\Dipole=-0.2910439,0.67870
 54,0.2093604\Quadrupole=1.8661371,-2.9606036,1.0944665,-1.9847422,1.16
 17385,2.1091096\PG=C01 [X(C12H11N1)]\\@
 The archive entry for this job was punched.


 THE RED LIGHT IS ALWAYS LONGER THAN THE GREEN LIGHT.

                     -- PETER'S THEORY OF RELATIVITY
 Job cpu time:       0 days  0 hours 50 minutes 28.5 seconds.
 Elapsed time:       0 days  0 hours  3 minutes 20.7 seconds.
 File lengths (MBytes):  RWF=    141 Int=      0 D2E=      0 Chk=     21 Scr=      2
 Normal termination of Gaussian 16 at Fri Dec 19 04:46:49 2025.
