 Entering Gaussian System, Link 0=g16
 Input=1236666_4.com
 Output=1236666_4.log
 Initial command:
 /uufs/chpc.utah.edu/sys/installdir/gaussian16/C01/AVX/g16/l1.exe "/scratch/general/vast/u6053008/1287186-notchpeak.peaks/Gau-3166180.inp" -scrdir="/scratch/general/vast/u6053008/1287186-notchpeak.peaks/"
 Entering Link 1 = /uufs/chpc.utah.edu/sys/installdir/gaussian16/C01/AVX/g16/l1.exe PID=   3166185.
  
 Copyright (c) 1988-2019, Gaussian, Inc.  All Rights Reserved.
  
 This is part of the Gaussian(R) 16 program.  It is based on
 the Gaussian(R) 09 system (copyright 2009, Gaussian, Inc.),
 the Gaussian(R) 03 system (copyright 2003, Gaussian, Inc.),
 the Gaussian(R) 98 system (copyright 1998, Gaussian, Inc.),
 the Gaussian(R) 94 system (copyright 1995, Gaussian, Inc.),
 the Gaussian 92(TM) system (copyright 1992, Gaussian, Inc.),
 the Gaussian 90(TM) system (copyright 1990, Gaussian, Inc.),
 the Gaussian 88(TM) system (copyright 1988, Gaussian, Inc.),
 the Gaussian 86(TM) system (copyright 1986, Carnegie Mellon
 University), and the Gaussian 82(TM) system (copyright 1983,
 Carnegie Mellon University). Gaussian is a federally registered
 trademark of Gaussian, Inc.
  
 This software contains proprietary and confidential information,
 including trade secrets, belonging to Gaussian, Inc.
  
 This software is provided under written license and may be
 used, copied, transmitted, or stored only in accord with that
 written license.
  
 The following legend is applicable only to US Government
 contracts under FAR:
  
                    RESTRICTED RIGHTS LEGEND
  
 Use, reproduction and disclosure by the US Government is
 subject to restrictions as set forth in subparagraphs (a)
 and (c) of the Commercial Computer Software - Restricted
 Rights clause in FAR 52.227-19.
  
 Gaussian, Inc.
 340 Quinnipiac St., Bldg. 40, Wallingford CT 06492
  
  
 ---------------------------------------------------------------
 Warning -- This program may not be used in any manner that
 competes with the business of Gaussian, Inc. or will provide
 assistance to any competitor of Gaussian, Inc.  The licensee
 of this program is prohibited from giving any competitor of
 Gaussian, Inc. access to this program.  By using this program,
 the user acknowledges that Gaussian, Inc. is engaged in the
 business of creating and licensing software in the field of
 computational chemistry and represents and warrants to the
 licensee that it is not a competitor of Gaussian, Inc. and that
 it will not use this program in any manner prohibited above.
 ---------------------------------------------------------------
  

 Cite this work as:
 Gaussian 16, Revision C.01,
 M. J. Frisch, G. W. Trucks, H. B. Schlegel, G. E. Scuseria, 
 M. A. Robb, J. R. Cheeseman, G. Scalmani, V. Barone, 
 G. A. Petersson, H. Nakatsuji, X. Li, M. Caricato, A. V. Marenich, 
 J. Bloino, B. G. Janesko, R. Gomperts, B. Mennucci, H. P. Hratchian, 
 J. V. Ortiz, A. F. Izmaylov, J. L. Sonnenberg, D. Williams-Young, 
 F. Ding, F. Lipparini, F. Egidi, J. Goings, B. Peng, A. Petrone, 
 T. Henderson, D. Ranasinghe, V. G. Zakrzewski, J. Gao, N. Rega, 
 G. Zheng, W. Liang, M. Hada, M. Ehara, K. Toyota, R. Fukuda, 
 J. Hasegawa, M. Ishida, T. Nakajima, Y. Honda, O. Kitao, H. Nakai, 
 T. Vreven, K. Throssell, J. A. Montgomery, Jr., J. E. Peralta, 
 F. Ogliaro, M. J. Bearpark, J. J. Heyd, E. N. Brothers, K. N. Kudin, 
 V. N. Staroverov, T. A. Keith, R. Kobayashi, J. Normand, 
 K. Raghavachari, A. P. Rendell, J. C. Burant, S. S. Iyengar, 
 J. Tomasi, M. Cossi, J. M. Millam, M. Klene, C. Adamo, R. Cammi, 
 J. W. Ochterski, R. L. Martin, K. Morokuma, O. Farkas, 
 J. B. Foresman, and D. J. Fox, Gaussian, Inc., Wallingford CT, 2019.
 
 ******************************************
 Gaussian 16:  ES64L-G16RevC.01  3-Jul-2019
                12-Jul-2024 
 ******************************************
 %NProcShared=16
 Will use up to   16 processors via shared memory.
 %Mem=32GB
 %chk=1236666_4.chk
 ------------------------------------------------------
 #N OPT FREQ=NORAMAN Integral(Ultrafine) wB97XD def2SVP
 ------------------------------------------------------
 1/18=20,19=15,26=4,38=1/1,3;
 2/9=110,12=2,17=6,18=5,40=1/2;
 3/5=43,7=101,11=2,25=1,30=1,71=1,74=-58,75=-5/1,2,3;
 4//1;
 5/5=2,38=5/2;
 6/7=2,8=2,9=2,10=2,28=1/1;
 7//1,2,3,16;
 1/18=20,19=15,26=4/3(2);
 2/9=110/2;
 99//99;
 2/9=110/2;
 3/5=43,7=101,11=2,25=1,30=1,71=1,74=-58,75=-5/1,2,3;
 4/5=5,16=3,69=1/1;
 5/5=2,38=5/2;
 7//1,2,3,16;
 1/18=20,19=15,26=4/3(-5);
 2/9=110/2;
 6/7=2,8=2,9=2,10=2,19=2,28=1/1;
 99/9=1/99;
 ---------
 1236666_4
 ---------
 Symbolic Z-matrix:
 Charge =  0 Multiplicity = 1
 N                     3.44449  -1.58609   0.19658 
 C                     2.56902  -0.53421   0.07434 
 C                     2.97881   0.78415   0.35778 
 C                     2.02669   1.7854    0.26725 
 N                     0.75855   1.60085  -0.08521 
 C                     0.35508   0.35456  -0.37022 
 N                    -0.95826   0.20653  -0.76207 
 C                    -1.56454  -1.09265  -0.95338 
 C                    -2.15153  -1.62367   0.36668 
 C                    -2.65047  -0.44249   1.2201 
 C                    -3.11558   0.71012   0.32875 
 C                    -1.93457   1.2577   -0.49991 
 C                     1.23542  -0.74588  -0.2868 
 H                     4.43188  -1.37375   0.21068 
 H                     3.20418  -2.456    -0.25734 
 H                     4.00572   1.00871   0.65125 
 H                     2.31293   2.81944   0.49333 
 H                    -0.85457  -1.79574  -1.40662 
 H                    -2.36934  -0.96858  -1.69657 
 H                    -2.97424  -2.32256   0.14336 
 H                    -1.39225  -2.19399   0.92401 
 H                    -1.83047  -0.08023   1.86212 
 H                    -3.45548  -0.7666    1.89646 
 H                    -3.54685   1.52391   0.9307 
 H                    -3.92511   0.35535  -0.33202 
 H                    -1.41056   2.05637   0.03777 
 H                    -2.296     1.69003  -1.45034 
 H                     0.89685  -1.76346  -0.47935 
 

 GradGradGradGradGradGradGradGradGradGradGradGradGradGradGradGradGradGrad
 Berny optimization.
 Initialization pass.
                           ----------------------------
                           !    Initial Parameters    !
                           ! (Angstroms and Degrees)  !
 --------------------------                            --------------------------
 ! Name  Definition              Value          Derivative Info.                !
 --------------------------------------------------------------------------------
 ! R1    R(1,2)                  1.374          estimate D2E/DX2                !
 ! R2    R(1,14)                 1.0101         estimate D2E/DX2                !
 ! R3    R(1,15)                 1.0102         estimate D2E/DX2                !
 ! R4    R(2,3)                  1.4094         estimate D2E/DX2                !
 ! R5    R(2,13)                 1.3978         estimate D2E/DX2                !
 ! R6    R(3,4)                  1.3846         estimate D2E/DX2                !
 ! R7    R(3,16)                 1.0914         estimate D2E/DX2                !
 ! R8    R(4,5)                  1.3291         estimate D2E/DX2                !
 ! R9    R(4,17)                 1.0965         estimate D2E/DX2                !
 ! R10   R(5,6)                  1.3406         estimate D2E/DX2                !
 ! R11   R(6,7)                  1.3785         estimate D2E/DX2                !
 ! R12   R(6,13)                 1.4117         estimate D2E/DX2                !
 ! R13   R(7,8)                  1.4464         estimate D2E/DX2                !
 ! R14   R(7,12)                 1.4584         estimate D2E/DX2                !
 ! R15   R(8,9)                  1.5392         estimate D2E/DX2                !
 ! R16   R(8,18)                 1.0972         estimate D2E/DX2                !
 ! R17   R(8,19)                 1.1025         estimate D2E/DX2                !
 ! R18   R(9,10)                 1.5403         estimate D2E/DX2                !
 ! R19   R(9,20)                 1.1023         estimate D2E/DX2                !
 ! R20   R(9,21)                 1.1011         estimate D2E/DX2                !
 ! R21   R(10,11)                1.5295         estimate D2E/DX2                !
 ! R22   R(10,22)                1.1026         estimate D2E/DX2                !
 ! R23   R(10,23)                1.1003         estimate D2E/DX2                !
 ! R24   R(11,12)                1.5431         estimate D2E/DX2                !
 ! R25   R(11,24)                1.1003         estimate D2E/DX2                !
 ! R26   R(11,25)                1.1035         estimate D2E/DX2                !
 ! R27   R(12,26)                1.0962         estimate D2E/DX2                !
 ! R28   R(12,27)                1.1049         estimate D2E/DX2                !
 ! R29   R(13,28)                1.0896         estimate D2E/DX2                !
 ! A1    A(2,1,14)             117.5921         estimate D2E/DX2                !
 ! A2    A(2,1,15)             117.8847         estimate D2E/DX2                !
 ! A3    A(14,1,15)            114.8245         estimate D2E/DX2                !
 ! A4    A(1,2,3)              120.8619         estimate D2E/DX2                !
 ! A5    A(1,2,13)             120.9963         estimate D2E/DX2                !
 ! A6    A(3,2,13)             118.1013         estimate D2E/DX2                !
 ! A7    A(2,3,4)              117.6022         estimate D2E/DX2                !
 ! A8    A(2,3,16)             121.3414         estimate D2E/DX2                !
 ! A9    A(4,3,16)             121.0515         estimate D2E/DX2                !
 ! A10   A(3,4,5)              124.9618         estimate D2E/DX2                !
 ! A11   A(3,4,17)             119.271          estimate D2E/DX2                !
 ! A12   A(5,4,17)             115.7666         estimate D2E/DX2                !
 ! A13   A(4,5,6)              118.2046         estimate D2E/DX2                !
 ! A14   A(5,6,7)              116.5505         estimate D2E/DX2                !
 ! A15   A(5,6,13)             121.6293         estimate D2E/DX2                !
 ! A16   A(7,6,13)             121.8167         estimate D2E/DX2                !
 ! A17   A(6,7,8)              122.2354         estimate D2E/DX2                !
 ! A18   A(6,7,12)             120.6171         estimate D2E/DX2                !
 ! A19   A(8,7,12)             112.991          estimate D2E/DX2                !
 ! A20   A(7,8,9)              110.8735         estimate D2E/DX2                !
 ! A21   A(7,8,18)             111.0384         estimate D2E/DX2                !
 ! A22   A(7,8,19)             107.1019         estimate D2E/DX2                !
 ! A23   A(9,8,18)             112.3322         estimate D2E/DX2                !
 ! A24   A(9,8,19)             109.7901         estimate D2E/DX2                !
 ! A25   A(18,8,19)            105.4272         estimate D2E/DX2                !
 ! A26   A(8,9,10)             109.5212         estimate D2E/DX2                !
 ! A27   A(8,9,20)             109.2449         estimate D2E/DX2                !
 ! A28   A(8,9,21)             110.4765         estimate D2E/DX2                !
 ! A29   A(10,9,20)            110.8966         estimate D2E/DX2                !
 ! A30   A(10,9,21)            109.8847         estimate D2E/DX2                !
 ! A31   A(20,9,21)            106.7861         estimate D2E/DX2                !
 ! A32   A(9,10,11)            110.702          estimate D2E/DX2                !
 ! A33   A(9,10,22)            109.4909         estimate D2E/DX2                !
 ! A34   A(9,10,23)            110.5919         estimate D2E/DX2                !
 ! A35   A(11,10,22)           108.5352         estimate D2E/DX2                !
 ! A36   A(11,10,23)           110.962          estimate D2E/DX2                !
 ! A37   A(22,10,23)           106.437          estimate D2E/DX2                !
 ! A38   A(10,11,12)           110.3421         estimate D2E/DX2                !
 ! A39   A(10,11,24)           110.9614         estimate D2E/DX2                !
 ! A40   A(10,11,25)           109.2541         estimate D2E/DX2                !
 ! A41   A(12,11,24)           109.3486         estimate D2E/DX2                !
 ! A42   A(12,11,25)           110.7298         estimate D2E/DX2                !
 ! A43   A(24,11,25)           106.1303         estimate D2E/DX2                !
 ! A44   A(7,12,11)            110.6777         estimate D2E/DX2                !
 ! A45   A(7,12,26)            107.0566         estimate D2E/DX2                !
 ! A46   A(7,12,27)            110.266          estimate D2E/DX2                !
 ! A47   A(11,12,26)           111.1616         estimate D2E/DX2                !
 ! A48   A(11,12,27)           110.5122         estimate D2E/DX2                !
 ! A49   A(26,12,27)           107.0504         estimate D2E/DX2                !
 ! A50   A(2,13,6)             119.4852         estimate D2E/DX2                !
 ! A51   A(2,13,28)            118.9183         estimate D2E/DX2                !
 ! A52   A(6,13,28)            121.5864         estimate D2E/DX2                !
 ! D1    D(14,1,2,3)           -18.5426         estimate D2E/DX2                !
 ! D2    D(14,1,2,13)          163.8157         estimate D2E/DX2                !
 ! D3    D(15,1,2,3)          -162.881          estimate D2E/DX2                !
 ! D4    D(15,1,2,13)           19.4773         estimate D2E/DX2                !
 ! D5    D(1,2,3,4)           -177.3164         estimate D2E/DX2                !
 ! D6    D(1,2,3,16)             1.8831         estimate D2E/DX2                !
 ! D7    D(13,2,3,4)             0.392          estimate D2E/DX2                !
 ! D8    D(13,2,3,16)          179.5915         estimate D2E/DX2                !
 ! D9    D(1,2,13,6)           178.4084         estimate D2E/DX2                !
 ! D10   D(1,2,13,28)           -0.4588         estimate D2E/DX2                !
 ! D11   D(3,2,13,6)             0.7033         estimate D2E/DX2                !
 ! D12   D(3,2,13,28)         -178.164          estimate D2E/DX2                !
 ! D13   D(2,3,4,5)             -0.9987         estimate D2E/DX2                !
 ! D14   D(2,3,4,17)           179.2915         estimate D2E/DX2                !
 ! D15   D(16,3,4,5)           179.7993         estimate D2E/DX2                !
 ! D16   D(16,3,4,17)            0.0895         estimate D2E/DX2                !
 ! D17   D(3,4,5,6)              0.396          estimate D2E/DX2                !
 ! D18   D(17,4,5,6)          -179.8851         estimate D2E/DX2                !
 ! D19   D(4,5,6,7)           -178.5248         estimate D2E/DX2                !
 ! D20   D(4,5,6,13)             0.8037         estimate D2E/DX2                !
 ! D21   D(5,6,7,8)           -172.9085         estimate D2E/DX2                !
 ! D22   D(5,6,7,12)           -17.4377         estimate D2E/DX2                !
 ! D23   D(13,6,7,8)             7.7644         estimate D2E/DX2                !
 ! D24   D(13,6,7,12)          163.2351         estimate D2E/DX2                !
 ! D25   D(5,6,13,2)            -1.3539         estimate D2E/DX2                !
 ! D26   D(5,6,13,28)          177.4821         estimate D2E/DX2                !
 ! D27   D(7,6,13,2)           177.9392         estimate D2E/DX2                !
 ! D28   D(7,6,13,28)           -3.2248         estimate D2E/DX2                !
 ! D29   D(6,7,8,9)             87.5736         estimate D2E/DX2                !
 ! D30   D(6,7,8,18)           -38.0448         estimate D2E/DX2                !
 ! D31   D(6,7,8,19)          -152.6611         estimate D2E/DX2                !
 ! D32   D(12,7,8,9)           -69.5895         estimate D2E/DX2                !
 ! D33   D(12,7,8,18)          164.7921         estimate D2E/DX2                !
 ! D34   D(12,7,8,19)           50.1758         estimate D2E/DX2                !
 ! D35   D(6,7,12,11)         -122.6819         estimate D2E/DX2                !
 ! D36   D(6,7,12,26)           -1.3894         estimate D2E/DX2                !
 ! D37   D(6,7,12,27)          114.7291         estimate D2E/DX2                !
 ! D38   D(8,7,12,11)           34.8935         estimate D2E/DX2                !
 ! D39   D(8,7,12,26)          156.186          estimate D2E/DX2                !
 ! D40   D(8,7,12,27)          -87.6955         estimate D2E/DX2                !
 ! D41   D(7,8,9,10)            32.1792         estimate D2E/DX2                !
 ! D42   D(7,8,9,20)           153.8211         estimate D2E/DX2                !
 ! D43   D(7,8,9,21)           -88.9923         estimate D2E/DX2                !
 ! D44   D(18,8,9,10)          157.0697         estimate D2E/DX2                !
 ! D45   D(18,8,9,20)          -81.2884         estimate D2E/DX2                !
 ! D46   D(18,8,9,21)           35.8982         estimate D2E/DX2                !
 ! D47   D(19,8,9,10)          -85.9653         estimate D2E/DX2                !
 ! D48   D(19,8,9,20)           35.6766         estimate D2E/DX2                !
 ! D49   D(19,8,9,21)          152.8633         estimate D2E/DX2                !
 ! D50   D(8,9,10,11)           30.2057         estimate D2E/DX2                !
 ! D51   D(8,9,10,22)          -89.4142         estimate D2E/DX2                !
 ! D52   D(8,9,10,23)          153.6091         estimate D2E/DX2                !
 ! D53   D(20,9,10,11)         -90.4375         estimate D2E/DX2                !
 ! D54   D(20,9,10,22)         149.9427         estimate D2E/DX2                !
 ! D55   D(20,9,10,23)          32.9659         estimate D2E/DX2                !
 ! D56   D(21,9,10,11)         151.7342         estimate D2E/DX2                !
 ! D57   D(21,9,10,22)          32.1143         estimate D2E/DX2                !
 ! D58   D(21,9,10,23)         -84.8625         estimate D2E/DX2                !
 ! D59   D(9,10,11,12)         -63.1451         estimate D2E/DX2                !
 ! D60   D(9,10,11,24)         175.4943         estimate D2E/DX2                !
 ! D61   D(9,10,11,25)          58.8179         estimate D2E/DX2                !
 ! D62   D(22,10,11,12)         57.0474         estimate D2E/DX2                !
 ! D63   D(22,10,11,24)        -64.3132         estimate D2E/DX2                !
 ! D64   D(22,10,11,25)        179.0104         estimate D2E/DX2                !
 ! D65   D(23,10,11,12)        173.6654         estimate D2E/DX2                !
 ! D66   D(23,10,11,24)         52.3048         estimate D2E/DX2                !
 ! D67   D(23,10,11,25)        -64.3717         estimate D2E/DX2                !
 ! D68   D(10,11,12,7)          29.336          estimate D2E/DX2                !
 ! D69   D(10,11,12,26)        -89.4988         estimate D2E/DX2                !
 ! D70   D(10,11,12,27)        151.7814         estimate D2E/DX2                !
 ! D71   D(24,11,12,7)         151.65           estimate D2E/DX2                !
 ! D72   D(24,11,12,26)         32.8152         estimate D2E/DX2                !
 ! D73   D(24,11,12,27)        -85.9045         estimate D2E/DX2                !
 ! D74   D(25,11,12,7)         -91.7517         estimate D2E/DX2                !
 ! D75   D(25,11,12,26)        149.4135         estimate D2E/DX2                !
 ! D76   D(25,11,12,27)         30.6938         estimate D2E/DX2                !
 --------------------------------------------------------------------------------
 Trust Radius=3.00D-01 FncErr=1.00D-07 GrdErr=1.00D-06 EigMax=2.50D+02 EigMin=1.00D-04
 Number of steps in this run=    167 maximum allowed number of steps=    168.
 GradGradGradGradGradGradGradGradGradGradGradGradGradGradGradGradGradGrad

                          Input orientation:                          
 ---------------------------------------------------------------------
 Center     Atomic      Atomic             Coordinates (Angstroms)
 Number     Number       Type             X           Y           Z
 ---------------------------------------------------------------------
      1          7           0        3.444490   -1.586090    0.196580
      2          6           0        2.569020   -0.534210    0.074340
      3          6           0        2.978810    0.784150    0.357780
      4          6           0        2.026690    1.785400    0.267250
      5          7           0        0.758550    1.600850   -0.085210
      6          6           0        0.355080    0.354560   -0.370220
      7          7           0       -0.958260    0.206530   -0.762070
      8          6           0       -1.564540   -1.092650   -0.953380
      9          6           0       -2.151530   -1.623670    0.366680
     10          6           0       -2.650470   -0.442490    1.220100
     11          6           0       -3.115580    0.710120    0.328750
     12          6           0       -1.934570    1.257700   -0.499910
     13          6           0        1.235420   -0.745880   -0.286800
     14          1           0        4.431880   -1.373750    0.210680
     15          1           0        3.204180   -2.456000   -0.257340
     16          1           0        4.005720    1.008710    0.651250
     17          1           0        2.312930    2.819440    0.493330
     18          1           0       -0.854570   -1.795740   -1.406620
     19          1           0       -2.369340   -0.968580   -1.696570
     20          1           0       -2.974240   -2.322560    0.143360
     21          1           0       -1.392250   -2.193990    0.924010
     22          1           0       -1.830470   -0.080230    1.862120
     23          1           0       -3.455480   -0.766600    1.896460
     24          1           0       -3.546850    1.523910    0.930700
     25          1           0       -3.925110    0.355350   -0.332020
     26          1           0       -1.410560    2.056370    0.037770
     27          1           0       -2.296000    1.690030   -1.450340
     28          1           0        0.896850   -1.763460   -0.479350
 ---------------------------------------------------------------------
                    Distance matrix (angstroms):
                    1          2          3          4          5
     1  N    0.000000
     2  C    1.373988   0.000000
     3  C    2.420926   1.409375   0.000000
     4  C    3.658155   2.389964   1.384641   0.000000
     5  N    4.177352   2.803879   2.406822   1.329085   0.000000
     6  C    3.692132   2.426742   2.756536   2.290841   1.340618
     7  N    4.849402   3.699998   4.133791   3.530192   2.312943
     8  C    5.162971   4.295856   5.087588   4.761307   3.661340
     9  C    5.598731   4.853450   5.667280   5.393437   4.366955
    10  C    6.285217   5.344554   5.825550   5.267565   4.183359
    11  C    6.951587   5.824754   6.094909   5.253851   3.996704
    12  C    6.124257   4.880884   5.010108   4.069224   2.746384
    13  C    2.412385   1.397754   2.407464   2.709328   2.403162
    14  H    1.010062   2.047844   2.605683   3.970940   4.735942
    15  H    1.010216   2.051028   3.305713   4.432962   4.740123
    16  H    2.693453   2.185757   1.091373   2.160385   3.381881
    17  H    4.558200   3.389410   2.145734   1.096487   2.058098
    18  H    4.593051   3.937724   4.946084   4.891632   3.985612
    19  H    6.145401   5.264238   5.991254   5.546717   4.356851
    20  H    6.461061   5.825006   6.718365   6.473020   5.420250
    21  H    4.928768   4.378181   5.319408   5.287346   4.477195
    22  H    5.732961   4.770510   5.112667   4.571856   3.649815
    23  H    7.153373   6.298311   6.795031   6.262684   5.223972
    24  H    7.686993   6.509461   6.592399   5.618976   4.424304
    25  H    7.639346   6.567356   6.951533   6.150455   4.852716
    26  H    6.071593   4.748631   4.581214   3.455542   2.219833
    27  H    6.811647   5.562402   5.649207   4.652404   3.346910
    28  H    2.641744   2.147971   3.394946   3.798468   3.390141
                    6          7          8          9         10
     6  C    0.000000
     7  N    1.378521   0.000000
     8  C    2.473749   1.446390   0.000000
     9  C    3.277119   2.459187   1.539187   0.000000
    10  C    3.492526   2.685852   2.515148   1.540277   0.000000
    11  C    3.558154   2.469316   2.701770   2.525353   1.529491
    12  C    2.464747   1.458378   2.422128   3.016677   2.522220
    13  C    1.411710   2.438278   2.899026   3.559351   4.178868
    14  H    4.465960   5.700626   6.114827   6.589999   7.214281
    15  H    4.003668   4.966863   5.008382   5.455805   6.365059
    16  H    3.846880   5.223223   6.165902   6.702397   6.836259
    17  H    3.264128   4.370814   5.694927   6.299894   5.983621
    18  H    2.676036   2.106011   1.097187   2.203703   3.457774
    19  H    3.306413   2.060418   1.102464   2.175680   2.977040
    20  H    4.302918   3.358612   2.168587   1.102348   2.190630
    21  H    3.350119   2.965419   2.183398   1.101085   2.176819
    22  H    3.154206   2.780172   3.003790   2.172931   1.102643
    23  H    4.573314   3.775033   3.435630   2.185196   1.100251
    24  H    4.276076   3.361809   3.784930   3.488882   2.180362
    25  H    4.280361   3.001548   2.838148   2.747779   2.161095
    26  H    2.485980   2.065485   3.304908   3.768277   3.029783
    27  H    3.158855   2.112827   2.919814   3.781936   3.435774
    28  H    2.188934   2.720703   2.594828   3.166690   4.149286
                   11         12         13         14         15
    11  C    0.000000
    12  C    1.543148   0.000000
    13  C    4.629259   3.756140   0.000000
    14  H    7.830748   6.925399   3.295309   0.000000
    15  H    7.092756   6.344853   2.607948   1.702221   0.000000
    16  H    7.134849   6.055924   3.410731   2.460047   3.670452
    17  H    5.826237   4.633229   3.805409   4.706664   5.402601
    18  H    3.795130   3.363334   2.593118   5.544393   4.269688
    19  H    2.734379   2.564633   3.877027   7.075193   5.945412
    20  H    3.041627   3.783249   4.515772   7.466953   6.192838
    21  H    3.429002   3.773039   3.235388   5.924705   4.753042
    22  H    2.151136   2.716630   3.802713   6.604353   5.956853
    23  H    2.180355   3.486194   5.174128   8.088321   7.200278
    24  H    1.100269   2.171856   5.431792   8.519096   7.926382
    25  H    1.103548   2.191956   5.276914   8.551233   7.663944
    26  H    2.191837   1.096157   3.867707   6.777147   6.460990
    27  H    2.190227   1.104924   4.445043   7.576946   6.990336
    28  H    4.782386   4.140624   1.089575   3.622769   2.419230
                   16         17         18         19         20
    16  H    0.000000
    17  H    2.483791   0.000000
    18  H    5.976804   5.911240   0.000000
    19  H    7.075544   6.408464   1.750084   0.000000
    20  H    7.750816   7.383550   2.678242   2.363156   0.000000
    21  H    6.282497   6.248866   2.424776   3.053486   1.768795
    22  H    6.059134   5.239221   3.818379   3.707266   3.048014
    23  H    7.769928   6.935633   4.328302   3.759037   2.392898
    24  H    7.575278   6.017201   4.871500   3.808095   3.967760
    25  H    8.018214   6.757669   3.900022   2.456666   2.881205
    26  H    5.550679   3.828079   4.151402   3.616285   4.650943
    27  H    6.677766   5.127929   3.772297   2.670995   4.370443
    28  H    4.316046   4.894319   1.982005   3.575116   3.960517
                   21         22         23         24         25
    21  H    0.000000
    22  H    2.353735   0.000000
    23  H    2.690728   1.764353   0.000000
    24  H    4.297107   2.527206   2.487464   0.000000
    25  H    3.806852   3.064555   2.538789   1.761555   0.000000
    26  H    4.341810   2.840711   3.950391   2.375831   3.058296
    27  H    4.641111   3.784565   4.310510   2.694731   2.384536
    28  H    2.719330   3.969133   5.057764   5.704517   5.269000
                   26         27         28
    26  H    0.000000
    27  H    1.769938   0.000000
    28  H    4.492511   4.802469   0.000000
 Stoichiometry    C10H15N3
 Framework group  C1[X(C10H15N3)]
 Deg. of freedom    78
 Full point group                 C1      NOp   1
 Largest Abelian subgroup         C1      NOp   1
 Largest concise Abelian subgroup C1      NOp   1
                         Standard orientation:                         
 ---------------------------------------------------------------------
 Center     Atomic      Atomic             Coordinates (Angstroms)
 Number     Number       Type             X           Y           Z
 ---------------------------------------------------------------------
      1          7           0        3.444488   -1.586092    0.196579
      2          6           0        2.569019   -0.534212    0.074339
      3          6           0        2.978809    0.784148    0.357779
      4          6           0        2.026689    1.785399    0.267249
      5          7           0        0.758549    1.600849   -0.085211
      6          6           0        0.355079    0.354559   -0.370221
      7          7           0       -0.958261    0.206529   -0.762071
      8          6           0       -1.564542   -1.092651   -0.953381
      9          6           0       -2.151532   -1.623671    0.366679
     10          6           0       -2.650471   -0.442491    1.220099
     11          6           0       -3.115581    0.710119    0.328749
     12          6           0       -1.934571    1.257699   -0.499911
     13          6           0        1.235419   -0.745881   -0.286801
     14          1           0        4.431878   -1.373752    0.210679
     15          1           0        3.204178   -2.456002   -0.257341
     16          1           0        4.005719    1.008708    0.651249
     17          1           0        2.312929    2.819438    0.493329
     18          1           0       -0.854572   -1.795741   -1.406621
     19          1           0       -2.369342   -0.968581   -1.696571
     20          1           0       -2.974242   -2.322561    0.143359
     21          1           0       -1.392252   -2.193991    0.924009
     22          1           0       -1.830471   -0.080231    1.862119
     23          1           0       -3.455481   -0.766601    1.896459
     24          1           0       -3.546851    1.523909    0.930699
     25          1           0       -3.925111    0.355350   -0.332021
     26          1           0       -1.410561    2.056369    0.037769
     27          1           0       -2.296001    1.690029   -1.450341
     28          1           0        0.896848   -1.763461   -0.479351
 ---------------------------------------------------------------------
 Rotational constants (GHZ):           1.6168114           0.5274074           0.4434017
 Standard basis: def2SVP (5D, 7F)
 There are   270 symmetry adapted cartesian basis functions of A   symmetry.
 There are   257 symmetry adapted basis functions of A   symmetry.
   257 basis functions,   430 primitive gaussians,   270 cartesian basis functions
    48 alpha electrons       48 beta electrons
       nuclear repulsion energy       808.1535805284 Hartrees.
 NAtoms=   28 NActive=   28 NUniq=   28 SFac= 1.00D+00 NAtFMM=   60 NAOKFM=F Big=F
 Integral buffers will be    131072 words long.
 Raffenetti 2 integral format.
 Two-electron integral symmetry is turned on.
 Nuclear repulsion after empirical dispersion term =      808.1335313018 Hartrees.
 One-electron integrals computed using PRISM.
   1 Symmetry operations used in ECPInt.
 ECPInt:  NShTT=    7626 NPrTT=   27010 LenC2=    7356 LenP2D=   19668.
 LDataN:  DoStor=T MaxTD1= 4 Len=   56
 NBasis=   257 RedAO= T EigKep=  5.45D-04  NBF=   257
 NBsUse=   257 1.00D-06 EigRej= -1.00D+00 NBFU=   257
 ExpMin= 1.22D-01 ExpMax= 1.71D+03 ExpMxC= 2.58D+02 IAcc=3 IRadAn=         5 AccDes= 0.00D+00
 Harris functional with IExCor= 4639 and IRadAn=       5 diagonalized for initial guess.
 HarFok:  IExCor= 4639 AccDes= 0.00D+00 IRadAn=         5 IDoV= 1 UseB2=F ITyADJ=14
 ICtDFT=  3500011 ScaDFX=  1.000000  1.000000  1.000000  1.000000
 FoFCou: FMM=F IPFlag=           0 FMFlag=      100000 FMFlg1=           0
         NFxFlg=           0 DoJE=T BraDBF=F KetDBF=T FulRan=T
         wScrn=  0.000000 ICntrl=       500 IOpCl=  0 I1Cent=   200000004 NGrid=           0
         NMat0=    1 NMatS0=      1 NMatT0=    0 NMatD0=    1 NMtDS0=    0 NMtDT0=    0
 Petite list used in FoFCou.
 Requested convergence on RMS density matrix=1.00D-08 within 128 cycles.
 Requested convergence on MAX density matrix=1.00D-06.
 Requested convergence on             energy=1.00D-06.
 No special actions if energy rises.
 Integral accuracy reduced to 1.0D-05 until final iterations.
 Initial convergence to 1.0D-05 achieved.  Increase integral accuracy.
 SCF Done:  E(RwB97XD) =  -553.794400743     A.U. after   15 cycles
            NFock= 15  Conv=0.84D-08     -V/T= 2.0114

 **********************************************************************

            Population analysis using the SCF Density.

 **********************************************************************

 Orbital symmetries:
       Occupied  (A) (A) (A) (A) (A) (A) (A) (A) (A) (A) (A) (A)
                 (A) (A) (A) (A) (A) (A) (A) (A) (A) (A) (A) (A)
                 (A) (A) (A) (A) (A) (A) (A) (A) (A) (A) (A) (A)
                 (A) (A) (A) (A) (A) (A) (A) (A) (A) (A) (A) (A)
       Virtual   (A) (A) (A) (A) (A) (A) (A) (A) (A) (A) (A) (A)
                 (A) (A) (A) (A) (A) (A) (A) (A) (A) (A) (A) (A)
                 (A) (A) (A) (A) (A) (A) (A) (A) (A) (A) (A) (A)
                 (A) (A) (A) (A) (A) (A) (A) (A) (A) (A) (A) (A)
                 (A) (A) (A) (A) (A) (A) (A) (A) (A) (A) (A) (A)
                 (A) (A) (A) (A) (A) (A) (A) (A) (A) (A) (A) (A)
                 (A) (A) (A) (A) (A) (A) (A) (A) (A) (A) (A) (A)
                 (A) (A) (A) (A) (A) (A) (A) (A) (A) (A) (A) (A)
                 (A) (A) (A) (A) (A) (A) (A) (A) (A) (A) (A) (A)
                 (A) (A) (A) (A) (A) (A) (A) (A) (A) (A) (A) (A)
                 (A) (A) (A) (A) (A) (A) (A) (A) (A) (A) (A) (A)
                 (A) (A) (A) (A) (A) (A) (A) (A) (A) (A) (A) (A)
                 (A) (A) (A) (A) (A) (A) (A) (A) (A) (A) (A) (A)
                 (A) (A) (A) (A) (A) (A) (A) (A) (A) (A) (A) (A)
                 (A) (A) (A) (A) (A) (A) (A) (A) (A) (A) (A) (A)
                 (A) (A) (A) (A) (A) (A) (A) (A) (A) (A) (A) (A)
                 (A) (A) (A) (A) (A) (A) (A) (A) (A) (A) (A) (A)
                 (A) (A) (A) (A) (A)
 The electronic state is 1-A.
 Alpha  occ. eigenvalues --  -14.45596 -14.44705 -14.40421 -10.35784 -10.34607
 Alpha  occ. eigenvalues --  -10.32559 -10.31841 -10.31069 -10.29285 -10.29103
 Alpha  occ. eigenvalues --  -10.29025 -10.28033 -10.27744  -1.05738  -1.01735
 Alpha  occ. eigenvalues --   -0.99103  -0.88719  -0.85848  -0.83931  -0.82788
 Alpha  occ. eigenvalues --   -0.75480  -0.72550  -0.69855  -0.68656  -0.64045
 Alpha  occ. eigenvalues --   -0.61700  -0.60887  -0.57547  -0.56992  -0.55112
 Alpha  occ. eigenvalues --   -0.54281  -0.52552  -0.50294  -0.50198  -0.49155
 Alpha  occ. eigenvalues --   -0.48325  -0.46960  -0.45898  -0.44352  -0.43803
 Alpha  occ. eigenvalues --   -0.43601  -0.41520  -0.40029  -0.39349  -0.35572
 Alpha  occ. eigenvalues --   -0.31951  -0.29389  -0.26308
 Alpha virt. eigenvalues --    0.07595   0.09306   0.13175   0.13817   0.15550
 Alpha virt. eigenvalues --    0.16809   0.17276   0.18014   0.20171   0.20455
 Alpha virt. eigenvalues --    0.21168   0.21868   0.22328   0.23580   0.24094
 Alpha virt. eigenvalues --    0.25970   0.26191   0.26835   0.27016   0.28774
 Alpha virt. eigenvalues --    0.29783   0.31942   0.33509   0.34981   0.35754
 Alpha virt. eigenvalues --    0.37886   0.39328   0.40156   0.40239   0.42542
 Alpha virt. eigenvalues --    0.46326   0.48936   0.49760   0.51697   0.52981
 Alpha virt. eigenvalues --    0.53510   0.53951   0.54911   0.55721   0.57004
 Alpha virt. eigenvalues --    0.57702   0.60061   0.61021   0.63672   0.64272
 Alpha virt. eigenvalues --    0.65924   0.66224   0.67639   0.68306   0.68728
 Alpha virt. eigenvalues --    0.69915   0.70589   0.71749   0.72323   0.73232
 Alpha virt. eigenvalues --    0.73630   0.75209   0.75456   0.75678   0.76414
 Alpha virt. eigenvalues --    0.77194   0.77450   0.78165   0.78267   0.78649
 Alpha virt. eigenvalues --    0.80095   0.80765   0.81060   0.81280   0.82022
 Alpha virt. eigenvalues --    0.83299   0.83675   0.84999   0.86879   0.87592
 Alpha virt. eigenvalues --    0.88657   0.91631   0.92642   0.94967   0.97053
 Alpha virt. eigenvalues --    1.01427   1.04360   1.05432   1.09829   1.10594
 Alpha virt. eigenvalues --    1.11837   1.12707   1.14738   1.17139   1.19504
 Alpha virt. eigenvalues --    1.20937   1.22407   1.22540   1.28086   1.31231
 Alpha virt. eigenvalues --    1.32476   1.36116   1.37974   1.38459   1.40939
 Alpha virt. eigenvalues --    1.41556   1.43242   1.44643   1.46478   1.47779
 Alpha virt. eigenvalues --    1.50112   1.52228   1.54896   1.59462   1.60434
 Alpha virt. eigenvalues --    1.61562   1.63525   1.67852   1.72564   1.76547
 Alpha virt. eigenvalues --    1.77588   1.79761   1.80724   1.81544   1.83414
 Alpha virt. eigenvalues --    1.83676   1.84750   1.85540   1.86744   1.87107
 Alpha virt. eigenvalues --    1.88339   1.88815   1.89388   1.89573   1.90703
 Alpha virt. eigenvalues --    1.92078   1.92504   1.93369   1.93500   1.95122
 Alpha virt. eigenvalues --    1.95472   1.97528   1.97714   1.98751   2.00294
 Alpha virt. eigenvalues --    2.01716   2.02332   2.04459   2.06295   2.06714
 Alpha virt. eigenvalues --    2.08666   2.09874   2.10812   2.14308   2.14441
 Alpha virt. eigenvalues --    2.17426   2.20734   2.22686   2.23218   2.23704
 Alpha virt. eigenvalues --    2.24376   2.26839   2.27807   2.30258   2.33230
 Alpha virt. eigenvalues --    2.36072   2.38503   2.39475   2.40958   2.42942
 Alpha virt. eigenvalues --    2.43645   2.46732   2.47700   2.49093   2.50621
 Alpha virt. eigenvalues --    2.52153   2.56913   2.60873   2.62826   2.64823
 Alpha virt. eigenvalues --    2.66886   2.68602   2.70317   2.72133   2.72351
 Alpha virt. eigenvalues --    2.76937   2.78899   2.80899   2.82124   2.85338
 Alpha virt. eigenvalues --    2.88224   2.90841   2.91405   2.93377   2.93886
 Alpha virt. eigenvalues --    2.96956   2.98347   3.01582   3.03138   3.05159
 Alpha virt. eigenvalues --    3.07850   3.09272   3.12868   3.13380   3.14557
 Alpha virt. eigenvalues --    3.15869   3.16649   3.19235   3.25259   3.29331
 Alpha virt. eigenvalues --    3.36460   3.53056   3.61722   3.76518
          Condensed to atoms (all electrons):
               1          2          3          4          5          6
     1  N    6.126407   0.464020  -0.085019   0.005311  -0.000037   0.005665
     2  C    0.464020   4.830252   0.382040   0.015466  -0.044433   0.022173
     3  C   -0.085019   0.382040   5.175588   0.453397  -0.042338  -0.056608
     4  C    0.005311   0.015466   0.453397   4.659170   0.530142  -0.034579
     5  N   -0.000037  -0.044433  -0.042338   0.530142   6.385083   0.535856
     6  C    0.005665   0.022173  -0.056608  -0.034579   0.535856   4.744965
     7  N   -0.000013   0.006988   0.000057   0.003348  -0.097598   0.338448
     8  C   -0.000020  -0.000310   0.000031  -0.000275   0.004063  -0.046355
     9  C    0.000005  -0.000035  -0.000022   0.000024  -0.000311  -0.001281
    10  C    0.000000   0.000085  -0.000000  -0.000000  -0.000398  -0.004810
    11  C   -0.000000  -0.000004   0.000001   0.000041   0.002116   0.006223
    12  C    0.000001   0.000028  -0.000129   0.000053  -0.027653  -0.043907
    13  C   -0.098189   0.344420  -0.048830  -0.071123  -0.053541   0.419640
    14  H    0.367613  -0.005694  -0.023122   0.000411   0.000008  -0.000457
    15  H    0.367891  -0.002460   0.010895  -0.000440   0.000025   0.000567
    16  H   -0.010002  -0.060842   0.415113  -0.035421   0.005383   0.000770
    17  H   -0.000133   0.006891  -0.069259   0.420260  -0.041687   0.005572
    18  H    0.000005   0.002955  -0.000082  -0.000007  -0.000023  -0.020743
    19  H   -0.000000  -0.000069   0.000005   0.000007  -0.000114   0.007443
    20  H   -0.000000   0.000020  -0.000000  -0.000000   0.000003  -0.000073
    21  H   -0.000016  -0.000754   0.000025  -0.000010  -0.000016   0.003385
    22  H    0.000001   0.000117  -0.000053   0.000029   0.000204   0.001365
    23  H   -0.000000  -0.000003   0.000000   0.000000   0.000001  -0.000013
    24  H    0.000000  -0.000000   0.000000  -0.000001  -0.000080  -0.000034
    25  H   -0.000000  -0.000000  -0.000000  -0.000000  -0.000056  -0.000755
    26  H    0.000001   0.000041   0.000409   0.000950   0.042407  -0.011698
    27  H   -0.000000   0.000030  -0.000003  -0.000019   0.001336   0.002666
    28  H   -0.009578  -0.059644   0.013015  -0.000151   0.005719  -0.029914
               7          8          9         10         11         12
     1  N   -0.000013  -0.000020   0.000005   0.000000  -0.000000   0.000001
     2  C    0.006988  -0.000310  -0.000035   0.000085  -0.000004   0.000028
     3  C    0.000057   0.000031  -0.000022  -0.000000   0.000001  -0.000129
     4  C    0.003348  -0.000275   0.000024  -0.000000   0.000041   0.000053
     5  N   -0.097598   0.004063  -0.000311  -0.000398   0.002116  -0.027653
     6  C    0.338448  -0.046355  -0.001281  -0.004810   0.006223  -0.043907
     7  N    6.782128   0.344319  -0.070850   0.013987  -0.091686   0.346757
     8  C    0.344319   4.548212   0.410149  -0.065433   0.011005  -0.040815
     9  C   -0.070850   0.410149   4.746531   0.385410  -0.044328  -0.034885
    10  C    0.013987  -0.065433   0.385410   4.696008   0.400787  -0.051688
    11  C   -0.091686   0.011005  -0.044328   0.400787   4.771434   0.389627
    12  C    0.346757  -0.040815  -0.034885  -0.051688   0.389627   4.565575
    13  C   -0.112800   0.005482  -0.003302  -0.000656   0.000610   0.004382
    14  H    0.000003   0.000001  -0.000000  -0.000000   0.000000  -0.000000
    15  H    0.000002  -0.000018  -0.000004   0.000000  -0.000000  -0.000000
    16  H    0.000032   0.000001   0.000000   0.000000  -0.000000   0.000003
    17  H   -0.000073   0.000012  -0.000000  -0.000000  -0.000006   0.000134
    18  H   -0.006585   0.378716  -0.027238   0.008975  -0.001209   0.006521
    19  H   -0.027015   0.370451  -0.018940  -0.015431   0.003484  -0.005483
    20  H    0.006070  -0.021606   0.363972  -0.008897  -0.007822   0.000214
    21  H   -0.004362  -0.002070   0.358357  -0.018158   0.006814   0.000270
    22  H    0.000766  -0.012604  -0.002825   0.370724  -0.026586  -0.002880
    23  H    0.000397   0.007124  -0.018218   0.369524  -0.008226   0.006206
    24  H    0.004985  -0.000276   0.007574  -0.005933   0.367104  -0.015808
    25  H   -0.001670   0.001727  -0.009083  -0.028946   0.366107  -0.014595
    26  H   -0.029400   0.005156   0.000506  -0.007487  -0.001034   0.374181
    27  H   -0.030109  -0.005147  -0.001234   0.008603  -0.042536   0.391688
    28  H   -0.011439   0.007968  -0.004033  -0.000131  -0.000079  -0.000018
              13         14         15         16         17         18
     1  N   -0.098189   0.367613   0.367891  -0.010002  -0.000133   0.000005
     2  C    0.344420  -0.005694  -0.002460  -0.060842   0.006891   0.002955
     3  C   -0.048830  -0.023122   0.010895   0.415113  -0.069259  -0.000082
     4  C   -0.071123   0.000411  -0.000440  -0.035421   0.420260  -0.000007
     5  N   -0.053541   0.000008   0.000025   0.005383  -0.041687  -0.000023
     6  C    0.419640  -0.000457   0.000567   0.000770   0.005572  -0.020743
     7  N   -0.112800   0.000003   0.000002   0.000032  -0.000073  -0.006585
     8  C    0.005482   0.000001  -0.000018   0.000001   0.000012   0.378716
     9  C   -0.003302  -0.000000  -0.000004   0.000000  -0.000000  -0.027238
    10  C   -0.000656  -0.000000   0.000000   0.000000  -0.000000   0.008975
    11  C    0.000610   0.000000  -0.000000  -0.000000  -0.000006  -0.001209
    12  C    0.004382  -0.000000  -0.000000   0.000003   0.000134   0.006521
    13  C    5.328766   0.011950  -0.027026   0.012851   0.001130   0.006248
    14  H    0.011950   0.545750  -0.031515   0.005133  -0.000010  -0.000001
    15  H   -0.027026  -0.031515   0.547442  -0.000211   0.000013  -0.000025
    16  H    0.012851   0.005133  -0.000211   0.682143  -0.007080  -0.000000
    17  H    0.001130  -0.000010   0.000013  -0.007080   0.664508  -0.000000
    18  H    0.006248  -0.000001  -0.000025  -0.000000  -0.000000   0.653525
    19  H    0.000398   0.000000   0.000000   0.000000  -0.000000  -0.024129
    20  H   -0.000118  -0.000000   0.000000  -0.000000   0.000000   0.003079
    21  H    0.001188   0.000000  -0.000001   0.000000   0.000000  -0.014431
    22  H    0.000240  -0.000000   0.000000  -0.000000   0.000001  -0.000044
    23  H    0.000008   0.000000  -0.000000  -0.000000  -0.000000  -0.000288
    24  H   -0.000012  -0.000000   0.000000   0.000000   0.000000   0.000031
    25  H    0.000019  -0.000000   0.000000   0.000000   0.000000   0.000065
    26  H    0.003264  -0.000000  -0.000000  -0.000013  -0.000653  -0.000422
    27  H   -0.000358  -0.000000  -0.000000  -0.000000  -0.000005   0.000255
    28  H    0.405139  -0.000370   0.006193  -0.000175   0.000065  -0.004482
              19         20         21         22         23         24
     1  N   -0.000000  -0.000000  -0.000016   0.000001  -0.000000   0.000000
     2  C   -0.000069   0.000020  -0.000754   0.000117  -0.000003  -0.000000
     3  C    0.000005  -0.000000   0.000025  -0.000053   0.000000   0.000000
     4  C    0.000007  -0.000000  -0.000010   0.000029   0.000000  -0.000001
     5  N   -0.000114   0.000003  -0.000016   0.000204   0.000001  -0.000080
     6  C    0.007443  -0.000073   0.003385   0.001365  -0.000013  -0.000034
     7  N   -0.027015   0.006070  -0.004362   0.000766   0.000397   0.004985
     8  C    0.370451  -0.021606  -0.002070  -0.012604   0.007124  -0.000276
     9  C   -0.018940   0.363972   0.358357  -0.002825  -0.018218   0.007574
    10  C   -0.015431  -0.008897  -0.018158   0.370724   0.369524  -0.005933
    11  C    0.003484  -0.007822   0.006814  -0.026586  -0.008226   0.367104
    12  C   -0.005483   0.000214   0.000270  -0.002880   0.006206  -0.015808
    13  C    0.000398  -0.000118   0.001188   0.000240   0.000008  -0.000012
    14  H    0.000000  -0.000000   0.000000  -0.000000   0.000000  -0.000000
    15  H    0.000000   0.000000  -0.000001   0.000000  -0.000000   0.000000
    16  H    0.000000  -0.000000   0.000000  -0.000000  -0.000000   0.000000
    17  H   -0.000000   0.000000   0.000000   0.000001  -0.000000   0.000000
    18  H   -0.024129   0.003079  -0.014431  -0.000044  -0.000288   0.000031
    19  H    0.685359  -0.010428   0.007071  -0.000407   0.000187   0.000216
    20  H   -0.010428   0.676621  -0.026474   0.006588  -0.014084  -0.000092
    21  H    0.007071  -0.026474   0.671854  -0.014758   0.001648  -0.000318
    22  H   -0.000407   0.006588  -0.014758   0.661375  -0.025519  -0.006784
    23  H    0.000187  -0.014084   0.001648  -0.025519   0.662088  -0.005391
    24  H    0.000216  -0.000092  -0.000318  -0.006784  -0.005391   0.651938
    25  H   -0.003017   0.004626  -0.000048   0.008656  -0.007038  -0.027061
    26  H   -0.000163  -0.000017   0.000075   0.003513  -0.000029  -0.012635
    27  H    0.005682   0.000202  -0.000012  -0.000146  -0.000298   0.003666
    28  H    0.000211  -0.000020   0.002748   0.000008   0.000007   0.000000
              25         26         27         28
     1  N   -0.000000   0.000001  -0.000000  -0.009578
     2  C   -0.000000   0.000041   0.000030  -0.059644
     3  C   -0.000000   0.000409  -0.000003   0.013015
     4  C   -0.000000   0.000950  -0.000019  -0.000151
     5  N   -0.000056   0.042407   0.001336   0.005719
     6  C   -0.000755  -0.011698   0.002666  -0.029914
     7  N   -0.001670  -0.029400  -0.030109  -0.011439
     8  C    0.001727   0.005156  -0.005147   0.007968
     9  C   -0.009083   0.000506  -0.001234  -0.004033
    10  C   -0.028946  -0.007487   0.008603  -0.000131
    11  C    0.366107  -0.001034  -0.042536  -0.000079
    12  C   -0.014595   0.374181   0.391688  -0.000018
    13  C    0.000019   0.003264  -0.000358   0.405139
    14  H   -0.000000  -0.000000  -0.000000  -0.000370
    15  H    0.000000  -0.000000  -0.000000   0.006193
    16  H    0.000000  -0.000013  -0.000000  -0.000175
    17  H    0.000000  -0.000653  -0.000005   0.000065
    18  H    0.000065  -0.000422   0.000255  -0.004482
    19  H   -0.003017  -0.000163   0.005682   0.000211
    20  H    0.004626  -0.000017   0.000202  -0.000020
    21  H   -0.000048   0.000075  -0.000012   0.002748
    22  H    0.008656   0.003513  -0.000146   0.000008
    23  H   -0.007038  -0.000029  -0.000298   0.000007
    24  H   -0.027061  -0.012635   0.003666   0.000000
    25  H    0.698400   0.005336  -0.013083   0.000005
    26  H    0.005336   0.598214  -0.025671  -0.000135
    27  H   -0.013083  -0.025671   0.676250  -0.000009
    28  H    0.000005  -0.000135  -0.000009   0.704676
 Mulliken charges:
               1
     1  N   -0.133911
     2  C    0.098721
     3  C   -0.125112
     4  C    0.053417
     5  N   -0.204059
     6  C    0.156488
     7  N   -0.364685
     8  C    0.100514
     9  C   -0.035940
    10  C   -0.046134
    11  C   -0.101835
    12  C    0.152221
    13  C   -0.129779
    14  H    0.130298
    15  H    0.128671
    16  H   -0.007684
    17  H    0.020322
    18  H    0.039333
    19  H    0.024680
    20  H    0.028237
    21  H    0.027994
    22  H    0.039022
    23  H    0.031917
    24  H    0.038912
    25  H    0.020413
    26  H    0.055304
    27  H    0.028253
    28  H   -0.025577
 Sum of Mulliken charges =  -0.00000
 Mulliken charges with hydrogens summed into heavy atoms:
               1
     1  N    0.125057
     2  C    0.098721
     3  C   -0.132795
     4  C    0.073738
     5  N   -0.204059
     6  C    0.156488
     7  N   -0.364685
     8  C    0.164527
     9  C    0.020291
    10  C    0.024805
    11  C   -0.042510
    12  C    0.235778
    13  C   -0.155356
 Electronic spatial extent (au):  <R**2>=           2637.1886
 Charge=             -0.0000 electrons
 Dipole moment (field-independent basis, Debye):
    X=              0.7737    Y=             -2.8203    Z=             -0.3372  Tot=              2.9438
 Quadrupole moment (field-independent basis, Debye-Ang):
   XX=            -62.9161   YY=            -75.1345   ZZ=            -81.5009
   XY=             -4.4416   XZ=             -0.2520   YZ=              3.7475
 Traceless Quadrupole moment (field-independent basis, Debye-Ang):
   XX=             10.2678   YY=             -1.9506   ZZ=             -8.3171
   XY=             -4.4416   XZ=             -0.2520   YZ=              3.7475
 Octapole moment (field-independent basis, Debye-Ang**2):
  XXX=             62.8697  YYY=            -16.8705  ZZZ=             -1.7103  XYY=             15.5272
  XXY=            -17.5360  XXZ=             -2.2977  XZZ=             -7.5298  YZZ=             -0.8760
  YYZ=             -3.1519  XYZ=              6.6071
 Hexadecapole moment (field-independent basis, Debye-Ang**3):
 XXXX=          -2175.6168 YYYY=           -732.6801 ZZZZ=           -285.5871 XXXY=            -95.2402
 XXXZ=             11.7055 YYYX=            -45.0450 YYYZ=             21.9742 ZZZX=             -0.8129
 ZZZY=              0.8127 XXYY=           -482.3941 XXZZ=           -480.0625 YYZZ=           -178.0768
 XXYZ=             24.8658 YYXZ=             -7.0355 ZZXY=             -2.9019
 N-N= 8.081335313018D+02 E-N=-2.899916688795D+03  KE= 5.475628596514D+02
   1 Symmetry operations used in ECPInt.
 ECPInt:  NShTT=    7626 NPrTT=   27010 LenC2=    7356 LenP2D=   19668.
 LDataN:  DoStor=T MaxTD1= 5 Len=  102
 Calling FoFJK, ICntrl=      2127 FMM=F ISym2X=0 I1Cent= 0 IOpClX= 0 NMat=1 NMatS=1 NMatT=0.
 ***** Axes restored to original set *****
 -------------------------------------------------------------------
 Center     Atomic                   Forces (Hartrees/Bohr)
 Number     Number              X              Y              Z
 -------------------------------------------------------------------
      1        7           0.000018942   -0.000033166    0.000053482
      2        6          -0.000035750    0.000037948   -0.000020765
      3        6          -0.000008596   -0.000004845    0.000001377
      4        6           0.000015185   -0.000000004    0.000003143
      5        7          -0.000005492    0.000005225   -0.000002345
      6        6          -0.000024812   -0.000008220   -0.000006761
      7        7           0.000007874    0.000028195   -0.000011350
      8        6          -0.000009938   -0.000020943   -0.000007660
      9        6          -0.000006436   -0.000035446   -0.000017881
     10        6          -0.000003129    0.000006648    0.000041497
     11        6          -0.000010527    0.000009093   -0.000015711
     12        6          -0.000005860    0.000006539    0.000000559
     13        6           0.000031317   -0.000000086    0.000012172
     14        1           0.000006261    0.000003040   -0.000015724
     15        1           0.000000361   -0.000005669   -0.000018965
     16        1           0.000013964   -0.000004628    0.000000407
     17        1          -0.000004897    0.000007950    0.000002905
     18        1           0.000007746   -0.000000020   -0.000001178
     19        1          -0.000001134    0.000006064    0.000006914
     20        1           0.000002704    0.000006266    0.000001760
     21        1           0.000008019    0.000006680    0.000003727
     22        1           0.000001500   -0.000001628   -0.000006222
     23        1          -0.000006921    0.000000366   -0.000010039
     24        1           0.000006068    0.000001291    0.000007855
     25        1           0.000003582   -0.000004633   -0.000002932
     26        1           0.000003422    0.000002011   -0.000000353
     27        1           0.000001737    0.000001906    0.000002253
     28        1          -0.000005190   -0.000009933   -0.000000167
 -------------------------------------------------------------------
 Cartesian Forces:  Max     0.000053482 RMS     0.000014239

 GradGradGradGradGradGradGradGradGradGradGradGradGradGradGradGradGradGrad
 Berny optimization.
 FormGI is forming the generalized inverse of G from B-inverse, IUseBI=4.
 Internal  Forces:  Max     0.000044738 RMS     0.000006664
 Search for a local minimum.
 Step number   1 out of a maximum of  167
 All quantities printed in internal units (Hartrees-Bohrs-Radians)
 Mixed Optimization -- En-DIIS/RFO-DIIS
 Second derivative matrix not updated -- first step.
 ITU=  0
     Eigenvalues ---    0.00321   0.00535   0.01136   0.01579   0.01976
     Eigenvalues ---    0.02001   0.02034   0.02036   0.02043   0.02070
     Eigenvalues ---    0.02139   0.02165   0.02391   0.02403   0.02475
     Eigenvalues ---    0.03035   0.03392   0.03909   0.04123   0.04326
     Eigenvalues ---    0.04827   0.04915   0.05445   0.05731   0.06062
     Eigenvalues ---    0.06899   0.07765   0.07953   0.08004   0.08704
     Eigenvalues ---    0.09285   0.09417   0.10123   0.11973   0.12491
     Eigenvalues ---    0.15997   0.15998   0.16000   0.16000   0.16000
     Eigenvalues ---    0.17929   0.19610   0.22316   0.22323   0.22468
     Eigenvalues ---    0.23484   0.24550   0.24978   0.24999   0.26523
     Eigenvalues ---    0.27265   0.27887   0.28844   0.33143   0.33293
     Eigenvalues ---    0.33391   0.33411   0.33424   0.33562   0.33652
     Eigenvalues ---    0.33654   0.33995   0.34074   0.34111   0.34654
     Eigenvalues ---    0.34862   0.35622   0.36754   0.41192   0.42849
     Eigenvalues ---    0.44936   0.45936   0.45962   0.47305   0.49374
     Eigenvalues ---    0.50218   0.55376   0.58238
 RFO step:  Lambda=-6.24965737D-08 EMin= 3.21020988D-03
 Linear search not attempted -- first point.
 Iteration  1 RMS(Cart)=  0.00024630 RMS(Int)=  0.00000003
 Iteration  2 RMS(Cart)=  0.00000004 RMS(Int)=  0.00000001
 Variable       Old X    -DE/DX   Delta X   Delta X   Delta X     New X
                                 (Linear)    (Quad)   (Total)
    R1        2.59646   0.00004   0.00000   0.00009   0.00009   2.59655
    R2        1.90874   0.00001   0.00000   0.00001   0.00001   1.90876
    R3        1.90903   0.00001   0.00000   0.00003   0.00003   1.90906
    R4        2.66333  -0.00000   0.00000  -0.00001  -0.00001   2.66333
    R5        2.64137  -0.00001   0.00000  -0.00002  -0.00002   2.64135
    R6        2.61659   0.00001   0.00000   0.00001   0.00001   2.61661
    R7        2.06240   0.00001   0.00000   0.00004   0.00004   2.06243
    R8        2.51161   0.00001   0.00000   0.00003   0.00003   2.51163
    R9        2.07206   0.00001   0.00000   0.00002   0.00002   2.07208
   R10        2.53340   0.00001   0.00000   0.00002   0.00002   2.53342
   R11        2.60503   0.00000   0.00000   0.00000   0.00000   2.60503
   R12        2.66775   0.00002   0.00000   0.00004   0.00004   2.66779
   R13        2.73328   0.00002   0.00000   0.00005   0.00005   2.73333
   R14        2.75594   0.00001   0.00000   0.00001   0.00001   2.75594
   R15        2.90864   0.00000   0.00000   0.00001   0.00001   2.90866
   R16        2.07338   0.00001   0.00000   0.00002   0.00002   2.07340
   R17        2.08336  -0.00000   0.00000  -0.00001  -0.00001   2.08335
   R18        2.91070   0.00002   0.00000   0.00009   0.00009   2.91079
   R19        2.08314  -0.00001   0.00000  -0.00002  -0.00002   2.08312
   R20        2.08075   0.00000   0.00000   0.00001   0.00001   2.08076
   R21        2.89032   0.00002   0.00000   0.00006   0.00006   2.89038
   R22        2.08369  -0.00000   0.00000  -0.00001  -0.00001   2.08369
   R23        2.07917  -0.00000   0.00000  -0.00000  -0.00000   2.07917
   R24        2.91613   0.00001   0.00000   0.00002   0.00002   2.91615
   R25        2.07921   0.00000   0.00000   0.00001   0.00001   2.07922
   R26        2.08540   0.00000   0.00000   0.00000   0.00000   2.08540
   R27        2.07144   0.00000   0.00000   0.00001   0.00001   2.07144
   R28        2.08800  -0.00000   0.00000  -0.00001  -0.00001   2.08800
   R29        2.05900   0.00001   0.00000   0.00003   0.00003   2.05903
    A1        2.05237  -0.00001   0.00000  -0.00015  -0.00015   2.05222
    A2        2.05748  -0.00001   0.00000  -0.00015  -0.00015   2.05732
    A3        2.00407  -0.00000   0.00000  -0.00013  -0.00013   2.00394
    A4        2.10944  -0.00001   0.00000  -0.00002  -0.00002   2.10942
    A5        2.11178  -0.00000   0.00000  -0.00000  -0.00000   2.11178
    A6        2.06126   0.00001   0.00000   0.00002   0.00002   2.06128
    A7        2.05255  -0.00000   0.00000  -0.00001  -0.00001   2.05254
    A8        2.11781  -0.00001   0.00000  -0.00004  -0.00004   2.11776
    A9        2.11275   0.00001   0.00000   0.00005   0.00005   2.11280
   A10        2.18099  -0.00000   0.00000  -0.00001  -0.00001   2.18098
   A11        2.08167   0.00001   0.00000   0.00005   0.00005   2.08172
   A12        2.02051  -0.00001   0.00000  -0.00004  -0.00004   2.02047
   A13        2.06306   0.00000   0.00000   0.00002   0.00002   2.06308
   A14        2.03419  -0.00000   0.00000  -0.00001  -0.00001   2.03418
   A15        2.12283  -0.00001   0.00000  -0.00004  -0.00004   2.12279
   A16        2.12610   0.00001   0.00000   0.00004   0.00004   2.12615
   A17        2.13341  -0.00001   0.00000  -0.00005  -0.00005   2.13336
   A18        2.10516   0.00000   0.00000  -0.00001  -0.00001   2.10515
   A19        1.97206   0.00000   0.00000   0.00000   0.00000   1.97207
   A20        1.93511   0.00001   0.00000   0.00001   0.00001   1.93512
   A21        1.93799  -0.00000   0.00000  -0.00005  -0.00005   1.93794
   A22        1.86928  -0.00000   0.00000  -0.00002  -0.00002   1.86926
   A23        1.96057   0.00000   0.00000   0.00001   0.00001   1.96058
   A24        1.91620  -0.00000   0.00000  -0.00001  -0.00001   1.91619
   A25        1.84005   0.00000   0.00000   0.00006   0.00006   1.84011
   A26        1.91151  -0.00000   0.00000  -0.00001  -0.00001   1.91149
   A27        1.90668   0.00000   0.00000   0.00003   0.00003   1.90671
   A28        1.92818   0.00000   0.00000  -0.00002  -0.00002   1.92815
   A29        1.93551   0.00000   0.00000  -0.00001  -0.00001   1.93550
   A30        1.91785  -0.00000   0.00000  -0.00005  -0.00005   1.91780
   A31        1.86377   0.00000   0.00000   0.00006   0.00006   1.86383
   A32        1.93211  -0.00000   0.00000   0.00001   0.00001   1.93213
   A33        1.91098  -0.00000   0.00000  -0.00002  -0.00002   1.91095
   A34        1.93019   0.00000   0.00000  -0.00001  -0.00001   1.93018
   A35        1.89430  -0.00000   0.00000  -0.00000  -0.00000   1.89429
   A36        1.93665  -0.00000   0.00000  -0.00005  -0.00005   1.93660
   A37        1.85768   0.00000   0.00000   0.00008   0.00008   1.85776
   A38        1.92583   0.00001   0.00000   0.00007   0.00007   1.92590
   A39        1.93664  -0.00001   0.00000  -0.00008  -0.00008   1.93657
   A40        1.90684  -0.00000   0.00000  -0.00002  -0.00002   1.90682
   A41        1.90849  -0.00000   0.00000  -0.00002  -0.00002   1.90847
   A42        1.93260  -0.00000   0.00000  -0.00002  -0.00002   1.93258
   A43        1.85232   0.00001   0.00000   0.00007   0.00007   1.85239
   A44        1.93169  -0.00000   0.00000  -0.00001  -0.00001   1.93168
   A45        1.86849  -0.00000   0.00000  -0.00001  -0.00001   1.86849
   A46        1.92451   0.00000   0.00000   0.00000   0.00000   1.92451
   A47        1.94014   0.00000   0.00000   0.00003   0.00003   1.94017
   A48        1.92880   0.00000   0.00000  -0.00001  -0.00001   1.92880
   A49        1.86838  -0.00000   0.00000  -0.00001  -0.00001   1.86837
   A50        2.08541   0.00000   0.00000   0.00001   0.00001   2.08542
   A51        2.07552  -0.00000   0.00000   0.00000   0.00000   2.07552
   A52        2.12208  -0.00000   0.00000  -0.00001  -0.00001   2.12207
    D1       -0.32363  -0.00001   0.00000  -0.00043  -0.00043  -0.32406
    D2        2.85912  -0.00001   0.00000  -0.00038  -0.00038   2.85874
    D3       -2.84281   0.00001   0.00000   0.00032   0.00032  -2.84249
    D4        0.33994   0.00001   0.00000   0.00036   0.00036   0.34031
    D5       -3.09475   0.00000   0.00000   0.00009   0.00009  -3.09466
    D6        0.03287   0.00000   0.00000   0.00010   0.00010   0.03296
    D7        0.00684   0.00000   0.00000   0.00004   0.00004   0.00688
    D8        3.13446   0.00000   0.00000   0.00005   0.00005   3.13451
    D9        3.11381  -0.00000   0.00000  -0.00003  -0.00003   3.11378
   D10       -0.00801  -0.00000   0.00000  -0.00001  -0.00001  -0.00801
   D11        0.01227   0.00000   0.00000   0.00001   0.00001   0.01229
   D12       -3.10955   0.00000   0.00000   0.00004   0.00004  -3.10951
   D13       -0.01743  -0.00000   0.00000  -0.00005  -0.00005  -0.01748
   D14        3.12923  -0.00000   0.00000  -0.00007  -0.00007   3.12916
   D15        3.13809  -0.00000   0.00000  -0.00005  -0.00005   3.13804
   D16        0.00156  -0.00000   0.00000  -0.00007  -0.00007   0.00149
   D17        0.00691  -0.00000   0.00000  -0.00001  -0.00001   0.00690
   D18       -3.13959   0.00000   0.00000   0.00001   0.00001  -3.13957
   D19       -3.11584   0.00000   0.00000   0.00003   0.00003  -3.11582
   D20        0.01403   0.00000   0.00000   0.00007   0.00007   0.01410
   D21       -3.01782  -0.00000   0.00000  -0.00018  -0.00018  -3.01801
   D22       -0.30435  -0.00001   0.00000  -0.00034  -0.00034  -0.30469
   D23        0.13551  -0.00001   0.00000  -0.00023  -0.00023   0.13529
   D24        2.84899  -0.00001   0.00000  -0.00039  -0.00039   2.84860
   D25       -0.02363  -0.00000   0.00000  -0.00007  -0.00007  -0.02370
   D26        3.09765  -0.00000   0.00000  -0.00010  -0.00010   3.09754
   D27        3.10562  -0.00000   0.00000  -0.00003  -0.00003   3.10560
   D28       -0.05628  -0.00000   0.00000  -0.00006  -0.00006  -0.05634
   D29        1.52845  -0.00000   0.00000  -0.00021  -0.00021   1.52824
   D30       -0.66401  -0.00000   0.00000  -0.00019  -0.00019  -0.66420
   D31       -2.66444  -0.00000   0.00000  -0.00023  -0.00023  -2.66467
   D32       -1.21457   0.00000   0.00000  -0.00006  -0.00006  -1.21462
   D33        2.87617  -0.00000   0.00000  -0.00004  -0.00004   2.87612
   D34        0.87573  -0.00000   0.00000  -0.00008  -0.00008   0.87566
   D35       -2.14120  -0.00000   0.00000  -0.00006  -0.00006  -2.14126
   D36       -0.02425   0.00000   0.00000  -0.00002  -0.00002  -0.02427
   D37        2.00240   0.00000   0.00000  -0.00004  -0.00004   2.00236
   D38        0.60901  -0.00000   0.00000  -0.00021  -0.00021   0.60879
   D39        2.72596  -0.00000   0.00000  -0.00018  -0.00018   2.72578
   D40       -1.53058  -0.00000   0.00000  -0.00020  -0.00020  -1.53077
   D41        0.56163  -0.00000   0.00000   0.00032   0.00032   0.56195
   D42        2.68468  -0.00000   0.00000   0.00032   0.00032   2.68501
   D43       -1.55321   0.00000   0.00000   0.00040   0.00040  -1.55281
   D44        2.74138  -0.00000   0.00000   0.00027   0.00027   2.74165
   D45       -1.41875  -0.00000   0.00000   0.00028   0.00028  -1.41848
   D46        0.62654   0.00000   0.00000   0.00036   0.00036   0.62690
   D47       -1.50038   0.00000   0.00000   0.00034   0.00034  -1.50003
   D48        0.62267  -0.00000   0.00000   0.00035   0.00035   0.62302
   D49        2.66797   0.00001   0.00000   0.00043   0.00043   2.66840
   D50        0.52719  -0.00000   0.00000  -0.00036  -0.00036   0.52683
   D51       -1.56057  -0.00000   0.00000  -0.00035  -0.00035  -1.56092
   D52        2.68098  -0.00001   0.00000  -0.00043  -0.00043   2.68056
   D53       -1.57843  -0.00000   0.00000  -0.00038  -0.00038  -1.57881
   D54        2.61699   0.00000   0.00000  -0.00038  -0.00038   2.61662
   D55        0.57536  -0.00000   0.00000  -0.00045  -0.00045   0.57491
   D56        2.64826  -0.00000   0.00000  -0.00043  -0.00043   2.64783
   D57        0.56050  -0.00000   0.00000  -0.00042  -0.00042   0.56008
   D58       -1.48113  -0.00001   0.00000  -0.00050  -0.00050  -1.48163
   D59       -1.10209   0.00000   0.00000   0.00011   0.00011  -1.10198
   D60        3.06295   0.00000   0.00000   0.00014   0.00014   3.06309
   D61        1.02657   0.00000   0.00000   0.00011   0.00011   1.02668
   D62        0.99567  -0.00000   0.00000   0.00009   0.00009   0.99575
   D63       -1.12248  -0.00000   0.00000   0.00012   0.00012  -1.12236
   D64        3.12432  -0.00000   0.00000   0.00009   0.00009   3.12441
   D65        3.03103   0.00000   0.00000   0.00015   0.00015   3.03119
   D66        0.91289   0.00000   0.00000   0.00019   0.00019   0.91308
   D67       -1.12350   0.00000   0.00000   0.00016   0.00016  -1.12334
   D68        0.51201   0.00000   0.00000   0.00018   0.00018   0.51219
   D69       -1.56205   0.00000   0.00000   0.00017   0.00017  -1.56188
   D70        2.64909   0.00000   0.00000   0.00017   0.00017   2.64925
   D71        2.64679  -0.00000   0.00000   0.00011   0.00011   2.64690
   D72        0.57273  -0.00000   0.00000   0.00010   0.00010   0.57284
   D73       -1.49932  -0.00000   0.00000   0.00010   0.00010  -1.49922
   D74       -1.60137   0.00000   0.00000   0.00017   0.00017  -1.60120
   D75        2.60776   0.00000   0.00000   0.00016   0.00016   2.60792
   D76        0.53571   0.00000   0.00000   0.00016   0.00016   0.53587
         Item               Value     Threshold  Converged?
 Maximum Force            0.000045     0.000450     YES
 RMS     Force            0.000007     0.000300     YES
 Maximum Displacement     0.000898     0.001800     YES
 RMS     Displacement     0.000246     0.001200     YES
 Predicted change in Energy=-3.124286D-08
 Optimization completed.
    -- Stationary point found.
                           ----------------------------
                           !   Optimized Parameters   !
                           ! (Angstroms and Degrees)  !
 --------------------------                            --------------------------
 ! Name  Definition              Value          Derivative Info.                !
 --------------------------------------------------------------------------------
 ! R1    R(1,2)                  1.374          -DE/DX =    0.0                 !
 ! R2    R(1,14)                 1.0101         -DE/DX =    0.0                 !
 ! R3    R(1,15)                 1.0102         -DE/DX =    0.0                 !
 ! R4    R(2,3)                  1.4094         -DE/DX =    0.0                 !
 ! R5    R(2,13)                 1.3978         -DE/DX =    0.0                 !
 ! R6    R(3,4)                  1.3846         -DE/DX =    0.0                 !
 ! R7    R(3,16)                 1.0914         -DE/DX =    0.0                 !
 ! R8    R(4,5)                  1.3291         -DE/DX =    0.0                 !
 ! R9    R(4,17)                 1.0965         -DE/DX =    0.0                 !
 ! R10   R(5,6)                  1.3406         -DE/DX =    0.0                 !
 ! R11   R(6,7)                  1.3785         -DE/DX =    0.0                 !
 ! R12   R(6,13)                 1.4117         -DE/DX =    0.0                 !
 ! R13   R(7,8)                  1.4464         -DE/DX =    0.0                 !
 ! R14   R(7,12)                 1.4584         -DE/DX =    0.0                 !
 ! R15   R(8,9)                  1.5392         -DE/DX =    0.0                 !
 ! R16   R(8,18)                 1.0972         -DE/DX =    0.0                 !
 ! R17   R(8,19)                 1.1025         -DE/DX =    0.0                 !
 ! R18   R(9,10)                 1.5403         -DE/DX =    0.0                 !
 ! R19   R(9,20)                 1.1023         -DE/DX =    0.0                 !
 ! R20   R(9,21)                 1.1011         -DE/DX =    0.0                 !
 ! R21   R(10,11)                1.5295         -DE/DX =    0.0                 !
 ! R22   R(10,22)                1.1026         -DE/DX =    0.0                 !
 ! R23   R(10,23)                1.1003         -DE/DX =    0.0                 !
 ! R24   R(11,12)                1.5431         -DE/DX =    0.0                 !
 ! R25   R(11,24)                1.1003         -DE/DX =    0.0                 !
 ! R26   R(11,25)                1.1035         -DE/DX =    0.0                 !
 ! R27   R(12,26)                1.0962         -DE/DX =    0.0                 !
 ! R28   R(12,27)                1.1049         -DE/DX =    0.0                 !
 ! R29   R(13,28)                1.0896         -DE/DX =    0.0                 !
 ! A1    A(2,1,14)             117.5921         -DE/DX =    0.0                 !
 ! A2    A(2,1,15)             117.8847         -DE/DX =    0.0                 !
 ! A3    A(14,1,15)            114.8245         -DE/DX =    0.0                 !
 ! A4    A(1,2,3)              120.8619         -DE/DX =    0.0                 !
 ! A5    A(1,2,13)             120.9963         -DE/DX =    0.0                 !
 ! A6    A(3,2,13)             118.1013         -DE/DX =    0.0                 !
 ! A7    A(2,3,4)              117.6022         -DE/DX =    0.0                 !
 ! A8    A(2,3,16)             121.3414         -DE/DX =    0.0                 !
 ! A9    A(4,3,16)             121.0515         -DE/DX =    0.0                 !
 ! A10   A(3,4,5)              124.9618         -DE/DX =    0.0                 !
 ! A11   A(3,4,17)             119.271          -DE/DX =    0.0                 !
 ! A12   A(5,4,17)             115.7666         -DE/DX =    0.0                 !
 ! A13   A(4,5,6)              118.2046         -DE/DX =    0.0                 !
 ! A14   A(5,6,7)              116.5505         -DE/DX =    0.0                 !
 ! A15   A(5,6,13)             121.6293         -DE/DX =    0.0                 !
 ! A16   A(7,6,13)             121.8167         -DE/DX =    0.0                 !
 ! A17   A(6,7,8)              122.2354         -DE/DX =    0.0                 !
 ! A18   A(6,7,12)             120.6171         -DE/DX =    0.0                 !
 ! A19   A(8,7,12)             112.991          -DE/DX =    0.0                 !
 ! A20   A(7,8,9)              110.8735         -DE/DX =    0.0                 !
 ! A21   A(7,8,18)             111.0384         -DE/DX =    0.0                 !
 ! A22   A(7,8,19)             107.1019         -DE/DX =    0.0                 !
 ! A23   A(9,8,18)             112.3322         -DE/DX =    0.0                 !
 ! A24   A(9,8,19)             109.7901         -DE/DX =    0.0                 !
 ! A25   A(18,8,19)            105.4272         -DE/DX =    0.0                 !
 ! A26   A(8,9,10)             109.5212         -DE/DX =    0.0                 !
 ! A27   A(8,9,20)             109.2449         -DE/DX =    0.0                 !
 ! A28   A(8,9,21)             110.4765         -DE/DX =    0.0                 !
 ! A29   A(10,9,20)            110.8966         -DE/DX =    0.0                 !
 ! A30   A(10,9,21)            109.8847         -DE/DX =    0.0                 !
 ! A31   A(20,9,21)            106.7861         -DE/DX =    0.0                 !
 ! A32   A(9,10,11)            110.702          -DE/DX =    0.0                 !
 ! A33   A(9,10,22)            109.4909         -DE/DX =    0.0                 !
 ! A34   A(9,10,23)            110.5919         -DE/DX =    0.0                 !
 ! A35   A(11,10,22)           108.5352         -DE/DX =    0.0                 !
 ! A36   A(11,10,23)           110.962          -DE/DX =    0.0                 !
 ! A37   A(22,10,23)           106.437          -DE/DX =    0.0                 !
 ! A38   A(10,11,12)           110.3421         -DE/DX =    0.0                 !
 ! A39   A(10,11,24)           110.9614         -DE/DX =    0.0                 !
 ! A40   A(10,11,25)           109.2541         -DE/DX =    0.0                 !
 ! A41   A(12,11,24)           109.3486         -DE/DX =    0.0                 !
 ! A42   A(12,11,25)           110.7298         -DE/DX =    0.0                 !
 ! A43   A(24,11,25)           106.1303         -DE/DX =    0.0                 !
 ! A44   A(7,12,11)            110.6777         -DE/DX =    0.0                 !
 ! A45   A(7,12,26)            107.0566         -DE/DX =    0.0                 !
 ! A46   A(7,12,27)            110.266          -DE/DX =    0.0                 !
 ! A47   A(11,12,26)           111.1616         -DE/DX =    0.0                 !
 ! A48   A(11,12,27)           110.5122         -DE/DX =    0.0                 !
 ! A49   A(26,12,27)           107.0504         -DE/DX =    0.0                 !
 ! A50   A(2,13,6)             119.4852         -DE/DX =    0.0                 !
 ! A51   A(2,13,28)            118.9183         -DE/DX =    0.0                 !
 ! A52   A(6,13,28)            121.5864         -DE/DX =    0.0                 !
 ! D1    D(14,1,2,3)           -18.5426         -DE/DX =    0.0                 !
 ! D2    D(14,1,2,13)          163.8157         -DE/DX =    0.0                 !
 ! D3    D(15,1,2,3)          -162.881          -DE/DX =    0.0                 !
 ! D4    D(15,1,2,13)           19.4773         -DE/DX =    0.0                 !
 ! D5    D(1,2,3,4)           -177.3164         -DE/DX =    0.0                 !
 ! D6    D(1,2,3,16)             1.8831         -DE/DX =    0.0                 !
 ! D7    D(13,2,3,4)             0.392          -DE/DX =    0.0                 !
 ! D8    D(13,2,3,16)          179.5915         -DE/DX =    0.0                 !
 ! D9    D(1,2,13,6)           178.4084         -DE/DX =    0.0                 !
 ! D10   D(1,2,13,28)           -0.4588         -DE/DX =    0.0                 !
 ! D11   D(3,2,13,6)             0.7033         -DE/DX =    0.0                 !
 ! D12   D(3,2,13,28)         -178.164          -DE/DX =    0.0                 !
 ! D13   D(2,3,4,5)             -0.9987         -DE/DX =    0.0                 !
 ! D14   D(2,3,4,17)           179.2915         -DE/DX =    0.0                 !
 ! D15   D(16,3,4,5)           179.7993         -DE/DX =    0.0                 !
 ! D16   D(16,3,4,17)            0.0895         -DE/DX =    0.0                 !
 ! D17   D(3,4,5,6)              0.396          -DE/DX =    0.0                 !
 ! D18   D(17,4,5,6)          -179.8851         -DE/DX =    0.0                 !
 ! D19   D(4,5,6,7)           -178.5248         -DE/DX =    0.0                 !
 ! D20   D(4,5,6,13)             0.8037         -DE/DX =    0.0                 !
 ! D21   D(5,6,7,8)           -172.9085         -DE/DX =    0.0                 !
 ! D22   D(5,6,7,12)           -17.4377         -DE/DX =    0.0                 !
 ! D23   D(13,6,7,8)             7.7644         -DE/DX =    0.0                 !
 ! D24   D(13,6,7,12)          163.2351         -DE/DX =    0.0                 !
 ! D25   D(5,6,13,2)            -1.3539         -DE/DX =    0.0                 !
 ! D26   D(5,6,13,28)          177.4821         -DE/DX =    0.0                 !
 ! D27   D(7,6,13,2)           177.9392         -DE/DX =    0.0                 !
 ! D28   D(7,6,13,28)           -3.2248         -DE/DX =    0.0                 !
 ! D29   D(6,7,8,9)             87.5736         -DE/DX =    0.0                 !
 ! D30   D(6,7,8,18)           -38.0448         -DE/DX =    0.0                 !
 ! D31   D(6,7,8,19)          -152.6611         -DE/DX =    0.0                 !
 ! D32   D(12,7,8,9)           -69.5895         -DE/DX =    0.0                 !
 ! D33   D(12,7,8,18)          164.7921         -DE/DX =    0.0                 !
 ! D34   D(12,7,8,19)           50.1758         -DE/DX =    0.0                 !
 ! D35   D(6,7,12,11)         -122.6819         -DE/DX =    0.0                 !
 ! D36   D(6,7,12,26)           -1.3894         -DE/DX =    0.0                 !
 ! D37   D(6,7,12,27)          114.7291         -DE/DX =    0.0                 !
 ! D38   D(8,7,12,11)           34.8935         -DE/DX =    0.0                 !
 ! D39   D(8,7,12,26)          156.186          -DE/DX =    0.0                 !
 ! D40   D(8,7,12,27)          -87.6955         -DE/DX =    0.0                 !
 ! D41   D(7,8,9,10)            32.1792         -DE/DX =    0.0                 !
 ! D42   D(7,8,9,20)           153.8211         -DE/DX =    0.0                 !
 ! D43   D(7,8,9,21)           -88.9923         -DE/DX =    0.0                 !
 ! D44   D(18,8,9,10)          157.0697         -DE/DX =    0.0                 !
 ! D45   D(18,8,9,20)          -81.2884         -DE/DX =    0.0                 !
 ! D46   D(18,8,9,21)           35.8982         -DE/DX =    0.0                 !
 ! D47   D(19,8,9,10)          -85.9653         -DE/DX =    0.0                 !
 ! D48   D(19,8,9,20)           35.6766         -DE/DX =    0.0                 !
 ! D49   D(19,8,9,21)          152.8633         -DE/DX =    0.0                 !
 ! D50   D(8,9,10,11)           30.2057         -DE/DX =    0.0                 !
 ! D51   D(8,9,10,22)          -89.4142         -DE/DX =    0.0                 !
 ! D52   D(8,9,10,23)          153.6091         -DE/DX =    0.0                 !
 ! D53   D(20,9,10,11)         -90.4375         -DE/DX =    0.0                 !
 ! D54   D(20,9,10,22)         149.9427         -DE/DX =    0.0                 !
 ! D55   D(20,9,10,23)          32.9659         -DE/DX =    0.0                 !
 ! D56   D(21,9,10,11)         151.7342         -DE/DX =    0.0                 !
 ! D57   D(21,9,10,22)          32.1143         -DE/DX =    0.0                 !
 ! D58   D(21,9,10,23)         -84.8625         -DE/DX =    0.0                 !
[...]
     2  C    0.344807   4.696201   0.460068  -0.007695  -0.023959  -0.027613
     3  C   -0.048506   0.460068   5.136029   0.513634  -0.074936  -0.038206
     4  C   -0.001351  -0.007695   0.513634   4.671097   0.570470  -0.079148
     5  N    0.000237  -0.023959  -0.074936   0.570470   6.640342   0.457514
     6  C   -0.001432  -0.027613  -0.038206  -0.079148   0.457514   4.678816
     7  N   -0.000191   0.003031   0.004074  -0.001066  -0.097183   0.434741
     8  C    0.000199   0.001717  -0.000702  -0.000464   0.003836  -0.049496
     9  C   -0.000093  -0.002004  -0.000207   0.000436   0.000060   0.033980
    10  C    0.000015   0.001362   0.000228  -0.000189  -0.001674  -0.013253
    11  C    0.000001  -0.000287  -0.000120   0.000933   0.007531   0.018877
    12  C    0.000012  -0.000842  -0.000148  -0.003989  -0.052402  -0.058219
    13  C   -0.064782   0.461400  -0.060406  -0.032092  -0.074819   0.422198
    14  H    0.374701  -0.030927  -0.006210   0.000610   0.000055  -0.001422
    15  H    0.376074  -0.020813   0.007485  -0.000618   0.000100   0.002467
    16  H   -0.000766  -0.074537   0.417726  -0.020789   0.006591  -0.001000
    17  H   -0.000219   0.006774  -0.082986   0.436781  -0.033087   0.007394
    18  H   -0.000131   0.006883   0.000328  -0.000355  -0.000178  -0.037051
    19  H   -0.000004   0.000141   0.000022  -0.000015  -0.000017   0.002731
    20  H   -0.000001   0.000073   0.000006  -0.000009  -0.000016  -0.001169
    21  H    0.000018  -0.000292  -0.000006  -0.000021   0.000036   0.001306
    22  H   -0.000004  -0.000149  -0.000243   0.000287   0.001037   0.002949
    23  H    0.000000  -0.000011   0.000004   0.000001   0.000011  -0.000116
    24  H    0.000000   0.000009   0.000005  -0.000009  -0.000021  -0.000428
    25  H   -0.000000  -0.000002   0.000000  -0.000016  -0.000219  -0.001446
    26  H    0.000003  -0.000093   0.000389   0.001473   0.031692  -0.019570
    27  H   -0.000001   0.000174   0.000016  -0.000012   0.003362  -0.001943
    28  H    0.000374  -0.025139   0.007158  -0.001323   0.004522  -0.005303
               7          8          9         10         11         12
     1  N   -0.000191   0.000199  -0.000093   0.000015   0.000001   0.000012
     2  C    0.003031   0.001717  -0.002004   0.001362  -0.000287  -0.000842
     3  C    0.004074  -0.000702  -0.000207   0.000228  -0.000120  -0.000148
     4  C   -0.001066  -0.000464   0.000436  -0.000189   0.000933  -0.003989
     5  N   -0.097183   0.003836   0.000060  -0.001674   0.007531  -0.052402
     6  C    0.434741  -0.049496   0.033980  -0.013253   0.018877  -0.058219
     7  N    6.501583   0.265553  -0.090042   0.065719  -0.114634   0.305760
     8  C    0.265553   4.971538   0.316634  -0.064876   0.010097  -0.024824
     9  C   -0.090042   0.316634   5.014346   0.305642  -0.012954  -0.020256
    10  C    0.065719  -0.064876   0.305642   4.934794   0.257976  -0.013588
    11  C   -0.114634   0.010097  -0.012954   0.257976   5.061492   0.276659
    12  C    0.305760  -0.024824  -0.020256  -0.013588   0.276659   4.974823
    13  C   -0.078954  -0.008513  -0.007103  -0.002704   0.002430   0.008165
    14  H    0.000007   0.000003   0.000002  -0.000001   0.000000  -0.000001
    15  H   -0.000015  -0.000050   0.000007  -0.000001  -0.000000   0.000002
    16  H    0.000086  -0.000000   0.000001  -0.000000  -0.000002   0.000020
    17  H   -0.000045   0.000047   0.000004  -0.000016  -0.000024   0.000435
    18  H   -0.015249   0.410355  -0.063344   0.014156  -0.003939   0.005913
    19  H   -0.039837   0.423741  -0.055615  -0.001787  -0.007233  -0.005226
    20  H    0.008456  -0.045869   0.410269  -0.023997  -0.005458   0.000089
    21  H   -0.001116  -0.013863   0.404141  -0.039773   0.008670  -0.000745
    22  H   -0.007431  -0.006202  -0.020094   0.401629  -0.026630  -0.000636
    23  H    0.000354   0.009355  -0.039618   0.417752  -0.032110   0.004871
    24  H    0.007083  -0.001949   0.006356  -0.022006   0.405170  -0.034359
    25  H   -0.000902   0.006948  -0.006776  -0.035965   0.407591  -0.033007
    26  H   -0.038400   0.007242   0.001148  -0.006816  -0.014190   0.416426
    27  H   -0.038123  -0.005434  -0.004551   0.014954  -0.074449   0.426850
    28  H   -0.006917   0.005521  -0.001090  -0.000308  -0.000050   0.000468
              13         14         15         16         17         18
     1  N   -0.064782   0.374701   0.376074  -0.000766  -0.000219  -0.000131
     2  C    0.461400  -0.030927  -0.020813  -0.074537   0.006774   0.006883
     3  C   -0.060406  -0.006210   0.007485   0.417726  -0.082986   0.000328
     4  C   -0.032092   0.000610  -0.000618  -0.020789   0.436781  -0.000355
     5  N   -0.074819   0.000055   0.000100   0.006591  -0.033087  -0.000178
     6  C    0.422198  -0.001422   0.002467  -0.001000   0.007394  -0.037051
     7  N   -0.078954   0.000007  -0.000015   0.000086  -0.000045  -0.015249
     8  C   -0.008513   0.000003  -0.000050  -0.000000   0.000047   0.410355
     9  C   -0.007103   0.000002   0.000007   0.000001   0.000004  -0.063344
    10  C   -0.002704  -0.000001  -0.000001  -0.000000  -0.000016   0.014156
    11  C    0.002430   0.000000  -0.000000  -0.000002  -0.000024  -0.003939
    12  C    0.008165  -0.000001   0.000002   0.000020   0.000435   0.005913
    13  C    5.368129   0.008948  -0.020054   0.011823  -0.002734   0.014452
    14  H    0.008948   0.435202  -0.030907   0.003835  -0.000026  -0.000003
    15  H   -0.020054  -0.030907   0.440218  -0.000178   0.000021   0.000009
    16  H    0.011823   0.003835  -0.000178   0.556041  -0.002998   0.000001
    17  H   -0.002734  -0.000026   0.000021  -0.002998   0.560597  -0.000003
    18  H    0.014452  -0.000003   0.000009   0.000001  -0.000003   0.565353
    19  H   -0.000702  -0.000000   0.000001   0.000000  -0.000001  -0.014335
    20  H    0.000487   0.000000   0.000001  -0.000000  -0.000000   0.003848
    21  H   -0.000828  -0.000001  -0.000002   0.000000   0.000001  -0.009120
    22  H    0.000457   0.000000   0.000000  -0.000002   0.000011  -0.000438
    23  H   -0.000022  -0.000000  -0.000000  -0.000000  -0.000000  -0.000108
    24  H   -0.000008  -0.000000   0.000000  -0.000000  -0.000002   0.000096
    25  H   -0.000090  -0.000000   0.000000   0.000000   0.000001   0.000238
    26  H    0.002208  -0.000000  -0.000001  -0.000025  -0.000587  -0.000321
    27  H   -0.000462  -0.000000   0.000000  -0.000000  -0.000024   0.000455
    28  H    0.363637   0.000007   0.004353  -0.000091   0.000105  -0.001436
              19         20         21         22         23         24
     1  N   -0.000004  -0.000001   0.000018  -0.000004   0.000000   0.000000
     2  C    0.000141   0.000073  -0.000292  -0.000149  -0.000011   0.000009
     3  C    0.000022   0.000006  -0.000006  -0.000243   0.000004   0.000005
     4  C   -0.000015  -0.000009  -0.000021   0.000287   0.000001  -0.000009
     5  N   -0.000017  -0.000016   0.000036   0.001037   0.000011  -0.000021
     6  C    0.002731  -0.001169   0.001306   0.002949  -0.000116  -0.000428
     7  N   -0.039837   0.008456  -0.001116  -0.007431   0.000354   0.007083
     8  C    0.423741  -0.045869  -0.013863  -0.006202   0.009355  -0.001949
     9  C   -0.055615   0.410269   0.404141  -0.020094  -0.039618   0.006356
    10  C   -0.001787  -0.023997  -0.039773   0.401629   0.417752  -0.022006
    11  C   -0.007233  -0.005458   0.008670  -0.026630  -0.032110   0.405170
    12  C   -0.005226   0.000089  -0.000745  -0.000636   0.004871  -0.034359
    13  C   -0.000702   0.000487  -0.000828   0.000457  -0.000022  -0.000008
    14  H   -0.000000   0.000000  -0.000001   0.000000  -0.000000  -0.000000
    15  H    0.000001   0.000001  -0.000002   0.000000  -0.000000   0.000000
    16  H    0.000000  -0.000000   0.000000  -0.000002  -0.000000  -0.000000
    17  H   -0.000001  -0.000000   0.000001   0.000011  -0.000000  -0.000002
    18  H   -0.014335   0.003848  -0.009120  -0.000438  -0.000108   0.000096
    19  H    0.571683  -0.005029   0.005174  -0.000425  -0.000059   0.000712
    20  H   -0.005029   0.591673  -0.026943   0.005061  -0.008948  -0.000083
    21  H    0.005174  -0.026943   0.578931  -0.009330   0.001025  -0.000223
    22  H   -0.000425   0.005061  -0.009330   0.579302  -0.027111  -0.004453
    23  H   -0.000059  -0.008948   0.001025  -0.027111   0.576196  -0.004418
    24  H    0.000712  -0.000083  -0.000223  -0.004453  -0.004418   0.570283
    25  H   -0.002052   0.002915  -0.000028   0.006315  -0.004013  -0.026253
    26  H   -0.000432  -0.000027   0.000013   0.002345  -0.000130  -0.008583
    27  H    0.006247   0.000275   0.000041  -0.000410  -0.000157   0.004280
    28  H    0.000037  -0.000047   0.000719   0.000047  -0.000015  -0.000003
              25         26         27         28
     1  N   -0.000000   0.000003  -0.000001   0.000374
     2  C   -0.000002  -0.000093   0.000174  -0.025139
     3  C    0.000000   0.000389   0.000016   0.007158
     4  C   -0.000016   0.001473  -0.000012  -0.001323
     5  N   -0.000219   0.031692   0.003362   0.004522
     6  C   -0.001446  -0.019570  -0.001943  -0.005303
     7  N   -0.000902  -0.038400  -0.038123  -0.006917
     8  C    0.006948   0.007242  -0.005434   0.005521
     9  C   -0.006776   0.001148  -0.004551  -0.001090
    10  C   -0.035965  -0.006816   0.014954  -0.000308
    11  C    0.407591  -0.014190  -0.074449  -0.000050
    12  C   -0.033007   0.416426   0.426850   0.000468
    13  C   -0.000090   0.002208  -0.000462   0.363637
    14  H   -0.000000  -0.000000  -0.000000   0.000007
    15  H    0.000000  -0.000001   0.000000   0.004353
    16  H    0.000000  -0.000025  -0.000000  -0.000091
    17  H    0.000001  -0.000587  -0.000024   0.000105
    18  H    0.000238  -0.000321   0.000455  -0.001436
    19  H   -0.002052  -0.000432   0.006247   0.000037
    20  H    0.002915  -0.000027   0.000275  -0.000047
    21  H   -0.000028   0.000013   0.000041   0.000719
    22  H    0.006315   0.002345  -0.000410   0.000047
    23  H   -0.004013  -0.000130  -0.000157  -0.000015
    24  H   -0.026253  -0.008583   0.004280  -0.000003
    25  H    0.599878   0.004247  -0.008662   0.000003
    26  H    0.004247   0.498495  -0.024658  -0.000179
    27  H   -0.008662  -0.024658   0.603407  -0.000067
    28  H    0.000003  -0.000179  -0.000067   0.548635
 Mulliken charges:
               1
     1  N   -0.485350
     2  C    0.231725
     3  C   -0.234499
     4  C   -0.046562
     5  N   -0.368886
     6  C    0.273842
     7  N   -0.066342
     8  C   -0.210543
     9  C   -0.169282
    10  C   -0.187272
    11  C   -0.165344
    12  C   -0.172254
    13  C   -0.310063
    14  H    0.246129
    15  H    0.241902
    16  H    0.104265
    17  H    0.110582
    18  H    0.123922
    19  H    0.122282
    20  H    0.094441
    21  H    0.102217
    22  H    0.104118
    23  H    0.107267
    24  H    0.108804
    25  H    0.091297
    26  H    0.148330
    27  H    0.098893
    28  H    0.106380
 Sum of Mulliken charges =  -0.00000
 Mulliken charges with hydrogens summed into heavy atoms:
               1
     1  N    0.002681
     2  C    0.231725
     3  C   -0.130234
     4  C    0.064020
     5  N   -0.368886
     6  C    0.273842
     7  N   -0.066342
     8  C    0.035661
     9  C    0.027377
    10  C    0.024113
    11  C    0.034756
    12  C    0.074969
    13  C   -0.203683
 Electronic spatial extent (au):  <R**2>=           2638.2445
 Charge=             -0.0000 electrons
 Dipole moment (field-independent basis, Debye):
    X=              0.5974    Y=             -2.7526    Z=             -0.3300  Tot=              2.8359
 Quadrupole moment (field-independent basis, Debye-Ang):
   XX=            -63.4115   YY=            -75.4535   ZZ=            -82.1066
   XY=             -4.0089   XZ=             -0.1606   YZ=              3.8894
 Traceless Quadrupole moment (field-independent basis, Debye-Ang):
   XX=             10.2457   YY=             -1.7963   ZZ=             -8.4494
   XY=             -4.0089   XZ=             -0.1606   YZ=              3.8894
 Octapole moment (field-independent basis, Debye-Ang**2):
  XXX=             60.4035  YYY=            -16.3066  ZZZ=             -2.1558  XYY=             14.8959
  XXY=            -16.0855  XXZ=             -1.6034  XZZ=             -9.1765  YZZ=             -0.5658
  YYZ=             -3.1935  XYZ=              7.1850
 Hexadecapole moment (field-independent basis, Debye-Ang**3):
 XXXX=          -2190.0566 YYYY=           -742.0572 ZZZZ=           -293.4652 XXXY=            -85.0421
 XXXZ=             14.1363 YYYX=            -40.7949 YYYZ=             24.7683 ZZZX=             -1.2451
 ZZZY=              0.7918 XXYY=           -489.9035 XXZZ=           -487.3029 YYZZ=           -182.4442
 XXYZ=             26.7166 YYXZ=             -8.0440 ZZXY=             -1.7577
 N-N= 8.081335313018D+02 E-N=-2.904785194720D+03  KE= 5.513107252625D+02
 Breneman (CHELPG) radii used.
 Read replacement radii for each type of atom:
 Atom Element Radius
    1     7    1.70
    2     6    1.50
    3     6    1.50
    4     6    1.50
    5     7    1.70
    6     6    1.50
    7     7    1.70
    8     6    1.50
    9     6    1.50
   10     6    1.50
   11     6    1.50
   12     6    1.50
   13     6    1.50
   14     1    1.45
   15     1    1.45
   16     1    1.45
   17     1    1.45
   18     1    1.45
   19     1    1.45
   20     1    1.45
   21     1    1.45
   22     1    1.45
   23     1    1.45
   24     1    1.45
   25     1    1.45
   26     1    1.45
   27     1    1.45
   28     1    1.45
 Generate Potential Derived Charges using the Breneman model, NDens= 1.
 Grid spacing= 0.300 Box extension= 2.800
 NStep X,Y,Z=   47     38     31   Total possible points=       55366
 Number of Points to Fit=   16044

 **********************************************************************

            Electrostatic Properties Using The SCF Density.

 **********************************************************************

       Atomic Center    1 is at   3.444488 -1.586092  0.196579
       Atomic Center    2 is at   2.569019 -0.534212  0.074339
       Atomic Center    3 is at   2.978809  0.784148  0.357779
       Atomic Center    4 is at   2.026689  1.785399  0.267249
       Atomic Center    5 is at   0.758549  1.600849 -0.085211
       Atomic Center    6 is at   0.355079  0.354559 -0.370221
       Atomic Center    7 is at  -0.958261  0.206529 -0.762071
       Atomic Center    8 is at  -1.564542 -1.092651 -0.953381
       Atomic Center    9 is at  -2.151532 -1.623671  0.366679
       Atomic Center   10 is at  -2.650471 -0.442491  1.220099
       Atomic Center   11 is at  -3.115581  0.710119  0.328749
       Atomic Center   12 is at  -1.934571  1.257699 -0.499911
       Atomic Center   13 is at   1.235419 -0.745881 -0.286801
       Atomic Center   14 is at   4.431878 -1.373752  0.210679
       Atomic Center   15 is at   3.204178 -2.456002 -0.257341
       Atomic Center   16 is at   4.005719  1.008708  0.651249
       Atomic Center   17 is at   2.312929  2.819438  0.493329
       Atomic Center   18 is at  -0.854572 -1.795741 -1.406621
       Atomic Center   19 is at  -2.369342 -0.968581 -1.696571
       Atomic Center   20 is at  -2.974242 -2.322561  0.143359
       Atomic Center   21 is at  -1.392252 -2.193991  0.924009
       Atomic Center   22 is at  -1.830471 -0.080231  1.862119
       Atomic Center   23 is at  -3.455481 -0.766601  1.896459
       Atomic Center   24 is at  -3.546851  1.523909  0.930699
       Atomic Center   25 is at  -3.925111  0.355350 -0.332021
       Atomic Center   26 is at  -1.410561  2.056369  0.037769
       Atomic Center   27 is at  -2.296001  1.690029 -1.450341
       Atomic Center   28 is at   0.896848 -1.763461 -0.479351
   16044 points will be used for fitting atomic charges
 Fitting point charges to electrostatic potential
 Charges from ESP fit, RMS=   0.00320 RRMS=   0.21790:
 ESP charges:
               1
     1  N   -0.849154
     2  C    0.627751
     3  C   -0.535191
     4  C    0.314449
     5  N   -0.644531
     6  C    0.780997
     7  N   -0.521969
     8  C    0.193183
     9  C    0.012020
    10  C    0.063310
    11  C   -0.016684
    12  C    0.227507
    13  C   -0.719162
    14  H    0.363928
    15  H    0.339816
    16  H    0.161060
    17  H    0.046705
    18  H   -0.053939
    19  H    0.032768
    20  H   -0.014789
    21  H   -0.020763
    22  H   -0.000737
    23  H   -0.019223
    24  H   -0.004770
    25  H   -0.007489
    26  H    0.002090
    27  H   -0.025069
    28  H    0.267889
 Sum of ESP charges =   0.00000
 ESP charges with hydrogens summed into heavy atoms:
               1
     1  N   -0.145410
     2  C    0.627751
     3  C   -0.374131
     4  C    0.361154
     5  N   -0.644531
     6  C    0.780997
     7  N   -0.521969
     8  C    0.172013
     9  C   -0.023533
    10  C    0.043349
    11  C   -0.028943
    12  C    0.204527
    13  C   -0.451273
 Charge=   0.00000 Dipole=     0.7307    -2.6819    -0.4576 Tot=     2.8171
 -----------------------------------------------------------------

              Electrostatic Properties (Atomic Units)

 -----------------------------------------------------------------
    Center     Electric         -------- Electric Field --------
               Potential          X             Y             Z
 -----------------------------------------------------------------
    1 Atom    -18.374729
    2 Atom    -14.722267
    3 Atom    -14.791473
    4 Atom    -14.752784
    5 Atom    -18.433510
    6 Atom    -14.709604
    7 Atom    -18.378765
    8 Atom    -14.739608
    9 Atom    -14.772915
   10 Atom    -14.774470
   11 Atom    -14.775270
   12 Atom    -14.753617
   13 Atom    -14.786642
   14 Atom     -1.027839
   15 Atom     -1.027664
   16 Atom     -1.110468
   17 Atom     -1.124420
   18 Atom     -1.114908
   19 Atom     -1.122079
   20 Atom     -1.127604
   21 Atom     -1.130017
   22 Atom     -1.136062
   23 Atom     -1.131719
   24 Atom     -1.129959
   25 Atom     -1.133644
   26 Atom     -1.136745
   27 Atom     -1.138031
   28 Atom     -1.105983
 -----------------------------------------------------------------
 Unable to Open any file for archive entry.
 1\1\GINC-NOTCH418\SP\RwB97XD\def2TZVP\C10H15N3\U6053008\12-Jul-2024\0\
 \#N Guess=Read Geom=Check Integral(Ultrafine) Density Pop=(ChelpG,Read
 Radii) NMR wB97XD def2TZVP\\1236666_4\\0,1\N,0,3.44449,-1.58609,0.1965
 8\C,0,2.56902,-0.53421,0.07434\C,0,2.97881,0.78415,0.35778\C,0,2.02669
 ,1.7854,0.26725\N,0,0.75855,1.60085,-0.08521\C,0,0.35508,0.35456,-0.37
 022\N,0,-0.95826,0.20653,-0.76207\C,0,-1.56454,-1.09265,-0.95338\C,0,-
 2.15153,-1.62367,0.36668\C,0,-2.65047,-0.44249,1.2201\C,0,-3.11558,0.7
 1012,0.32875\C,0,-1.93457,1.2577,-0.49991\C,0,1.23542,-0.74588,-0.2868
 \H,0,4.43188,-1.37375,0.21068\H,0,3.20418,-2.456,-0.25734\H,0,4.00572,
 1.00871,0.65125\H,0,2.31293,2.81944,0.49333\H,0,-0.85457,-1.79574,-1.4
 0662\H,0,-2.36934,-0.96858,-1.69657\H,0,-2.97424,-2.32256,0.14336\H,0,
 -1.39225,-2.19399,0.92401\H,0,-1.83047,-0.08023,1.86212\H,0,-3.45548,-
 0.7666,1.89646\H,0,-3.54685,1.52391,0.9307\H,0,-3.92511,0.35535,-0.332
 02\H,0,-1.41056,2.05637,0.03777\H,0,-2.296,1.69003,-1.45034\H,0,0.8968
 5,-1.76346,-0.47935\\Version=ES64L-G16RevC.01\State=1-A\HF=-554.380659
 1\RMSD=1.867e-09\Dipole=0.2350389,-1.0829452,-0.1298472\Quadrupole=7.6
 174343,-1.3355133,-6.2819209,-2.9804939,-0.11943,2.8916743\PG=C01 [X(C
 10H15N3)]\\@
 The archive entry for this job was punched.


 KNOWLEDGE IS CHIMERA - FOR BEYOND IT LIES OTHER KNOWLEDGE,
 AND THE INCOMPLETENESS OF WHAT IS KNOWN RENDERS THE KNOWING FALSE.
     -- THE THOMAS COVENANT CHRONICLES
 Job cpu time:       0 days  1 hours  3 minutes  2.3 seconds.
 Elapsed time:       0 days  0 hours  4 minutes  8.8 seconds.
 File lengths (MBytes):  RWF=    153 Int=      0 D2E=      0 Chk=     23 Scr=      2
 Normal termination of Gaussian 16 at Fri Jul 12 13:32:54 2024.
