 Entering Gaussian System, Link 0=g16
 Input=1236666_3.com
 Output=1236666_3.log
 Initial command:
 /uufs/chpc.utah.edu/sys/installdir/gaussian16/C01/AVX/g16/l1.exe "/scratch/general/vast/u6053008/1287185-notchpeak.peaks/Gau-3166181.inp" -scrdir="/scratch/general/vast/u6053008/1287185-notchpeak.peaks/"
 Entering Link 1 = /uufs/chpc.utah.edu/sys/installdir/gaussian16/C01/AVX/g16/l1.exe PID=   3166184.
  
 Copyright (c) 1988-2019, Gaussian, Inc.  All Rights Reserved.
  
 This is part of the Gaussian(R) 16 program.  It is based on
 the Gaussian(R) 09 system (copyright 2009, Gaussian, Inc.),
 the Gaussian(R) 03 system (copyright 2003, Gaussian, Inc.),
 the Gaussian(R) 98 system (copyright 1998, Gaussian, Inc.),
 the Gaussian(R) 94 system (copyright 1995, Gaussian, Inc.),
 the Gaussian 92(TM) system (copyright 1992, Gaussian, Inc.),
 the Gaussian 90(TM) system (copyright 1990, Gaussian, Inc.),
 the Gaussian 88(TM) system (copyright 1988, Gaussian, Inc.),
 the Gaussian 86(TM) system (copyright 1986, Carnegie Mellon
 University), and the Gaussian 82(TM) system (copyright 1983,
 Carnegie Mellon University). Gaussian is a federally registered
 trademark of Gaussian, Inc.
  
 This software contains proprietary and confidential information,
 including trade secrets, belonging to Gaussian, Inc.
  
 This software is provided under written license and may be
 used, copied, transmitted, or stored only in accord with that
 written license.
  
 The following legend is applicable only to US Government
 contracts under FAR:
  
                    RESTRICTED RIGHTS LEGEND
  
 Use, reproduction and disclosure by the US Government is
 subject to restrictions as set forth in subparagraphs (a)
 and (c) of the Commercial Computer Software - Restricted
 Rights clause in FAR 52.227-19.
  
 Gaussian, Inc.
 340 Quinnipiac St., Bldg. 40, Wallingford CT 06492
  
  
 ---------------------------------------------------------------
 Warning -- This program may not be used in any manner that
 competes with the business of Gaussian, Inc. or will provide
 assistance to any competitor of Gaussian, Inc.  The licensee
 of this program is prohibited from giving any competitor of
 Gaussian, Inc. access to this program.  By using this program,
 the user acknowledges that Gaussian, Inc. is engaged in the
 business of creating and licensing software in the field of
 computational chemistry and represents and warrants to the
 licensee that it is not a competitor of Gaussian, Inc. and that
 it will not use this program in any manner prohibited above.
 ---------------------------------------------------------------
  

 Cite this work as:
 Gaussian 16, Revision C.01,
 M. J. Frisch, G. W. Trucks, H. B. Schlegel, G. E. Scuseria, 
 M. A. Robb, J. R. Cheeseman, G. Scalmani, V. Barone, 
 G. A. Petersson, H. Nakatsuji, X. Li, M. Caricato, A. V. Marenich, 
 J. Bloino, B. G. Janesko, R. Gomperts, B. Mennucci, H. P. Hratchian, 
 J. V. Ortiz, A. F. Izmaylov, J. L. Sonnenberg, D. Williams-Young, 
 F. Ding, F. Lipparini, F. Egidi, J. Goings, B. Peng, A. Petrone, 
 T. Henderson, D. Ranasinghe, V. G. Zakrzewski, J. Gao, N. Rega, 
 G. Zheng, W. Liang, M. Hada, M. Ehara, K. Toyota, R. Fukuda, 
 J. Hasegawa, M. Ishida, T. Nakajima, Y. Honda, O. Kitao, H. Nakai, 
 T. Vreven, K. Throssell, J. A. Montgomery, Jr., J. E. Peralta, 
 F. Ogliaro, M. J. Bearpark, J. J. Heyd, E. N. Brothers, K. N. Kudin, 
 V. N. Staroverov, T. A. Keith, R. Kobayashi, J. Normand, 
 K. Raghavachari, A. P. Rendell, J. C. Burant, S. S. Iyengar, 
 J. Tomasi, M. Cossi, J. M. Millam, M. Klene, C. Adamo, R. Cammi, 
 J. W. Ochterski, R. L. Martin, K. Morokuma, O. Farkas, 
 J. B. Foresman, and D. J. Fox, Gaussian, Inc., Wallingford CT, 2019.
 
 ******************************************
 Gaussian 16:  ES64L-G16RevC.01  3-Jul-2019
                12-Jul-2024 
 ******************************************
 %NProcShared=16
 Will use up to   16 processors via shared memory.
 %Mem=32GB
 %chk=1236666_3.chk
 ------------------------------------------------------
 #N OPT FREQ=NORAMAN Integral(Ultrafine) wB97XD def2SVP
 ------------------------------------------------------
 1/18=20,19=15,26=4,38=1/1,3;
 2/9=110,12=2,17=6,18=5,40=1/2;
 3/5=43,7=101,11=2,25=1,30=1,71=1,74=-58,75=-5/1,2,3;
 4//1;
 5/5=2,38=5/2;
 6/7=2,8=2,9=2,10=2,28=1/1;
 7//1,2,3,16;
 1/18=20,19=15,26=4/3(2);
 2/9=110/2;
 99//99;
 2/9=110/2;
 3/5=43,7=101,11=2,25=1,30=1,71=1,74=-58,75=-5/1,2,3;
 4/5=5,16=3,69=1/1;
 5/5=2,38=5/2;
 7//1,2,3,16;
 1/18=20,19=15,26=4/3(-5);
 2/9=110/2;
 6/7=2,8=2,9=2,10=2,19=2,28=1/1;
 99/9=1/99;
 ---------
 1236666_3
 ---------
 Symbolic Z-matrix:
 Charge =  0 Multiplicity = 1
 N                    -3.65677  -1.57293   0.27514 
 C                    -2.74775  -0.5549    0.11829 
 C                    -3.15697   0.79246   0.15525 
 C                    -2.18015   1.76586   0.01733 
 N                    -0.88326   1.5268   -0.13862 
 C                    -0.47619   0.24842  -0.16481 
 N                     0.87081   0.02096  -0.30861 
 C                     1.80411   1.10562  -0.55516 
 C                     2.94501   1.0978    0.4664 
 C                     3.4296   -0.33765   0.76764 
 C                     2.9268   -1.32068  -0.28771 
 C                     1.39892  -1.32949  -0.32007 
 C                    -1.38566  -0.82515  -0.05019 
 H                    -4.63198  -1.3574    0.12412 
 H                    -3.37854  -2.50208  -0.00748 
 H                    -4.20609   1.06347   0.28578 
 H                    -2.47173   2.82281   0.034 
 H                     1.23656   2.04074  -0.51118 
 H                     2.20997   1.0189   -1.58019 
 H                     3.76864   1.71502   0.07376 
 H                     2.60491   1.58079   1.39475 
 H                     3.04924  -0.66286   1.75013 
 H                     4.52717  -0.37634   0.83508 
 H                     3.27983  -2.3413   -0.07692 
 H                     3.33007  -1.05295  -1.27796 
 H                     1.03452  -1.86955   0.57356 
 H                     1.03632  -1.89588  -1.20113 
 H                    -1.05076  -1.86099  -0.09348 
 

 GradGradGradGradGradGradGradGradGradGradGradGradGradGradGradGradGradGrad
 Berny optimization.
 Initialization pass.
                           ----------------------------
                           !    Initial Parameters    !
                           ! (Angstroms and Degrees)  !
 --------------------------                            --------------------------
 ! Name  Definition              Value          Derivative Info.                !
 --------------------------------------------------------------------------------
 ! R1    R(1,2)                  1.3738         estimate D2E/DX2                !
 ! R2    R(1,14)                 1.0101         estimate D2E/DX2                !
 ! R3    R(1,15)                 1.0103         estimate D2E/DX2                !
 ! R4    R(2,3)                  1.4086         estimate D2E/DX2                !
 ! R5    R(2,13)                 1.3988         estimate D2E/DX2                !
 ! R6    R(3,4)                  1.3859         estimate D2E/DX2                !
 ! R7    R(3,16)                 1.0914         estimate D2E/DX2                !
 ! R8    R(4,5)                  1.3279         estimate D2E/DX2                !
 ! R9    R(4,17)                 1.0966         estimate D2E/DX2                !
 ! R10   R(5,6)                  1.3419         estimate D2E/DX2                !
 ! R11   R(6,7)                  1.3736         estimate D2E/DX2                !
 ! R12   R(6,13)                 1.4117         estimate D2E/DX2                !
 ! R13   R(7,8)                  1.452          estimate D2E/DX2                !
 ! R14   R(7,12)                 1.4501         estimate D2E/DX2                !
 ! R15   R(8,9)                  1.5314         estimate D2E/DX2                !
 ! R16   R(8,18)                 1.0948         estimate D2E/DX2                !
 ! R17   R(8,19)                 1.1059         estimate D2E/DX2                !
 ! R18   R(9,10)                 1.5447         estimate D2E/DX2                !
 ! R19   R(9,20)                 1.1016         estimate D2E/DX2                !
 ! R20   R(9,21)                 1.1004         estimate D2E/DX2                !
 ! R21   R(10,11)                1.5274         estimate D2E/DX2                !
 ! R22   R(10,22)                1.1026         estimate D2E/DX2                !
 ! R23   R(10,23)                1.1003         estimate D2E/DX2                !
 ! R24   R(11,12)                1.5282         estimate D2E/DX2                !
 ! R25   R(11,24)                1.1003         estimate D2E/DX2                !
 ! R26   R(11,25)                1.1022         estimate D2E/DX2                !
 ! R27   R(12,26)                1.1059         estimate D2E/DX2                !
 ! R28   R(12,27)                1.1084         estimate D2E/DX2                !
 ! R29   R(13,28)                1.0895         estimate D2E/DX2                !
 ! A1    A(2,1,14)             117.6225         estimate D2E/DX2                !
 ! A2    A(2,1,15)             117.864          estimate D2E/DX2                !
 ! A3    A(14,1,15)            114.8545         estimate D2E/DX2                !
 ! A4    A(1,2,3)              120.903          estimate D2E/DX2                !
 ! A5    A(1,2,13)             120.9904         estimate D2E/DX2                !
 ! A6    A(3,2,13)             118.0888         estimate D2E/DX2                !
 ! A7    A(2,3,4)              117.6743         estimate D2E/DX2                !
 ! A8    A(2,3,16)             121.3265         estimate D2E/DX2                !
 ! A9    A(4,3,16)             120.9991         estimate D2E/DX2                !
 ! A10   A(3,4,5)              125.0016         estimate D2E/DX2                !
 ! A11   A(3,4,17)             119.2133         estimate D2E/DX2                !
 ! A12   A(5,4,17)             115.7851         estimate D2E/DX2                !
 ! A13   A(4,5,6)              118.0385         estimate D2E/DX2                !
 ! A14   A(5,6,7)              117.2116         estimate D2E/DX2                !
 ! A15   A(5,6,13)             121.8355         estimate D2E/DX2                !
 ! A16   A(7,6,13)             120.9529         estimate D2E/DX2                !
 ! A17   A(6,7,8)              121.627          estimate D2E/DX2                !
 ! A18   A(6,7,12)             120.8089         estimate D2E/DX2                !
 ! A19   A(8,7,12)             117.4031         estimate D2E/DX2                !
 ! A20   A(7,8,9)              111.209          estimate D2E/DX2                !
 ! A21   A(7,8,18)             107.3394         estimate D2E/DX2                !
 ! A22   A(7,8,19)             109.5549         estimate D2E/DX2                !
 ! A23   A(9,8,18)             111.3327         estimate D2E/DX2                !
 ! A24   A(9,8,19)             110.1504         estimate D2E/DX2                !
 ! A25   A(18,8,19)            107.1267         estimate D2E/DX2                !
 ! A26   A(8,9,10)             111.6258         estimate D2E/DX2                !
 ! A27   A(8,9,20)             108.4445         estimate D2E/DX2                !
 ! A28   A(8,9,21)             109.286          estimate D2E/DX2                !
 ! A29   A(10,9,20)            110.832          estimate D2E/DX2                !
 ! A30   A(10,9,21)            109.8969         estimate D2E/DX2                !
 ! A31   A(20,9,21)            106.6108         estimate D2E/DX2                !
 ! A32   A(9,10,11)            111.1043         estimate D2E/DX2                !
 ! A33   A(9,10,22)            109.855          estimate D2E/DX2                !
 ! A34   A(9,10,23)            110.9502         estimate D2E/DX2                !
 ! A35   A(11,10,22)           108.1976         estimate D2E/DX2                !
 ! A36   A(11,10,23)           110.3702         estimate D2E/DX2                !
 ! A37   A(22,10,23)           106.2076         estimate D2E/DX2                !
 ! A38   A(10,11,12)           110.3315         estimate D2E/DX2                !
 ! A39   A(10,11,24)           111.0385         estimate D2E/DX2                !
 ! A40   A(10,11,25)           110.1199         estimate D2E/DX2                !
 ! A41   A(12,11,24)           108.631          estimate D2E/DX2                !
 ! A42   A(12,11,25)           110.3747         estimate D2E/DX2                !
 ! A43   A(24,11,25)           106.2618         estimate D2E/DX2                !
 ! A44   A(7,12,11)            111.0123         estimate D2E/DX2                !
 ! A45   A(7,12,26)            109.1716         estimate D2E/DX2                !
 ! A46   A(7,12,27)            111.2863         estimate D2E/DX2                !
 ! A47   A(11,12,26)           108.3686         estimate D2E/DX2                !
 ! A48   A(11,12,27)           110.294          estimate D2E/DX2                !
 ! A49   A(26,12,27)           106.5578         estimate D2E/DX2                !
 ! A50   A(2,13,6)             119.3527         estimate D2E/DX2                !
 ! A51   A(2,13,28)            119.1953         estimate D2E/DX2                !
 ! A52   A(6,13,28)            121.4517         estimate D2E/DX2                !
 ! D1    D(14,1,2,3)            19.0111         estimate D2E/DX2                !
 ! D2    D(14,1,2,13)         -162.5517         estimate D2E/DX2                !
 ! D3    D(15,1,2,3)           163.4253         estimate D2E/DX2                !
 ! D4    D(15,1,2,13)          -18.1374         estimate D2E/DX2                !
 ! D5    D(1,2,3,4)            178.6901         estimate D2E/DX2                !
 ! D6    D(1,2,3,16)            -1.4307         estimate D2E/DX2                !
 ! D7    D(13,2,3,4)             0.2086         estimate D2E/DX2                !
 ! D8    D(13,2,3,16)         -179.9122         estimate D2E/DX2                !
 ! D9    D(1,2,13,6)          -177.9534         estimate D2E/DX2                !
 ! D10   D(1,2,13,28)            2.2563         estimate D2E/DX2                !
 ! D11   D(3,2,13,6)             0.5267         estimate D2E/DX2                !
 ! D12   D(3,2,13,28)         -179.2635         estimate D2E/DX2                !
 ! D13   D(2,3,4,5)             -0.4699         estimate D2E/DX2                !
 ! D14   D(2,3,4,17)           179.4945         estimate D2E/DX2                !
 ! D15   D(16,3,4,5)           179.6505         estimate D2E/DX2                !
 ! D16   D(16,3,4,17)           -0.3851         estimate D2E/DX2                !
 ! D17   D(3,4,5,6)             -0.068          estimate D2E/DX2                !
 ! D18   D(17,4,5,6)           179.9665         estimate D2E/DX2                !
 ! D19   D(4,5,6,7)           -179.1357         estimate D2E/DX2                !
 ! D20   D(4,5,6,13)             0.8637         estimate D2E/DX2                !
 ! D21   D(5,6,7,8)             -5.9614         estimate D2E/DX2                !
 ! D22   D(5,6,7,12)           178.7692         estimate D2E/DX2                !
 ! D23   D(13,6,7,8)           174.0391         estimate D2E/DX2                !
 ! D24   D(13,6,7,12)           -1.2303         estimate D2E/DX2                !
 ! D25   D(5,6,13,2)            -1.1039         estimate D2E/DX2                !
 ! D26   D(5,6,13,28)          178.6814         estimate D2E/DX2                !
 ! D27   D(7,6,13,2)           178.8955         estimate D2E/DX2                !
 ! D28   D(7,6,13,28)           -1.3191         estimate D2E/DX2                !
 ! D29   D(6,7,8,9)            126.4714         estimate D2E/DX2                !
 ! D30   D(6,7,8,18)             4.4694         estimate D2E/DX2                !
 ! D31   D(6,7,8,19)          -111.5254         estimate D2E/DX2                !
 ! D32   D(12,7,8,9)           -58.1048         estimate D2E/DX2                !
 ! D33   D(12,7,8,18)          179.8932         estimate D2E/DX2                !
 ! D34   D(12,7,8,19)           63.8984         estimate D2E/DX2                !
 ! D35   D(6,7,12,11)         -171.7969         estimate D2E/DX2                !
 ! D36   D(6,7,12,26)          -52.3941         estimate D2E/DX2                !
 ! D37   D(6,7,12,27)           64.9457         estimate D2E/DX2                !
 ! D38   D(8,7,12,11)           12.7398         estimate D2E/DX2                !
 ! D39   D(8,7,12,26)          132.1426         estimate D2E/DX2                !
 ! D40   D(8,7,12,27)         -110.5176         estimate D2E/DX2                !
 ! D41   D(7,8,9,10)            40.5028         estimate D2E/DX2                !
 ! D42   D(7,8,9,20)           162.8804         estimate D2E/DX2                !
 ! D43   D(7,8,9,21)           -81.2725         estimate D2E/DX2                !
 ! D44   D(18,8,9,10)          160.1561         estimate D2E/DX2                !
 ! D45   D(18,8,9,20)          -77.4663         estimate D2E/DX2                !
 ! D46   D(18,8,9,21)           38.3808         estimate D2E/DX2                !
 ! D47   D(19,8,9,10)          -81.1541         estimate D2E/DX2                !
 ! D48   D(19,8,9,20)           41.2235         estimate D2E/DX2                !
 ! D49   D(19,8,9,21)          157.0707         estimate D2E/DX2                !
 ! D50   D(8,9,10,11)           15.5386         estimate D2E/DX2                !
 ! D51   D(8,9,10,22)         -104.1493         estimate D2E/DX2                !
 ! D52   D(8,9,10,23)          138.72           estimate D2E/DX2                !
 ! D53   D(20,9,10,11)        -105.4588         estimate D2E/DX2                !
 ! D54   D(20,9,10,22)         134.8534         estimate D2E/DX2                !
 ! D55   D(20,9,10,23)          17.7226         estimate D2E/DX2                !
 ! D56   D(21,9,10,11)         136.9605         estimate D2E/DX2                !
 ! D57   D(21,9,10,22)          17.2726         estimate D2E/DX2                !
 ! D58   D(21,9,10,23)         -99.8582         estimate D2E/DX2                !
 ! D59   D(9,10,11,12)         -59.9915         estimate D2E/DX2                !
 ! D60   D(9,10,11,24)         179.5076         estimate D2E/DX2                !
 ! D61   D(9,10,11,25)          62.0925         estimate D2E/DX2                !
 ! D62   D(22,10,11,12)         60.6792         estimate D2E/DX2                !
 ! D63   D(22,10,11,24)        -59.8217         estimate D2E/DX2                !
 ! D64   D(22,10,11,25)       -177.2367         estimate D2E/DX2                !
 ! D65   D(23,10,11,12)        176.4948         estimate D2E/DX2                !
 ! D66   D(23,10,11,24)         55.9939         estimate D2E/DX2                !
 ! D67   D(23,10,11,25)        -61.4212         estimate D2E/DX2                !
 ! D68   D(10,11,12,7)          45.866          estimate D2E/DX2                !
 ! D69   D(10,11,12,26)        -74.0165         estimate D2E/DX2                !
 ! D70   D(10,11,12,27)        169.6916         estimate D2E/DX2                !
 ! D71   D(24,11,12,7)         167.7999         estimate D2E/DX2                !
 ! D72   D(24,11,12,26)         47.9175         estimate D2E/DX2                !
 ! D73   D(24,11,12,27)        -68.3744         estimate D2E/DX2                !
 ! D74   D(25,11,12,7)         -76.0678         estimate D2E/DX2                !
 ! D75   D(25,11,12,26)        164.0498         estimate D2E/DX2                !
 ! D76   D(25,11,12,27)         47.7579         estimate D2E/DX2                !
 --------------------------------------------------------------------------------
 Trust Radius=3.00D-01 FncErr=1.00D-07 GrdErr=1.00D-06 EigMax=2.50D+02 EigMin=1.00D-04
 Number of steps in this run=    167 maximum allowed number of steps=    168.
 GradGradGradGradGradGradGradGradGradGradGradGradGradGradGradGradGradGrad

                          Input orientation:                          
 ---------------------------------------------------------------------
 Center     Atomic      Atomic             Coordinates (Angstroms)
 Number     Number       Type             X           Y           Z
 ---------------------------------------------------------------------
      1          7           0       -3.656770   -1.572930    0.275140
      2          6           0       -2.747750   -0.554900    0.118290
      3          6           0       -3.156970    0.792460    0.155250
      4          6           0       -2.180150    1.765860    0.017330
      5          7           0       -0.883260    1.526800   -0.138620
      6          6           0       -0.476190    0.248420   -0.164810
      7          7           0        0.870810    0.020960   -0.308610
      8          6           0        1.804110    1.105620   -0.555160
      9          6           0        2.945010    1.097800    0.466400
     10          6           0        3.429600   -0.337650    0.767640
     11          6           0        2.926800   -1.320680   -0.287710
     12          6           0        1.398920   -1.329490   -0.320070
     13          6           0       -1.385660   -0.825150   -0.050190
     14          1           0       -4.631980   -1.357400    0.124120
     15          1           0       -3.378540   -2.502080   -0.007480
     16          1           0       -4.206090    1.063470    0.285780
     17          1           0       -2.471730    2.822810    0.034000
     18          1           0        1.236560    2.040740   -0.511180
     19          1           0        2.209970    1.018900   -1.580190
     20          1           0        3.768640    1.715020    0.073760
     21          1           0        2.604910    1.580790    1.394750
     22          1           0        3.049240   -0.662860    1.750130
     23          1           0        4.527170   -0.376340    0.835080
     24          1           0        3.279830   -2.341300   -0.076920
     25          1           0        3.330070   -1.052950   -1.277960
     26          1           0        1.034520   -1.869550    0.573560
     27          1           0        1.036320   -1.895880   -1.201130
     28          1           0       -1.050760   -1.860990   -0.093480
 ---------------------------------------------------------------------
                    Distance matrix (angstroms):
                    1          2          3          4          5
     1  N    0.000000
     2  C    1.373792   0.000000
     3  C    2.420587   1.408618   0.000000
     4  C    3.659835   2.391295   1.385896   0.000000
     5  N    4.179938   2.806386   2.407358   1.327928   0.000000
     6  C    3.691471   2.425995   2.754088   2.288947   1.341882
     7  N    4.835311   3.688880   4.127153   3.529769   2.318019
     8  C    6.138830   4.891860   5.021461   4.078969   2.751882
     9  C    7.124105   5.938023   6.117533   5.187989   3.899454
    10  C    7.210070   6.215184   6.710818   6.037964   4.785211
    11  C    6.612399   5.740363   6.455527   5.975008   4.758879
    12  C    5.096424   4.241111   5.048241   4.743920   3.660555
    13  C    2.413080   1.398824   2.407573   2.710923   2.406635
    14  H    1.010096   2.048014   2.607397   3.972106   4.737145
    15  H    1.010250   2.050664   3.305990   4.433065   4.740833
    16  H    2.693041   2.184932   1.091392   2.160984   3.381714
    17  H    4.559057   3.390017   2.146294   1.096558   2.057347
    18  H    6.133644   4.796697   4.615781   3.468254   2.212820
    19  H    6.676711   5.471807   5.645093   4.731086   3.450240
    20  H    8.123293   6.900569   6.987262   5.949275   4.660548
    21  H    7.099867   5.902668   5.946182   4.982804   3.810704
    22  H    6.926355   6.023259   6.571046   6.020614   4.881244
    23  H    8.289887   7.312327   7.802196   7.088433   5.817455
    24  H    6.987901   6.289758   7.162873   6.832937   5.683073
    25  H    7.176241   6.255994   6.895021   6.323448   5.070045
    26  H    4.710121   4.030030   4.982958   4.884639   3.964880
    27  H    4.930392   4.225906   5.162424   5.023810   4.065520
    28  H    2.647668   2.151858   3.396879   3.800242   3.392229
                    6          7          8          9         10
     6  C    0.000000
     7  N    1.373618   0.000000
     8  C    2.467171   1.452007   0.000000
     9  C    3.581129   2.462221   1.531437   0.000000
    10  C    4.058095   2.798986   2.544611   1.544697   0.000000
    11  C    3.749336   2.455103   2.686800   2.533389   1.527390
    12  C    2.455594   1.450085   2.479759   2.983398   2.508091
    13  C    1.411675   2.423704   3.762645   4.766477   4.908486
    14  H    4.464608   5.689273   6.924676   7.972198   8.151262
    15  H    4.001704   4.951099   6.338400   7.291844   7.185843
    16  H    3.844410   5.216804   6.068893   7.153463   7.778116
    17  H    3.263310   4.374965   4.645283   5.701202   6.734421
    18  H    2.503177   2.062600   1.094759   2.182567   3.478727
    19  H    3.132474   2.099083   1.105861   2.176015   2.973219
    20  H    4.497378   3.378382   2.150880   1.101587   2.193142
    21  H    3.701434   2.888184   2.160837   1.100355   2.180319
    22  H    4.114132   3.074342   3.161049   2.181456   1.102598
    23  H    5.140400   3.851603   3.397650   2.193683   1.100320
    24  H    4.563120   3.381912   3.779910   3.497815   2.179524
    25  H    4.173761   2.853223   2.740514   2.795852   2.169341
    26  H    2.704299   2.092619   3.273823   3.530810   2.849700
    27  H    2.821288   2.120910   3.164772   3.922483   3.468707
    28  H    2.187425   2.698231   4.142971   5.003407   4.809960
                   11         12         13         14         15
    11  C    0.000000
    12  C    1.528248   0.000000
    13  C    4.347330   2.842724   0.000000
    14  H    7.570080   6.047300   3.294278   0.000000
    15  H    6.421180   4.929179   2.604897   1.702564   0.000000
    16  H    7.542624   6.124496   3.410951   2.463357   3.672055
    17  H    6.812939   5.687609   3.807131   4.706268   5.401711
    18  H    3.769084   3.379546   3.911761   6.811074   6.495389
    19  H    2.767306   2.785793   4.320877   7.440682   6.789857
    20  H    3.170935   3.878107   5.747577   8.944983   8.298959
    21  H    3.369394   3.586746   4.878632   7.913282   7.378194
    22  H    2.144880   2.730143   4.789136   7.882096   6.912907
    23  H    2.171087   3.468258   5.995556   9.238938   8.229759
    24  H    1.100331   2.149582   4.905734   7.975288   6.660673
    25  H    1.102226   2.173331   4.878260   8.090288   6.979939
    26  H    2.150295   1.105905   2.708709   5.707321   4.495865
    27  H    2.176949   1.108397   2.887406   5.846013   4.613379
    28  H    4.018786   2.516896   1.089494   3.622995   2.415979
                   16         17         18         19         20
    16  H    0.000000
    17  H    2.483279   0.000000
    18  H    5.586827   3.828873   0.000000
    19  H    6.682040   5.270485   1.770442   0.000000
    20  H    8.004111   6.338059   2.619099   2.376886   0.000000
    21  H    6.920055   5.400604   2.390921   3.053189   1.765588
    22  H    7.600286   6.751008   3.963431   3.824098   2.997010
    23  H    8.868180   7.736982   4.299163   3.626243   2.351332
    24  H    8.231829   7.730510   4.854463   3.833453   4.088444
    25  H    7.982370   7.099552   3.813352   2.374559   3.111454
    26  H    6.012439   5.882445   4.062985   3.789916   4.535896
    27  H    6.200929   6.008161   4.001638   3.164978   4.704202
    28  H    4.318844   4.896263   4.542004   4.597438   6.003535
                   21         22         23         24         25
    21  H    0.000000
    22  H    2.314668   0.000000
    23  H    2.799763   1.761728   0.000000
    24  H    4.243126   2.491675   2.499734   0.000000
    25  H    3.821756   3.066001   2.521069   1.762063   0.000000
    26  H    3.878830   2.626693   3.807450   2.384762   3.060149
    27  H    4.613708   3.779169   4.317544   2.548644   2.444938
    28  H    5.236850   4.652356   5.846342   4.357176   4.609511
                   26         27         28
    26  H    0.000000
    27  H    1.774886   0.000000
    28  H    2.189385   2.363051   0.000000
 Stoichiometry    C10H15N3
 Framework group  C1[X(C10H15N3)]
 Deg. of freedom    78
 Full point group                 C1      NOp   1
 Largest Abelian subgroup         C1      NOp   1
 Largest concise Abelian subgroup C1      NOp   1
                         Standard orientation:                         
 ---------------------------------------------------------------------
 Center     Atomic      Atomic             Coordinates (Angstroms)
 Number     Number       Type             X           Y           Z
 ---------------------------------------------------------------------
      1          7           0       -3.656768   -1.572931    0.275140
      2          6           0       -2.747749   -0.554900    0.118290
      3          6           0       -3.156969    0.792460    0.155250
      4          6           0       -2.180150    1.765860    0.017330
      5          7           0       -0.883260    1.526800   -0.138620
      6          6           0       -0.476189    0.248421   -0.164810
      7          7           0        0.870811    0.020961   -0.308610
      8          6           0        1.804111    1.105621   -0.555160
      9          6           0        2.945011    1.097802    0.466400
     10          6           0        3.429601   -0.337648    0.767640
     11          6           0        2.926801   -1.320678   -0.287710
     12          6           0        1.398921   -1.329489   -0.320070
     13          6           0       -1.385659   -0.825150   -0.050190
     14          1           0       -4.631979   -1.357401    0.124120
     15          1           0       -3.378538   -2.502081   -0.007480
     16          1           0       -4.206089    1.063469    0.285780
     17          1           0       -2.471730    2.822810    0.034000
     18          1           0        1.236560    2.040741   -0.511180
     19          1           0        2.209971    1.018902   -1.580190
     20          1           0        3.768640    1.715022    0.073760
     21          1           0        2.604910    1.580792    1.394750
     22          1           0        3.049241   -0.662858    1.750130
     23          1           0        4.527171   -0.376338    0.835080
     24          1           0        3.279832   -2.341298   -0.076920
     25          1           0        3.330071   -1.052948   -1.277960
     26          1           0        1.034522   -1.869549    0.573560
     27          1           0        1.036322   -1.895879   -1.201130
     28          1           0       -1.050758   -1.860990   -0.093480
 ---------------------------------------------------------------------
 Rotational constants (GHZ):           1.8410791           0.4666660           0.3902066
 Standard basis: def2SVP (5D, 7F)
 There are   270 symmetry adapted cartesian basis functions of A   symmetry.
 There are   257 symmetry adapted basis functions of A   symmetry.
   257 basis functions,   430 primitive gaussians,   270 cartesian basis functions
    48 alpha electrons       48 beta electrons
       nuclear repulsion energy       796.9665417497 Hartrees.
 NAtoms=   28 NActive=   28 NUniq=   28 SFac= 1.00D+00 NAtFMM=   60 NAOKFM=F Big=F
 Integral buffers will be    131072 words long.
 Raffenetti 2 integral format.
 Two-electron integral symmetry is turned on.
 Nuclear repulsion after empirical dispersion term =      796.9473673312 Hartrees.
 One-electron integrals computed using PRISM.
   1 Symmetry operations used in ECPInt.
 ECPInt:  NShTT=    7626 NPrTT=   27010 LenC2=    7274 LenP2D=   19332.
 LDataN:  DoStor=T MaxTD1= 4 Len=   56
 NBasis=   257 RedAO= T EigKep=  5.44D-04  NBF=   257
 NBsUse=   257 1.00D-06 EigRej= -1.00D+00 NBFU=   257
 ExpMin= 1.22D-01 ExpMax= 1.71D+03 ExpMxC= 2.58D+02 IAcc=3 IRadAn=         5 AccDes= 0.00D+00
 Harris functional with IExCor= 4639 and IRadAn=       5 diagonalized for initial guess.
 HarFok:  IExCor= 4639 AccDes= 0.00D+00 IRadAn=         5 IDoV= 1 UseB2=F ITyADJ=14
 ICtDFT=  3500011 ScaDFX=  1.000000  1.000000  1.000000  1.000000
 FoFCou: FMM=F IPFlag=           0 FMFlag=      100000 FMFlg1=           0
         NFxFlg=           0 DoJE=T BraDBF=F KetDBF=T FulRan=T
         wScrn=  0.000000 ICntrl=       500 IOpCl=  0 I1Cent=   200000004 NGrid=           0
         NMat0=    1 NMatS0=      1 NMatT0=    0 NMatD0=    1 NMtDS0=    0 NMtDT0=    0
 Petite list used in FoFCou.
 Requested convergence on RMS density matrix=1.00D-08 within 128 cycles.
 Requested convergence on MAX density matrix=1.00D-06.
 Requested convergence on             energy=1.00D-06.
 No special actions if energy rises.
 Integral accuracy reduced to 1.0D-05 until final iterations.
 Initial convergence to 1.0D-05 achieved.  Increase integral accuracy.
 SCF Done:  E(RwB97XD) =  -553.797161283     A.U. after   15 cycles
            NFock= 15  Conv=0.83D-08     -V/T= 2.0114

 **********************************************************************

            Population analysis using the SCF Density.

 **********************************************************************

 Orbital symmetries:
       Occupied  (A) (A) (A) (A) (A) (A) (A) (A) (A) (A) (A) (A)
                 (A) (A) (A) (A) (A) (A) (A) (A) (A) (A) (A) (A)
                 (A) (A) (A) (A) (A) (A) (A) (A) (A) (A) (A) (A)
                 (A) (A) (A) (A) (A) (A) (A) (A) (A) (A) (A) (A)
       Virtual   (A) (A) (A) (A) (A) (A) (A) (A) (A) (A) (A) (A)
                 (A) (A) (A) (A) (A) (A) (A) (A) (A) (A) (A) (A)
                 (A) (A) (A) (A) (A) (A) (A) (A) (A) (A) (A) (A)
                 (A) (A) (A) (A) (A) (A) (A) (A) (A) (A) (A) (A)
                 (A) (A) (A) (A) (A) (A) (A) (A) (A) (A) (A) (A)
                 (A) (A) (A) (A) (A) (A) (A) (A) (A) (A) (A) (A)
                 (A) (A) (A) (A) (A) (A) (A) (A) (A) (A) (A) (A)
                 (A) (A) (A) (A) (A) (A) (A) (A) (A) (A) (A) (A)
                 (A) (A) (A) (A) (A) (A) (A) (A) (A) (A) (A) (A)
                 (A) (A) (A) (A) (A) (A) (A) (A) (A) (A) (A) (A)
                 (A) (A) (A) (A) (A) (A) (A) (A) (A) (A) (A) (A)
                 (A) (A) (A) (A) (A) (A) (A) (A) (A) (A) (A) (A)
                 (A) (A) (A) (A) (A) (A) (A) (A) (A) (A) (A) (A)
                 (A) (A) (A) (A) (A) (A) (A) (A) (A) (A) (A) (A)
                 (A) (A) (A) (A) (A) (A) (A) (A) (A) (A) (A) (A)
                 (A) (A) (A) (A) (A) (A) (A) (A) (A) (A) (A) (A)
                 (A) (A) (A) (A) (A) (A) (A) (A) (A) (A) (A) (A)
                 (A) (A) (A) (A) (A)
 The electronic state is 1-A.
 Alpha  occ. eigenvalues --  -14.45505 -14.44820 -14.40381 -10.35602 -10.34499
 Alpha  occ. eigenvalues --  -10.32758 -10.31761 -10.31024 -10.29855 -10.29270
 Alpha  occ. eigenvalues --  -10.28688 -10.27870 -10.27613  -1.05641  -1.01621
 Alpha  occ. eigenvalues --   -0.98997  -0.89243  -0.85863  -0.84177  -0.82499
 Alpha  occ. eigenvalues --   -0.75002  -0.73348  -0.69612  -0.68523  -0.63626
 Alpha  occ. eigenvalues --   -0.61614  -0.61194  -0.58017  -0.56783  -0.55172
 Alpha  occ. eigenvalues --   -0.53771  -0.52191  -0.50641  -0.49985  -0.49540
 Alpha  occ. eigenvalues --   -0.48705  -0.47697  -0.45796  -0.44492  -0.43869
 Alpha  occ. eigenvalues --   -0.43355  -0.41154  -0.40335  -0.39214  -0.35287
 Alpha  occ. eigenvalues --   -0.31951  -0.29336  -0.26186
 Alpha virt. eigenvalues --    0.07828   0.09293   0.13117   0.13894   0.16183
 Alpha virt. eigenvalues --    0.16551   0.17349   0.18411   0.19177   0.20718
 Alpha virt. eigenvalues --    0.20990   0.21310   0.23193   0.24369   0.25004
 Alpha virt. eigenvalues --    0.25281   0.25787   0.26001   0.27412   0.27736
 Alpha virt. eigenvalues --    0.29041   0.32254   0.33224   0.34905   0.35152
 Alpha virt. eigenvalues --    0.38913   0.39739   0.40175   0.40958   0.42100
 Alpha virt. eigenvalues --    0.46215   0.48062   0.50496   0.52007   0.52880
 Alpha virt. eigenvalues --    0.53706   0.53905   0.54861   0.55411   0.55918
 Alpha virt. eigenvalues --    0.57481   0.58743   0.62568   0.63512   0.64813
 Alpha virt. eigenvalues --    0.65460   0.66642   0.67053   0.68898   0.69205
 Alpha virt. eigenvalues --    0.70232   0.70827   0.71745   0.72374   0.73060
 Alpha virt. eigenvalues --    0.73610   0.74122   0.75693   0.76046   0.76832
 Alpha virt. eigenvalues --    0.77434   0.77851   0.78227   0.78415   0.79239
 Alpha virt. eigenvalues --    0.79589   0.80363   0.80790   0.81343   0.81597
 Alpha virt. eigenvalues --    0.82642   0.83756   0.84378   0.85202   0.87794
 Alpha virt. eigenvalues --    0.88833   0.90423   0.91386   0.96480   0.99731
 Alpha virt. eigenvalues --    1.01340   1.03776   1.05345   1.07472   1.11611
 Alpha virt. eigenvalues --    1.12307   1.12770   1.15081   1.15543   1.19662
 Alpha virt. eigenvalues --    1.20590   1.23309   1.25536   1.31062   1.31179
 Alpha virt. eigenvalues --    1.33137   1.34592   1.36179   1.39316   1.42041
 Alpha virt. eigenvalues --    1.42128   1.42880   1.44907   1.45297   1.46529
 Alpha virt. eigenvalues --    1.48841   1.52530   1.52957   1.57054   1.59185
 Alpha virt. eigenvalues --    1.61207   1.62443   1.67763   1.72876   1.76830
 Alpha virt. eigenvalues --    1.77766   1.79768   1.80901   1.80974   1.82864
 Alpha virt. eigenvalues --    1.83314   1.85084   1.85951   1.86328   1.87469
 Alpha virt. eigenvalues --    1.88192   1.89419   1.89990   1.90474   1.90616
 Alpha virt. eigenvalues --    1.91707   1.92652   1.93073   1.94068   1.94950
 Alpha virt. eigenvalues --    1.95628   1.95936   1.97500   2.00165   2.00325
 Alpha virt. eigenvalues --    2.02224   2.03807   2.05311   2.06342   2.07025
 Alpha virt. eigenvalues --    2.07501   2.08964   2.11143   2.14073   2.16057
 Alpha virt. eigenvalues --    2.17804   2.21246   2.22136   2.22997   2.23506
 Alpha virt. eigenvalues --    2.25344   2.28773   2.30121   2.31099   2.35368
 Alpha virt. eigenvalues --    2.36568   2.38597   2.39685   2.40622   2.41308
 Alpha virt. eigenvalues --    2.42303   2.45957   2.47736   2.50741   2.51776
 Alpha virt. eigenvalues --    2.53054   2.56301   2.59314   2.61086   2.65627
 Alpha virt. eigenvalues --    2.67148   2.69943   2.70899   2.71888   2.73477
 Alpha virt. eigenvalues --    2.76800   2.77609   2.80218   2.81558   2.85329
 Alpha virt. eigenvalues --    2.87039   2.90068   2.92239   2.93392   2.94546
 Alpha virt. eigenvalues --    2.97141   2.98429   2.99454   3.03505   3.05417
 Alpha virt. eigenvalues --    3.08758   3.09806   3.10792   3.12792   3.14567
 Alpha virt. eigenvalues --    3.14977   3.15816   3.19224   3.25050   3.29870
 Alpha virt. eigenvalues --    3.37229   3.53257   3.61811   3.76583
          Condensed to atoms (all electrons):
               1          2          3          4          5          6
     1  N    6.125884   0.467472  -0.085524   0.005337  -0.000036   0.005761
     2  C    0.467472   4.840013   0.379841   0.016405  -0.045983   0.025158
     3  C   -0.085524   0.379841   5.176513   0.451821  -0.041728  -0.057165
     4  C    0.005337   0.016405   0.451821   4.659019   0.532075  -0.034453
     5  N   -0.000036  -0.045983  -0.041728   0.532075   6.385444   0.534020
     6  C    0.005761   0.025158  -0.057165  -0.034453   0.534020   4.732595
     7  N   -0.000012   0.005850   0.000100   0.003259  -0.099014   0.357718
     8  C    0.000001   0.000024  -0.000090   0.000084  -0.024708  -0.037405
     9  C   -0.000000   0.000015  -0.000001  -0.000004   0.000351   0.003553
    10  C    0.000000  -0.000003  -0.000000  -0.000001  -0.000118  -0.001819
    11  C   -0.000000  -0.000083   0.000003   0.000004  -0.000071   0.009115
    12  C   -0.000032  -0.000006   0.000066  -0.000227   0.003184  -0.055489
    13  C   -0.101257   0.328836  -0.045450  -0.071017  -0.051382   0.411433
    14  H    0.367107  -0.005537  -0.023117   0.000373   0.000010  -0.000443
    15  H    0.368046  -0.002811   0.010927  -0.000444   0.000028   0.000614
    16  H   -0.010072  -0.061081   0.415418  -0.035843   0.005397   0.000734
    17  H   -0.000134   0.006817  -0.069037   0.419896  -0.041643   0.005396
    18  H    0.000001   0.000065   0.000445   0.000949   0.044496  -0.013921
    19  H   -0.000000   0.000024  -0.000007   0.000002   0.001095   0.004661
    20  H    0.000000  -0.000001   0.000000   0.000000  -0.000047  -0.000175
    21  H    0.000000   0.000006   0.000000   0.000008   0.000438   0.001518
    22  H   -0.000000  -0.000002   0.000000   0.000000  -0.000001  -0.000416
    23  H    0.000000   0.000000  -0.000000   0.000000   0.000001   0.000063
    24  H    0.000000   0.000001  -0.000000  -0.000000   0.000004  -0.000032
    25  H   -0.000000   0.000003  -0.000000  -0.000000  -0.000008  -0.000684
    26  H    0.000001   0.001665  -0.000093  -0.000008   0.000044  -0.015570
    27  H   -0.000002   0.000744  -0.000044   0.000016  -0.000108  -0.009846
    28  H   -0.009842  -0.063072   0.013090  -0.000229   0.005586  -0.032101
               7          8          9         10         11         12
     1  N   -0.000012   0.000001  -0.000000   0.000000  -0.000000  -0.000032
     2  C    0.005850   0.000024   0.000015  -0.000003  -0.000083  -0.000006
     3  C    0.000100  -0.000090  -0.000001  -0.000000   0.000003   0.000066
     4  C    0.003259   0.000084  -0.000004  -0.000001   0.000004  -0.000227
     5  N   -0.099014  -0.024708   0.000351  -0.000118  -0.000071   0.003184
     6  C    0.357718  -0.037405   0.003553  -0.001819   0.009115  -0.055489
     7  N    6.798498   0.327340  -0.051550   0.002130  -0.062511   0.347762
     8  C    0.327340   4.510412   0.433290  -0.065008   0.008502  -0.046283
     9  C   -0.051550   0.433290   4.729411   0.369782  -0.042049  -0.039364
    10  C    0.002130  -0.065008   0.369782   4.710690   0.415461  -0.046641
    11  C   -0.062511   0.008502  -0.042049   0.415461   4.668684   0.395169
    12  C    0.347762  -0.046283  -0.039364  -0.046641   0.395169   4.564860
    13  C   -0.115061   0.005202  -0.000458  -0.000004   0.000669   0.006516
    14  H    0.000004  -0.000000   0.000000  -0.000000   0.000000   0.000001
    15  H   -0.000000  -0.000000   0.000000   0.000000  -0.000000  -0.000024
    16  H    0.000033   0.000002  -0.000000   0.000000   0.000000   0.000001
    17  H   -0.000068   0.000133  -0.000001   0.000000  -0.000000   0.000011
    18  H   -0.021964   0.375642  -0.012035   0.006335  -0.000374   0.005822
    19  H   -0.036002   0.376357  -0.026373  -0.014457   0.005854  -0.006825
    20  H    0.005067  -0.014033   0.355881  -0.009064  -0.004739   0.000699
    21  H   -0.001083  -0.007156   0.359361  -0.018238   0.003299   0.000802
    22  H   -0.000711  -0.003295  -0.011519   0.369842  -0.026029  -0.003299
    23  H    0.000206   0.004672  -0.013520   0.364155  -0.009450   0.007055
    24  H    0.004617  -0.000193   0.008608  -0.014382   0.373423  -0.013258
    25  H   -0.006121   0.010532  -0.015560  -0.017463   0.363771  -0.012830
    26  H   -0.032317   0.006614  -0.000151  -0.011166  -0.013880   0.380583
    27  H   -0.029946  -0.002093  -0.000300   0.008948  -0.030072   0.385586
    28  H   -0.011879  -0.000121  -0.000044   0.000022   0.001135   0.008603
              13         14         15         16         17         18
     1  N   -0.101257   0.367107   0.368046  -0.010072  -0.000134   0.000001
     2  C    0.328836  -0.005537  -0.002811  -0.061081   0.006817   0.000065
     3  C   -0.045450  -0.023117   0.010927   0.415418  -0.069037   0.000445
     4  C   -0.071017   0.000373  -0.000444  -0.035843   0.419896   0.000949
     5  N   -0.051382   0.000010   0.000028   0.005397  -0.041643   0.044496
     6  C    0.411433  -0.000443   0.000614   0.000734   0.005396  -0.013921
     7  N   -0.115061   0.000004  -0.000000   0.000033  -0.000068  -0.021964
     8  C    0.005202  -0.000000  -0.000000   0.000002   0.000133   0.375642
     9  C   -0.000458   0.000000   0.000000  -0.000000  -0.000001  -0.012035
    10  C   -0.000004  -0.000000   0.000000   0.000000   0.000000   0.006335
    11  C    0.000669   0.000000  -0.000000   0.000000  -0.000000  -0.000374
    12  C    0.006516   0.000001  -0.000024   0.000001   0.000011   0.005822
    13  C    5.350375   0.012027  -0.027031   0.013082   0.001171   0.003055
    14  H    0.012027   0.546280  -0.031611   0.005100  -0.000010  -0.000000
    15  H   -0.027031  -0.031611   0.548194  -0.000222   0.000013  -0.000000
    16  H    0.013082   0.005100  -0.000222   0.683388  -0.007088  -0.000013
    17  H    0.001171  -0.000010   0.000013  -0.007088   0.665549  -0.000698
    18  H    0.003055  -0.000000  -0.000000  -0.000013  -0.000698   0.585773
    19  H    0.000022  -0.000000  -0.000000  -0.000000  -0.000006  -0.023659
    20  H    0.000023  -0.000000   0.000000   0.000000   0.000000   0.000812
    21  H   -0.000113  -0.000000  -0.000000  -0.000000  -0.000005  -0.011108
    22  H    0.000055  -0.000000  -0.000000   0.000000  -0.000000  -0.000012
    23  H   -0.000003  -0.000000   0.000000  -0.000000  -0.000000  -0.000247
    24  H   -0.000031  -0.000000   0.000000  -0.000000   0.000000   0.000003
    25  H    0.000064  -0.000000  -0.000000   0.000000  -0.000000   0.000165
    26  H    0.008208   0.000002  -0.000019  -0.000000  -0.000001  -0.000178
    27  H    0.006670  -0.000001  -0.000001   0.000000  -0.000000  -0.000271
    28  H    0.411686  -0.000363   0.006276  -0.000169   0.000064  -0.000146
              19         20         21         22         23         24
     1  N   -0.000000   0.000000   0.000000  -0.000000   0.000000   0.000000
     2  C    0.000024  -0.000001   0.000006  -0.000002   0.000000   0.000001
     3  C   -0.000007   0.000000   0.000000   0.000000  -0.000000  -0.000000
     4  C    0.000002   0.000000   0.000008   0.000000   0.000000  -0.000000
     5  N    0.001095  -0.000047   0.000438  -0.000001   0.000001   0.000004
     6  C    0.004661  -0.000175   0.001518  -0.000416   0.000063  -0.000032
     7  N   -0.036002   0.005067  -0.001083  -0.000711   0.000206   0.004617
     8  C    0.376357  -0.014033  -0.007156  -0.003295   0.004672  -0.000193
     9  C   -0.026373   0.355881   0.359361  -0.011519  -0.013520   0.008608
    10  C   -0.014457  -0.009064  -0.018238   0.369842   0.364155  -0.014382
    11  C    0.005854  -0.004739   0.003299  -0.026029  -0.009450   0.373423
    12  C   -0.006825   0.000699   0.000802  -0.003299   0.007055  -0.013258
    13  C    0.000022   0.000023  -0.000113   0.000055  -0.000003  -0.000031
    14  H   -0.000000  -0.000000  -0.000000  -0.000000  -0.000000  -0.000000
    15  H   -0.000000   0.000000  -0.000000  -0.000000   0.000000   0.000000
    16  H   -0.000000   0.000000  -0.000000   0.000000  -0.000000  -0.000000
    17  H   -0.000006   0.000000  -0.000005  -0.000000  -0.000000   0.000000
    18  H   -0.023659   0.000812  -0.011108  -0.000012  -0.000247   0.000003
    19  H    0.709451  -0.008336   0.007988  -0.000406   0.000642   0.000136
    20  H   -0.008336   0.680985  -0.024384   0.006485  -0.017797  -0.000261
    21  H    0.007988  -0.024384   0.668119  -0.017487   0.003978  -0.000263
    22  H   -0.000406   0.006485  -0.017487   0.680479  -0.028181  -0.007418
    23  H    0.000642  -0.017797   0.003978  -0.028181   0.669504  -0.004508
    24  H    0.000136  -0.000261  -0.000263  -0.007418  -0.004508   0.654388
    25  H   -0.006275   0.002685  -0.000198   0.008502  -0.008308  -0.026014
    26  H   -0.001055  -0.000098  -0.000154   0.005243  -0.000025  -0.010270
    27  H    0.004269   0.000142   0.000059   0.000035  -0.000303  -0.000088
    28  H   -0.000022   0.000001  -0.000003  -0.000015  -0.000000  -0.000015
              25         26         27         28
     1  N   -0.000000   0.000001  -0.000002  -0.009842
     2  C    0.000003   0.001665   0.000744  -0.063072
     3  C   -0.000000  -0.000093  -0.000044   0.013090
     4  C   -0.000000  -0.000008   0.000016  -0.000229
     5  N   -0.000008   0.000044  -0.000108   0.005586
     6  C   -0.000684  -0.015570  -0.009846  -0.032101
     7  N   -0.006121  -0.032317  -0.029946  -0.011879
     8  C    0.010532   0.006614  -0.002093  -0.000121
     9  C   -0.015560  -0.000151  -0.000300  -0.000044
    10  C   -0.017463  -0.011166   0.008948   0.000022
    11  C    0.363771  -0.013880  -0.030072   0.001135
    12  C   -0.012830   0.380583   0.385586   0.008603
    13  C    0.000064   0.008208   0.006670   0.411686
    14  H   -0.000000   0.000002  -0.000001  -0.000363
    15  H   -0.000000  -0.000019  -0.000001   0.006276
    16  H    0.000000  -0.000000   0.000000  -0.000169
    17  H   -0.000000  -0.000001  -0.000000   0.000064
    18  H    0.000165  -0.000178  -0.000271  -0.000146
    19  H   -0.006275  -0.001055   0.004269  -0.000022
    20  H    0.002685  -0.000098   0.000142   0.000001
    21  H   -0.000198  -0.000154   0.000059  -0.000003
    22  H    0.008502   0.005243   0.000035  -0.000015
    23  H   -0.008308  -0.000025  -0.000303  -0.000000
    24  H   -0.026014  -0.010270  -0.000088  -0.000015
    25  H    0.681537   0.007867  -0.011657  -0.000020
    26  H    0.007867   0.700580  -0.050750  -0.003036
    27  H   -0.011657  -0.050750   0.701716  -0.000240
    28  H   -0.000020  -0.003036  -0.000240   0.695257
 Mulliken charges:
               1
     1  N   -0.132698
     2  C    0.105640
     3  C   -0.125969
     4  C    0.052978
     5  N   -0.207331
     6  C    0.167178
     7  N   -0.384343
     8  C    0.141577
     9  C   -0.047322
    10  C   -0.048999
    11  C   -0.055834
    12  C    0.117557
    13  C   -0.147287
    14  H    0.130179
    15  H    0.128066
    16  H   -0.008668
    17  H    0.019640
    18  H    0.061061
    19  H    0.012920
    20  H    0.026154
    21  H    0.034614
    22  H    0.028150
    23  H    0.032067
    24  H    0.035555
    25  H    0.030013
    26  H    0.027965
    27  H    0.027537
    28  H   -0.020402
 Sum of Mulliken charges =  -0.00000
 Mulliken charges with hydrogens summed into heavy atoms:
               1
     1  N    0.125547
     2  C    0.105640
     3  C   -0.134637
     4  C    0.072619
     5  N   -0.207331
     6  C    0.167178
     7  N   -0.384343
     8  C    0.215558
     9  C    0.013446
    10  C    0.011218
    11  C    0.009734
    12  C    0.173060
    13  C   -0.167689
 Electronic spatial extent (au):  <R**2>=           2879.7516
 Charge=             -0.0000 electrons
 Dipole moment (field-independent basis, Debye):
    X=             -0.5667    Y=             -2.8308    Z=             -0.5564  Tot=              2.9401
 Quadrupole moment (field-independent basis, Debye-Ang):
   XX=            -62.4496   YY=            -73.9255   ZZ=            -82.0000
   XY=              4.3022   XZ=              1.0337   YZ=              1.5111
 Traceless Quadrupole moment (field-independent basis, Debye-Ang):
   XX=             10.3421   YY=             -1.1338   ZZ=             -9.2083
   XY=              4.3022   XZ=              1.0337   YZ=              1.5111
 Octapole moment (field-independent basis, Debye-Ang**2):
  XXX=            -65.9822  YYY=            -19.5152  ZZZ=             -1.3436  XYY=            -17.4164
  XXY=            -18.6033  XXZ=             -8.0171  XZZ=              9.1615  YZZ=             -0.2298
  YYZ=             -1.7907  XYZ=             -5.8440
 Hexadecapole moment (field-independent basis, Debye-Ang**3):
 XXXX=          -2550.6677 YYYY=           -710.2615 ZZZZ=           -185.7156 XXXY=            103.4572
 XXXZ=              8.7605 YYYX=             42.9061 YYYZ=              4.8760 ZZZX=              1.4171
 ZZZY=              1.4554 XXYY=           -544.5544 XXZZ=           -555.4155 YYZZ=           -165.9420
 XXYZ=             15.3587 YYXZ=              7.1686 ZZXY=              2.0242
 N-N= 7.969473673312D+02 E-N=-2.877554666276D+03  KE= 5.475703790767D+02
   1 Symmetry operations used in ECPInt.
 ECPInt:  NShTT=    7626 NPrTT=   27010 LenC2=    7274 LenP2D=   19332.
 LDataN:  DoStor=T MaxTD1= 5 Len=  102
 Calling FoFJK, ICntrl=      2127 FMM=F ISym2X=0 I1Cent= 0 IOpClX= 0 NMat=1 NMatS=1 NMatT=0.
 ***** Axes restored to original set *****
 -------------------------------------------------------------------
 Center     Atomic                   Forces (Hartrees/Bohr)
 Number     Number              X              Y              Z
 -------------------------------------------------------------------
      1        7          -0.000002620   -0.000003366   -0.000014414
      2        6           0.000000306    0.000000177    0.000005317
      3        6           0.000002663   -0.000001218    0.000001298
      4        6          -0.000004563    0.000007358    0.000000277
      5        7           0.000001771    0.000002662   -0.000002684
      6        6           0.000018924   -0.000005249    0.000006325
      7        7          -0.000022782    0.000013798   -0.000004630
      8        6           0.000001225    0.000005947   -0.000000337
      9        6           0.000010701    0.000007744   -0.000005655
     10        6          -0.000002729   -0.000008201    0.000011980
     11        6           0.000003172   -0.000004038   -0.000002789
     12        6           0.000003315   -0.000018797   -0.000003751
     13        6          -0.000002174   -0.000005833   -0.000002832
     14        1          -0.000001799    0.000003717    0.000002323
     15        1           0.000002731    0.000005281    0.000007008
     16        1          -0.000004349   -0.000000758   -0.000000043
     17        1           0.000002354   -0.000003446    0.000001389
     18        1           0.000005262   -0.000002717   -0.000001212
     19        1           0.000000234   -0.000002507    0.000003658
     20        1          -0.000004137   -0.000002880    0.000005628
     21        1          -0.000005909   -0.000000769    0.000001154
     22        1           0.000003068    0.000001481   -0.000005383
     23        1           0.000000366   -0.000002751   -0.000005131
     24        1          -0.000001414    0.000001108    0.000002112
     25        1           0.000001180    0.000002230   -0.000000291
     26        1          -0.000008483    0.000003690   -0.000001540
     27        1          -0.000000228    0.000004713    0.000001633
     28        1           0.000003913    0.000002624    0.000000588
 -------------------------------------------------------------------
 Cartesian Forces:  Max     0.000022782 RMS     0.000005931

 GradGradGradGradGradGradGradGradGradGradGradGradGradGradGradGradGradGrad
 Berny optimization.
 FormGI is forming the generalized inverse of G from B-inverse, IUseBI=4.
 Internal  Forces:  Max     0.000019388 RMS     0.000003886
 Search for a local minimum.
 Step number   1 out of a maximum of  167
 All quantities printed in internal units (Hartrees-Bohrs-Radians)
 Mixed Optimization -- En-DIIS/RFO-DIIS
 Second derivative matrix not updated -- first step.
 ITU=  0
     Eigenvalues ---    0.00365   0.00678   0.01089   0.01242   0.01999
     Eigenvalues ---    0.02031   0.02038   0.02041   0.02042   0.02087
     Eigenvalues ---    0.02134   0.02157   0.02383   0.02408   0.02473
     Eigenvalues ---    0.02787   0.03389   0.03806   0.04207   0.04501
     Eigenvalues ---    0.04804   0.05015   0.05476   0.05780   0.06189
     Eigenvalues ---    0.06804   0.07997   0.08089   0.08140   0.09070
     Eigenvalues ---    0.09266   0.09398   0.10214   0.12063   0.12498
     Eigenvalues ---    0.16000   0.16000   0.16000   0.16000   0.16000
     Eigenvalues ---    0.18543   0.20291   0.22317   0.22458   0.23487
     Eigenvalues ---    0.24551   0.24886   0.24990   0.25000   0.26850
     Eigenvalues ---    0.27486   0.28629   0.29336   0.32770   0.33037
     Eigenvalues ---    0.33042   0.33396   0.33437   0.33507   0.33643
     Eigenvalues ---    0.33646   0.33647   0.34066   0.34268   0.34652
     Eigenvalues ---    0.34871   0.35812   0.37236   0.41185   0.42898
     Eigenvalues ---    0.44834   0.45931   0.45956   0.47112   0.50255
     Eigenvalues ---    0.50288   0.55145   0.58460
 RFO step:  Lambda=-2.15301462D-08 EMin= 3.65133037D-03
 Linear search not attempted -- first point.
 Iteration  1 RMS(Cart)=  0.00021525 RMS(Int)=  0.00000001
 Iteration  2 RMS(Cart)=  0.00000003 RMS(Int)=  0.00000000
 Variable       Old X    -DE/DX   Delta X   Delta X   Delta X     New X
                                 (Linear)    (Quad)   (Total)
    R1        2.59609  -0.00000   0.00000  -0.00000  -0.00000   2.59609
    R2        1.90881   0.00000   0.00000   0.00000   0.00000   1.90881
    R3        1.90910  -0.00001   0.00000  -0.00001  -0.00001   1.90908
    R4        2.66190  -0.00000   0.00000  -0.00000  -0.00000   2.66190
    R5        2.64340  -0.00000   0.00000  -0.00000  -0.00000   2.64339
    R6        2.61896   0.00000   0.00000   0.00001   0.00001   2.61897
    R7        2.06243   0.00000   0.00000   0.00001   0.00001   2.06244
    R8        2.50942   0.00001   0.00000   0.00001   0.00001   2.50943
    R9        2.07219  -0.00000   0.00000  -0.00001  -0.00001   2.07218
   R10        2.53579   0.00000   0.00000   0.00001   0.00001   2.53580
   R11        2.59576  -0.00002   0.00000  -0.00003  -0.00003   2.59573
   R12        2.66768   0.00000   0.00000   0.00000   0.00000   2.66768
   R13        2.74389   0.00000   0.00000   0.00001   0.00001   2.74390
   R14        2.74026   0.00001   0.00000   0.00002   0.00002   2.74028
   R15        2.89400   0.00000   0.00000   0.00000   0.00000   2.89400
   R16        2.06879  -0.00000   0.00000  -0.00001  -0.00001   2.06878
   R17        2.08977  -0.00000   0.00000  -0.00001  -0.00001   2.08977
   R18        2.91905   0.00001   0.00000   0.00003   0.00003   2.91908
   R19        2.08170  -0.00001   0.00000  -0.00002  -0.00002   2.08168
   R20        2.07937   0.00000   0.00000   0.00001   0.00001   2.07938
   R21        2.88635   0.00000   0.00000   0.00001   0.00001   2.88635
   R22        2.08361  -0.00001   0.00000  -0.00002  -0.00002   2.08359
   R23        2.07930   0.00000   0.00000   0.00000   0.00000   2.07930
   R24        2.88797   0.00000   0.00000   0.00001   0.00001   2.88798
   R25        2.07932  -0.00000   0.00000  -0.00000  -0.00000   2.07932
   R26        2.08290   0.00000   0.00000   0.00000   0.00000   2.08291
   R27        2.08986  -0.00000   0.00000  -0.00000  -0.00000   2.08986
   R28        2.09457  -0.00000   0.00000  -0.00001  -0.00001   2.09455
   R29        2.05884  -0.00000   0.00000  -0.00000  -0.00000   2.05884
    A1        2.05290   0.00000   0.00000   0.00003   0.00003   2.05293
    A2        2.05712  -0.00000   0.00000   0.00002   0.00002   2.05714
    A3        2.00459   0.00000   0.00000   0.00006   0.00006   2.00465
    A4        2.11016  -0.00000   0.00000  -0.00001  -0.00001   2.11015
    A5        2.11168   0.00000   0.00000   0.00001   0.00001   2.11169
    A6        2.06104   0.00000   0.00000   0.00000   0.00000   2.06104
    A7        2.05380   0.00000   0.00000   0.00000   0.00000   2.05381
    A8        2.11755  -0.00000   0.00000  -0.00002  -0.00002   2.11753
    A9        2.11183   0.00000   0.00000   0.00002   0.00002   2.11185
   A10        2.18169  -0.00000   0.00000  -0.00000  -0.00000   2.18169
   A11        2.08066   0.00000   0.00000   0.00000   0.00000   2.08067
   A12        2.02083  -0.00000   0.00000  -0.00000  -0.00000   2.02083
   A13        2.06016  -0.00000   0.00000  -0.00001  -0.00001   2.06015
   A14        2.04573   0.00001   0.00000   0.00006   0.00006   2.04578
   A15        2.12643   0.00000   0.00000   0.00001   0.00001   2.12644
   A16        2.11103  -0.00002   0.00000  -0.00006  -0.00006   2.11096
   A17        2.12279   0.00002   0.00000   0.00009   0.00009   2.12288
   A18        2.10851  -0.00002   0.00000  -0.00007  -0.00007   2.10845
   A19        2.04907  -0.00000   0.00000  -0.00001  -0.00001   2.04906
   A20        1.94096  -0.00000   0.00000  -0.00004  -0.00004   1.94092
   A21        1.87343   0.00000   0.00000   0.00003   0.00003   1.87346
   A22        1.91209  -0.00000   0.00000  -0.00000  -0.00000   1.91209
   A23        1.94312  -0.00000   0.00000  -0.00000  -0.00000   1.94312
   A24        1.92249   0.00000   0.00000   0.00001   0.00001   1.92249
   A25        1.86971   0.00000   0.00000   0.00001   0.00001   1.86972
   A26        1.94824   0.00000   0.00000  -0.00000  -0.00000   1.94824
   A27        1.89271   0.00000   0.00000   0.00003   0.00003   1.89275
   A28        1.90740  -0.00000   0.00000  -0.00006  -0.00006   1.90734
   A29        1.93438  -0.00000   0.00000   0.00002   0.00002   1.93440
   A30        1.91806   0.00000   0.00000  -0.00000  -0.00000   1.91806
   A31        1.86071   0.00000   0.00000   0.00001   0.00001   1.86072
   A32        1.93914   0.00000   0.00000   0.00002   0.00002   1.93915
   A33        1.91733  -0.00000   0.00000   0.00001   0.00001   1.91734
   A34        1.93645   0.00000   0.00000  -0.00000  -0.00000   1.93644
   A35        1.88840   0.00000   0.00000   0.00002   0.00002   1.88842
   A36        1.92632  -0.00000   0.00000  -0.00005  -0.00005   1.92627
   A37        1.85367   0.00000   0.00000   0.00002   0.00002   1.85369
   A38        1.92565  -0.00000   0.00000   0.00002   0.00002   1.92567
   A39        1.93799  -0.00000   0.00000  -0.00002  -0.00002   1.93797
   A40        1.92195  -0.00000   0.00000  -0.00002  -0.00002   1.92193
   A41        1.89597   0.00000   0.00000   0.00000   0.00000   1.89597
   A42        1.92640   0.00000   0.00000  -0.00000  -0.00000   1.92640
   A43        1.85462   0.00000   0.00000   0.00002   0.00002   1.85464
   A44        1.93753   0.00000   0.00000   0.00000   0.00000   1.93753
   A45        1.90540  -0.00001   0.00000  -0.00006  -0.00006   1.90535
   A46        1.94231  -0.00000   0.00000  -0.00003  -0.00003   1.94229
   A47        1.89139   0.00001   0.00000   0.00006   0.00006   1.89145
   A48        1.92499   0.00000   0.00000   0.00002   0.00002   1.92501
   A49        1.85978  -0.00000   0.00000   0.00000   0.00000   1.85979
   A50        2.08310   0.00000   0.00000   0.00000   0.00000   2.08310
   A51        2.08035   0.00000   0.00000   0.00003   0.00003   2.08038
   A52        2.11973  -0.00001   0.00000  -0.00003  -0.00003   2.11970
    D1        0.33181  -0.00000   0.00000  -0.00003  -0.00003   0.33177
    D2       -2.83706  -0.00000   0.00000  -0.00002  -0.00002  -2.83708
    D3        2.85231   0.00001   0.00000   0.00018   0.00018   2.85249
    D4       -0.31656   0.00001   0.00000   0.00020   0.00020  -0.31636
    D5        3.11873  -0.00000   0.00000  -0.00001  -0.00001   3.11872
    D6       -0.02497  -0.00000   0.00000  -0.00001  -0.00001  -0.02498
    D7        0.00364  -0.00000   0.00000  -0.00003  -0.00003   0.00361
    D8       -3.14006  -0.00000   0.00000  -0.00002  -0.00002  -3.14008
    D9       -3.10587   0.00000   0.00000   0.00002   0.00002  -3.10585
   D10        0.03938  -0.00000   0.00000  -0.00005  -0.00005   0.03933
   D11        0.00919   0.00000   0.00000   0.00003   0.00003   0.00923
   D12       -3.12874  -0.00000   0.00000  -0.00003  -0.00003  -3.12877
   D13       -0.00820   0.00000   0.00000   0.00001   0.00001  -0.00820
   D14        3.13277   0.00000   0.00000   0.00003   0.00003   3.13280
   D15        3.13549   0.00000   0.00000   0.00000   0.00000   3.13550
   D16       -0.00672   0.00000   0.00000   0.00003   0.00003  -0.00670
   D17       -0.00119   0.00000   0.00000   0.00001   0.00001  -0.00118
   D18        3.14101  -0.00000   0.00000  -0.00001  -0.00001   3.14099
   D19       -3.12651   0.00000   0.00000   0.00002   0.00002  -3.12649
   D20        0.01507   0.00000   0.00000   0.00000   0.00000   0.01507
   D21       -0.10405   0.00000   0.00000   0.00022   0.00022  -0.10382
   D22        3.12011   0.00000   0.00000   0.00006   0.00006   3.12017
   D23        3.03756   0.00000   0.00000   0.00025   0.00025   3.03780
   D24       -0.02147   0.00000   0.00000   0.00008   0.00008  -0.02139
   D25       -0.01927  -0.00000   0.00000  -0.00002  -0.00002  -0.01929
   D26        3.11858   0.00000   0.00000   0.00005   0.00005   3.11862
   D27        3.12232  -0.00000   0.00000  -0.00004  -0.00004   3.12227
   D28       -0.02302   0.00000   0.00000   0.00002   0.00002  -0.02300
   D29        2.20734  -0.00000   0.00000  -0.00023  -0.00023   2.20711
   D30        0.07801  -0.00000   0.00000  -0.00023  -0.00023   0.07778
   D31       -1.94649  -0.00000   0.00000  -0.00025  -0.00025  -1.94674
   D32       -1.01412  -0.00000   0.00000  -0.00008  -0.00008  -1.01420
   D33        3.13973  -0.00000   0.00000  -0.00007  -0.00007   3.13966
   D34        1.11524  -0.00000   0.00000  -0.00010  -0.00010   1.11514
   D35       -2.99842   0.00000   0.00000   0.00019   0.00019  -2.99823
   D36       -0.91445   0.00001   0.00000   0.00024   0.00024  -0.91421
   D37        1.13352   0.00000   0.00000   0.00019   0.00019   1.13371
   D38        0.22235   0.00000   0.00000   0.00003   0.00003   0.22239
   D39        2.30632   0.00000   0.00000   0.00008   0.00008   2.30640
   D40       -1.92890  -0.00000   0.00000   0.00003   0.00003  -1.92886
   D41        0.70691  -0.00000   0.00000   0.00013   0.00013   0.70704
   D42        2.84280   0.00000   0.00000   0.00018   0.00018   2.84298
   D43       -1.41847  -0.00000   0.00000   0.00018   0.00018  -1.41830
   D44        2.79525   0.00000   0.00000   0.00014   0.00014   2.79539
   D45       -1.35204   0.00000   0.00000   0.00019   0.00019  -1.35185
   D46        0.66987   0.00000   0.00000   0.00019   0.00019   0.67006
   D47       -1.41641   0.00000   0.00000   0.00016   0.00016  -1.41625
   D48        0.71949   0.00000   0.00000   0.00020   0.00020   0.71969
   D49        2.74140   0.00000   0.00000   0.00020   0.00020   2.74160
   D50        0.27120   0.00000   0.00000  -0.00014  -0.00014   0.27106
   D51       -1.81775   0.00000   0.00000  -0.00018  -0.00018  -1.81792
   D52        2.42112  -0.00000   0.00000  -0.00020  -0.00020   2.42092
   D53       -1.84060  -0.00000   0.00000  -0.00020  -0.00020  -1.84080
   D54        2.35364  -0.00000   0.00000  -0.00023  -0.00023   2.35340
   D55        0.30932  -0.00000   0.00000  -0.00025  -0.00025   0.30907
   D56        2.39041  -0.00000   0.00000  -0.00022  -0.00022   2.39019
   D57        0.30146  -0.00000   0.00000  -0.00025  -0.00025   0.30121
   D58       -1.74285  -0.00000   0.00000  -0.00027  -0.00027  -1.74313
   D59       -1.04705  -0.00000   0.00000   0.00010   0.00010  -1.04695
   D60        3.13300   0.00000   0.00000   0.00009   0.00009   3.13309
   D61        1.08372   0.00000   0.00000   0.00009   0.00009   1.08381
   D62        1.05905  -0.00000   0.00000   0.00012   0.00012   1.05918
   D63       -1.04409   0.00000   0.00000   0.00012   0.00012  -1.04397
   D64       -3.09336   0.00000   0.00000   0.00012   0.00012  -3.09324
   D65        3.08041  -0.00000   0.00000   0.00013   0.00013   3.08054
   D66        0.97728   0.00000   0.00000   0.00012   0.00012   0.97740
   D67       -1.07200   0.00000   0.00000   0.00012   0.00012  -1.07188
   D68        0.80051  -0.00000   0.00000  -0.00003  -0.00003   0.80048
   D69       -1.29183   0.00000   0.00000  -0.00000  -0.00000  -1.29184
   D70        2.96168  -0.00000   0.00000  -0.00005  -0.00005   2.96162
   D71        2.92866  -0.00000   0.00000  -0.00004  -0.00004   2.92862
   D72        0.83632   0.00000   0.00000  -0.00001  -0.00001   0.83631
   D73       -1.19336  -0.00000   0.00000  -0.00006  -0.00006  -1.19342
   D74       -1.32763   0.00000   0.00000  -0.00001  -0.00001  -1.32765
   D75        2.86321   0.00000   0.00000   0.00001   0.00001   2.86322
   D76        0.83353  -0.00000   0.00000  -0.00004  -0.00004   0.83350
         Item               Value     Threshold  Converged?
 Maximum Force            0.000019     0.000450     YES
 RMS     Force            0.000004     0.000300     YES
 Maximum Displacement     0.000844     0.001800     YES
 RMS     Displacement     0.000215     0.001200     YES
 Predicted change in Energy=-1.076515D-08
 Optimization completed.
    -- Stationary point found.
                           ----------------------------
                           !   Optimized Parameters   !
                           ! (Angstroms and Degrees)  !
 --------------------------                            --------------------------
 ! Name  Definition              Value          Derivative Info.                !
 --------------------------------------------------------------------------------
 ! R1    R(1,2)                  1.3738         -DE/DX =    0.0                 !
 ! R2    R(1,14)                 1.0101         -DE/DX =    0.0                 !
 ! R3    R(1,15)                 1.0103         -DE/DX =    0.0                 !
 ! R4    R(2,3)                  1.4086         -DE/DX =    0.0                 !
 ! R5    R(2,13)                 1.3988         -DE/DX =    0.0                 !
 ! R6    R(3,4)                  1.3859         -DE/DX =    0.0                 !
 ! R7    R(3,16)                 1.0914         -DE/DX =    0.0                 !
 ! R8    R(4,5)                  1.3279         -DE/DX =    0.0                 !
 ! R9    R(4,17)                 1.0966         -DE/DX =    0.0                 !
 ! R10   R(5,6)                  1.3419         -DE/DX =    0.0                 !
 ! R11   R(6,7)                  1.3736         -DE/DX =    0.0                 !
 ! R12   R(6,13)                 1.4117         -DE/DX =    0.0                 !
 ! R13   R(7,8)                  1.452          -DE/DX =    0.0                 !
 ! R14   R(7,12)                 1.4501         -DE/DX =    0.0                 !
 ! R15   R(8,9)                  1.5314         -DE/DX =    0.0                 !
 ! R16   R(8,18)                 1.0948         -DE/DX =    0.0                 !
 ! R17   R(8,19)                 1.1059         -DE/DX =    0.0                 !
 ! R18   R(9,10)                 1.5447         -DE/DX =    0.0                 !
 ! R19   R(9,20)                 1.1016         -DE/DX =    0.0                 !
 ! R20   R(9,21)                 1.1004         -DE/DX =    0.0                 !
 ! R21   R(10,11)                1.5274         -DE/DX =    0.0                 !
 ! R22   R(10,22)                1.1026         -DE/DX =    0.0                 !
 ! R23   R(10,23)                1.1003         -DE/DX =    0.0                 !
 ! R24   R(11,12)                1.5282         -DE/DX =    0.0                 !
 ! R25   R(11,24)                1.1003         -DE/DX =    0.0                 !
 ! R26   R(11,25)                1.1022         -DE/DX =    0.0                 !
 ! R27   R(12,26)                1.1059         -DE/DX =    0.0                 !
 ! R28   R(12,27)                1.1084         -DE/DX =    0.0                 !
 ! R29   R(13,28)                1.0895         -DE/DX =    0.0                 !
 ! A1    A(2,1,14)             117.6225         -DE/DX =    0.0                 !
 ! A2    A(2,1,15)             117.864          -DE/DX =    0.0                 !
 ! A3    A(14,1,15)            114.8545         -DE/DX =    0.0                 !
 ! A4    A(1,2,3)              120.903          -DE/DX =    0.0                 !
 ! A5    A(1,2,13)             120.9904         -DE/DX =    0.0                 !
 ! A6    A(3,2,13)             118.0888         -DE/DX =    0.0                 !
 ! A7    A(2,3,4)              117.6743         -DE/DX =    0.0                 !
 ! A8    A(2,3,16)             121.3265         -DE/DX =    0.0                 !
 ! A9    A(4,3,16)             120.9991         -DE/DX =    0.0                 !
 ! A10   A(3,4,5)              125.0016         -DE/DX =    0.0                 !
 ! A11   A(3,4,17)             119.2133         -DE/DX =    0.0                 !
 ! A12   A(5,4,17)             115.7851         -DE/DX =    0.0                 !
 ! A13   A(4,5,6)              118.0385         -DE/DX =    0.0                 !
 ! A14   A(5,6,7)              117.2116         -DE/DX =    0.0                 !
 ! A15   A(5,6,13)             121.8355         -DE/DX =    0.0                 !
 ! A16   A(7,6,13)             120.9529         -DE/DX =    0.0                 !
 ! A17   A(6,7,8)              121.627          -DE/DX =    0.0                 !
 ! A18   A(6,7,12)             120.8089         -DE/DX =    0.0                 !
 ! A19   A(8,7,12)             117.4031         -DE/DX =    0.0                 !
 ! A20   A(7,8,9)              111.209          -DE/DX =    0.0                 !
 ! A21   A(7,8,18)             107.3394         -DE/DX =    0.0                 !
 ! A22   A(7,8,19)             109.5549         -DE/DX =    0.0                 !
 ! A23   A(9,8,18)             111.3327         -DE/DX =    0.0                 !
 ! A24   A(9,8,19)             110.1504         -DE/DX =    0.0                 !
 ! A25   A(18,8,19)            107.1267         -DE/DX =    0.0                 !
 ! A26   A(8,9,10)             111.6258         -DE/DX =    0.0                 !
 ! A27   A(8,9,20)             108.4445         -DE/DX =    0.0                 !
 ! A28   A(8,9,21)             109.286          -DE/DX =    0.0                 !
 ! A29   A(10,9,20)            110.832          -DE/DX =    0.0                 !
 ! A30   A(10,9,21)            109.8969         -DE/DX =    0.0                 !
 ! A31   A(20,9,21)            106.6108         -DE/DX =    0.0                 !
 ! A32   A(9,10,11)            111.1043         -DE/DX =    0.0                 !
 ! A33   A(9,10,22)            109.855          -DE/DX =    0.0                 !
 ! A34   A(9,10,23)            110.9502         -DE/DX =    0.0                 !
 ! A35   A(11,10,22)           108.1976         -DE/DX =    0.0                 !
 ! A36   A(11,10,23)           110.3702         -DE/DX =    0.0                 !
 ! A37   A(22,10,23)           106.2076         -DE/DX =    0.0                 !
 ! A38   A(10,11,12)           110.3315         -DE/DX =    0.0                 !
 ! A39   A(10,11,24)           111.0385         -DE/DX =    0.0                 !
 ! A40   A(10,11,25)           110.1199         -DE/DX =    0.0                 !
 ! A41   A(12,11,24)           108.631          -DE/DX =    0.0                 !
 ! A42   A(12,11,25)           110.3747         -DE/DX =    0.0                 !
 ! A43   A(24,11,25)           106.2618         -DE/DX =    0.0                 !
 ! A44   A(7,12,11)            111.0123         -DE/DX =    0.0                 !
 ! A45   A(7,12,26)            109.1716         -DE/DX =    0.0                 !
 ! A46   A(7,12,27)            111.2863         -DE/DX =    0.0                 !
 ! A47   A(11,12,26)           108.3686         -DE/DX =    0.0                 !
 ! A48   A(11,12,27)           110.294          -DE/DX =    0.0                 !
 ! A49   A(26,12,27)           106.5578         -DE/DX =    0.0                 !
 ! A50   A(2,13,6)             119.3527         -DE/DX =    0.0                 !
 ! A51   A(2,13,28)            119.1953         -DE/DX =    0.0                 !
 ! A52   A(6,13,28)            121.4517         -DE/DX =    0.0                 !
 ! D1    D(14,1,2,3)            19.0111         -DE/DX =    0.0                 !
 ! D2    D(14,1,2,13)         -162.5517         -DE/DX =    0.0                 !
 ! D3    D(15,1,2,3)           163.4253         -DE/DX =    0.0                 !
 ! D4    D(15,1,2,13)          -18.1374         -DE/DX =    0.0                 !
 ! D5    D(1,2,3,4)            178.6901         -DE/DX =    0.0                 !
 ! D6    D(1,2,3,16)            -1.4307         -DE/DX =    0.0                 !
 ! D7    D(13,2,3,4)             0.2086         -DE/DX =    0.0                 !
 ! D8    D(13,2,3,16)         -179.9122         -DE/DX =    0.0                 !
 ! D9    D(1,2,13,6)          -177.9534         -DE/DX =    0.0                 !
 ! D10   D(1,2,13,28)            2.2563         -DE/DX =    0.0                 !
 ! D11   D(3,2,13,6)             0.5267         -DE/DX =    0.0                 !
 ! D12   D(3,2,13,28)         -179.2635         -DE/DX =    0.0                 !
 ! D13   D(2,3,4,5)             -0.4699         -DE/DX =    0.0                 !
 ! D14   D(2,3,4,17)           179.4945         -DE/DX =    0.0                 !
 ! D15   D(16,3,4,5)           179.6505         -DE/DX =    0.0                 !
 ! D16   D(16,3,4,17)           -0.3851         -DE/DX =    0.0                 !
 ! D17   D(3,4,5,6)             -0.068          -DE/DX =    0.0                 !
 ! D18   D(17,4,5,6)           179.9665         -DE/DX =    0.0                 !
 ! D19   D(4,5,6,7)           -179.1357         -DE/DX =    0.0                 !
 ! D20   D(4,5,6,13)             0.8637         -DE/DX =    0.0                 !
 ! D21   D(5,6,7,8)             -5.9614         -DE/DX =    0.0                 !
 ! D22   D(5,6,7,12)           178.7692         -DE/DX =    0.0                 !
 ! D23   D(13,6,7,8)           174.0391         -DE/DX =    0.0                 !
 ! D24   D(13,6,7,12)           -1.2303         -DE/DX =    0.0                 !
 ! D25   D(5,6,13,2)            -1.1039         -DE/DX =    0.0                 !
 ! D26   D(5,6,13,28)          178.6814         -DE/DX =    0.0                 !
 ! D27   D(7,6,13,2)           178.8955         -DE/DX =    0.0                 !
 ! D28   D(7,6,13,28)           -1.3191         -DE/DX =    0.0                 !
 ! D29   D(6,7,8,9)            126.4714         -DE/DX =    0.0                 !
 ! D30   D(6,7,8,18)             4.4694         -DE/DX =    0.0                 !
 ! D31   D(6,7,8,19)          -111.5254         -DE/DX =    0.0                 !
 ! D32   D(12,7,8,9)           -58.1048         -DE/DX =    0.0                 !
 ! D33   D(12,7,8,18)          179.8932         -DE/DX =    0.0                 !
 ! D34   D(12,7,8,19)           63.8984         -DE/DX =    0.0                 !
 ! D35   D(6,7,12,11)         -171.7969         -DE/DX =    0.0                 !
 ! D36   D(6,7,12,26)          -52.3941         -DE/DX =    0.0                 !
 ! D37   D(6,7,12,27)           64.9457         -DE/DX =    0.0                 !
 ! D38   D(8,7,12,11)           12.7398         -DE/DX =    0.0                 !
 ! D39   D(8,7,12,26)          132.1426         -DE/DX =    0.0                 !
 ! D40   D(8,7,12,27)         -110.5176         -DE/DX =    0.0                 !
 ! D41   D(7,8,9,10)            40.5028         -DE/DX =    0.0                 !
 ! D42   D(7,8,9,20)           162.8804         -DE/DX =    0.0                 !
 ! D43   D(7,8,9,21)           -81.2725         -DE/DX =    0.0                 !
 ! D44   D(18,8,9,10)          160.1561         -DE/DX =    0.0                 !
 ! D45   D(18,8,9,20)          -77.4663         -DE/DX =    0.0                 !
 ! D46   D(18,8,9,21)           38.3808         -DE/DX =    0.0                 !
 ! D47   D(19,8,9,10)          -81.1541         -DE/DX =    0.0                 !
 ! D48   D(19,8,9,20)           41.2235         -DE/DX =    0.0                 !
 ! D49   D(19,8,9,21)          157.0707         -DE/DX =    0.0                 !
 ! D50   D(8,9,10,11)           15.5386         -DE/DX =    0.0                 !
 ! D51   D(8,9,10,22)         -104.1493         -DE/DX =    0.0                 !
 ! D52   D(8,9,10,23)          138.72           -DE/DX =    0.0                 !
 ! D53   D(20,9,10,11)        -105.4588         -DE/DX =    0.0                 !
 ! D54   D(20,9,10,22)         134.8534         -DE/DX =    0.0                 !
 ! D55   D(20,9,10,23)          17.7226         -DE/DX =    0.0                 !
 ! D56   D(21,9,10,11)         136.9605         -DE/DX =    0.0                 !
 ! D57   D(21,9,10,22)          17.2726         -DE/DX =    0.0                 !
 ! D58   D(21,9,10,23)         -99.8582         -DE/DX =    0.0                 !
[...]
     1  N    6.500900   0.353937  -0.050170  -0.001429   0.000401  -0.000992
     2  C    0.353937   4.677943   0.448700   0.001133  -0.028965  -0.022024
     3  C   -0.050170   0.448700   5.114418   0.519697  -0.072360  -0.040129
     4  C   -0.001429   0.001133   0.519697   4.668110   0.577733  -0.083828
     5  N    0.000401  -0.028965  -0.072360   0.577733   6.641061   0.448186
     6  C   -0.000992  -0.022024  -0.040129  -0.083828   0.448186   4.636394
     7  N   -0.000083  -0.002636   0.002718  -0.000872  -0.095362   0.463215
     8  C    0.000013  -0.001020   0.000101  -0.003884  -0.046072  -0.063210
     9  C    0.000001   0.000113   0.000014   0.000549   0.005096   0.006405
    10  C   -0.000001  -0.000028   0.000013  -0.000179  -0.000720  -0.007428
    11  C   -0.000002  -0.000277  -0.000015   0.000027  -0.000190   0.009748
    12  C   -0.000080  -0.000227   0.000084  -0.000678   0.005835  -0.063822
    13  C   -0.069015   0.489074  -0.038959  -0.034988  -0.078308   0.436950
    14  H    0.374945  -0.031053  -0.006424   0.000630   0.000070  -0.001457
    15  H    0.377051  -0.019617   0.007070  -0.000534   0.000125   0.002365
    16  H   -0.000544  -0.076977   0.420441  -0.022365   0.007007  -0.001343
    17  H   -0.000205   0.006334  -0.080298   0.434302  -0.031443   0.007451
    18  H    0.000004  -0.000016   0.000631   0.001705   0.034558  -0.024762
    19  H   -0.000001   0.000111  -0.000046   0.000269   0.003129   0.007819
    20  H    0.000000  -0.000003   0.000002   0.000006   0.000037   0.000261
    21  H    0.000000   0.000030  -0.000019   0.000176   0.001521   0.000740
    22  H    0.000000  -0.000034   0.000005  -0.000002   0.000010  -0.000298
    23  H    0.000000   0.000001  -0.000000   0.000001   0.000001   0.000210
    24  H    0.000000   0.000009  -0.000000  -0.000001   0.000016   0.000349
    25  H   -0.000000  -0.000014   0.000002  -0.000008  -0.000030  -0.001425
    26  H   -0.000023   0.000097  -0.000164  -0.000251   0.000351  -0.016857
    27  H   -0.000053   0.001555  -0.000007   0.000069  -0.000029  -0.005131
    28  H   -0.000454  -0.025645   0.008687  -0.001967   0.004703   0.000519
               7          8          9         10         11         12
     1  N   -0.000083   0.000013   0.000001  -0.000001  -0.000002  -0.000080
     2  C   -0.002636  -0.001020   0.000113  -0.000028  -0.000277  -0.000227
     3  C    0.002718   0.000101   0.000014   0.000013  -0.000015   0.000084
     4  C   -0.000872  -0.003884   0.000549  -0.000179   0.000027  -0.000678
     5  N   -0.095362  -0.046072   0.005096  -0.000720  -0.000190   0.005835
     6  C    0.463215  -0.063210   0.006405  -0.007428   0.009748  -0.063822
     7  N    6.457659   0.267139  -0.037404  -0.008172  -0.070667   0.333475
     8  C    0.267139   5.006312   0.318976  -0.032161   0.025240  -0.038081
     9  C   -0.037404   0.318976   4.910083   0.341784  -0.060555  -0.010919
    10  C   -0.008172  -0.032161   0.341784   4.931390   0.310964  -0.009145
    11  C   -0.070667   0.025240  -0.060555   0.310964   4.874936   0.308718
    12  C    0.333475  -0.038081  -0.010919  -0.009145   0.308718   4.972533
    13  C   -0.078120   0.007432   0.000279   0.000331  -0.001118  -0.022839
    14  H    0.000014  -0.000001   0.000000   0.000000  -0.000000  -0.000007
    15  H   -0.000025   0.000000  -0.000000   0.000000  -0.000004  -0.000097
    16  H    0.000080   0.000017  -0.000002   0.000000   0.000000   0.000006
    17  H    0.000005   0.000393  -0.000031   0.000003  -0.000001   0.000020
    18  H   -0.023640   0.411829  -0.022161   0.005864  -0.000566   0.005307
    19  H   -0.049475   0.398586  -0.053134  -0.013640   0.005299  -0.009374
    20  H    0.007344  -0.041547   0.411599  -0.034988  -0.000780   0.000360
    21  H   -0.000026  -0.030532   0.411993  -0.039051   0.007307  -0.001288
    22  H    0.000116  -0.000335  -0.029394   0.403293  -0.029161  -0.003906
    23  H   -0.000256   0.005381  -0.032021   0.409947  -0.033175   0.007566
    24  H    0.006243  -0.003048   0.008997  -0.033613   0.421726  -0.036310
    25  H   -0.002811   0.008916  -0.008167  -0.033666   0.430981  -0.044934
    26  H   -0.062019   0.016762  -0.005321  -0.001387  -0.015315   0.408032
    27  H   -0.048762  -0.009891   0.000799   0.007093  -0.031849   0.397628
    28  H   -0.004546  -0.000231  -0.000143   0.000077   0.001231   0.001552
              13         14         15         16         17         18
     1  N   -0.069015   0.374945   0.377051  -0.000544  -0.000205   0.000004
     2  C    0.489074  -0.031053  -0.019617  -0.076977   0.006334  -0.000016
     3  C   -0.038959  -0.006424   0.007070   0.420441  -0.080298   0.000631
     4  C   -0.034988   0.000630  -0.000534  -0.022365   0.434302   0.001705
     5  N   -0.078308   0.000070   0.000125   0.007007  -0.031443   0.034558
     6  C    0.436950  -0.001457   0.002365  -0.001343   0.007451  -0.024762
     7  N   -0.078120   0.000014  -0.000025   0.000080   0.000005  -0.023640
     8  C    0.007432  -0.000001   0.000000   0.000017   0.000393   0.411829
     9  C    0.000279   0.000000  -0.000000  -0.000002  -0.000031  -0.022161
    10  C    0.000331   0.000000   0.000000   0.000000   0.000003   0.005864
    11  C   -0.001118  -0.000000  -0.000004   0.000000  -0.000001  -0.000566
    12  C   -0.022839  -0.000007  -0.000097   0.000006   0.000020   0.005307
    13  C    5.333291   0.008206  -0.022094   0.012370  -0.002765   0.001920
    14  H    0.008206   0.436448  -0.030790   0.003715  -0.000026  -0.000000
    15  H   -0.022094  -0.030790   0.441084  -0.000214   0.000022  -0.000001
    16  H    0.012370   0.003715  -0.000214   0.557940  -0.002993  -0.000024
    17  H   -0.002765  -0.000026   0.000022  -0.002993   0.560358  -0.000716
    18  H    0.001920  -0.000000  -0.000001  -0.000024  -0.000716   0.475989
    19  H    0.001246  -0.000000  -0.000000  -0.000001  -0.000012  -0.019107
    20  H    0.000111  -0.000000   0.000000  -0.000000  -0.000001   0.000279
    21  H   -0.000073  -0.000000  -0.000000  -0.000000  -0.000007  -0.006391
    22  H    0.000127  -0.000000  -0.000000   0.000000  -0.000000  -0.000083
    23  H   -0.000018   0.000000  -0.000000  -0.000000   0.000000  -0.000189
    24  H   -0.000163   0.000000   0.000000  -0.000000   0.000000   0.000018
    25  H   -0.000044  -0.000000  -0.000000   0.000000  -0.000000   0.000238
    26  H    0.007315   0.000006  -0.000011   0.000000  -0.000001  -0.000035
    27  H    0.011433  -0.000004   0.000021   0.000000  -0.000001  -0.000302
    28  H    0.362978  -0.000033   0.004438  -0.000058   0.000095  -0.000188
              19         20         21         22         23         24
     1  N   -0.000001   0.000000   0.000000   0.000000   0.000000   0.000000
     2  C    0.000111  -0.000003   0.000030  -0.000034   0.000001   0.000009
     3  C   -0.000046   0.000002  -0.000019   0.000005  -0.000000  -0.000000
     4  C    0.000269   0.000006   0.000176  -0.000002   0.000001  -0.000001
     5  N    0.003129   0.000037   0.001521   0.000010   0.000001   0.000016
     6  C    0.007819   0.000261   0.000740  -0.000298   0.000210   0.000349
     7  N   -0.049475   0.007344  -0.000026   0.000116  -0.000256   0.006243
     8  C    0.398586  -0.041547  -0.030532  -0.000335   0.005381  -0.003048
     9  C   -0.053134   0.411599   0.411993  -0.029394  -0.032021   0.008997
    10  C   -0.013640  -0.034988  -0.039051   0.403293   0.409947  -0.033613
    11  C    0.005299  -0.000780   0.007307  -0.029161  -0.033175   0.421726
    12  C   -0.009374   0.000360  -0.001288  -0.003906   0.007566  -0.036310
    13  C    0.001246   0.000111  -0.000073   0.000127  -0.000018  -0.000163
    14  H   -0.000000  -0.000000  -0.000000  -0.000000   0.000000   0.000000
    15  H   -0.000000   0.000000  -0.000000  -0.000000  -0.000000   0.000000
    16  H   -0.000001  -0.000000  -0.000000   0.000000  -0.000000  -0.000000
    17  H   -0.000012  -0.000001  -0.000007  -0.000000   0.000000   0.000000
    18  H   -0.019107   0.000279  -0.006391  -0.000083  -0.000189   0.000018
    19  H    0.626240  -0.001019   0.006187  -0.000120   0.000185   0.000688
    20  H   -0.001019   0.599370  -0.025471   0.005644  -0.012678  -0.000288
    21  H    0.006187  -0.025471   0.582948  -0.012215   0.003411  -0.000162
    22  H   -0.000120   0.005644  -0.012215   0.597250  -0.027868  -0.004533
    23  H    0.000185  -0.012678   0.003411  -0.027868   0.585776  -0.004025
    24  H    0.000688  -0.000288  -0.000162  -0.004533  -0.004025   0.568812
    25  H   -0.007350   0.001506  -0.000253   0.006317  -0.004159  -0.027129
    26  H   -0.002346  -0.000263  -0.000041   0.002186   0.000084  -0.010039
    27  H    0.007042   0.000308   0.000074   0.000234  -0.000305   0.001384
    28  H   -0.000030   0.000002  -0.000020  -0.000019   0.000001   0.000028
              25         26         27         28
     1  N   -0.000000  -0.000023  -0.000053  -0.000454
     2  C   -0.000014   0.000097   0.001555  -0.025645
     3  C    0.000002  -0.000164  -0.000007   0.008687
     4  C   -0.000008  -0.000251   0.000069  -0.001967
     5  N   -0.000030   0.000351  -0.000029   0.004703
     6  C   -0.001425  -0.016857  -0.005131   0.000519
     7  N   -0.002811  -0.062019  -0.048762  -0.004546
     8  C    0.008916   0.016762  -0.009891  -0.000231
     9  C   -0.008167  -0.005321   0.000799  -0.000143
    10  C   -0.033666  -0.001387   0.007093   0.000077
    11  C    0.430981  -0.015315  -0.031849   0.001231
    12  C   -0.044934   0.408032   0.397628   0.001552
    13  C   -0.000044   0.007315   0.011433   0.362978
    14  H   -0.000000   0.000006  -0.000004  -0.000033
    15  H   -0.000000  -0.000011   0.000021   0.004438
    16  H    0.000000   0.000000   0.000000  -0.000058
    17  H   -0.000000  -0.000001  -0.000001   0.000095
    18  H    0.000238  -0.000035  -0.000302  -0.000188
    19  H   -0.007350  -0.002346   0.007042  -0.000030
    20  H    0.001506  -0.000263   0.000308   0.000002
    21  H   -0.000253  -0.000041   0.000074  -0.000020
    22  H    0.006317   0.002186   0.000234  -0.000019
    23  H   -0.004159   0.000084  -0.000305   0.000001
    24  H   -0.027129  -0.010039   0.001384   0.000028
    25  H    0.583562   0.007925  -0.011251  -0.000069
    26  H    0.007925   0.640390  -0.070765  -0.004269
    27  H   -0.011251  -0.070765   0.651900  -0.000710
    28  H   -0.000069  -0.004269  -0.000710   0.529780
 Mulliken charges:
               1
     1  N   -0.484200
     2  C    0.229500
     3  C   -0.233991
     4  C   -0.053420
     5  N   -0.376363
     6  C    0.312094
     7  N   -0.053133
     8  C   -0.197083
     9  C   -0.157436
    10  C   -0.196581
    11  C   -0.152503
    12  C   -0.199410
    13  C   -0.324557
    14  H    0.245760
    15  H    0.241211
    16  H    0.102943
    17  H    0.109516
    18  H    0.159841
    19  H    0.098856
    20  H    0.090209
    21  H    0.101161
    22  H    0.092785
    23  H    0.102131
    24  H    0.111042
    25  H    0.101861
    26  H    0.105960
    27  H    0.099519
    28  H    0.124290
 Sum of Mulliken charges =  -0.00000
 Mulliken charges with hydrogens summed into heavy atoms:
               1
     1  N    0.002771
     2  C    0.229500
     3  C   -0.131048
     4  C    0.056096
     5  N   -0.376363
     6  C    0.312094
     7  N   -0.053133
     8  C    0.061614
     9  C    0.033934
    10  C   -0.001666
    11  C    0.060399
    12  C    0.006069
    13  C   -0.200267
 Electronic spatial extent (au):  <R**2>=           2880.8353
 Charge=             -0.0000 electrons
 Dipole moment (field-independent basis, Debye):
    X=             -0.3751    Y=             -2.7418    Z=             -0.5537  Tot=              2.8222
 Quadrupole moment (field-independent basis, Debye-Ang):
   XX=            -62.9420   YY=            -74.2221   ZZ=            -82.6687
   XY=              3.8629   XZ=              1.0213   YZ=              1.5843
 Traceless Quadrupole moment (field-independent basis, Debye-Ang):
   XX=             10.3356   YY=             -0.9445   ZZ=             -9.3911
   XY=              3.8629   XZ=              1.0213   YZ=              1.5843
 Octapole moment (field-independent basis, Debye-Ang**2):
  XXX=            -63.0185  YYY=            -18.7840  ZZZ=             -1.6642  XYY=            -16.7421
  XXY=            -16.4478  XXZ=             -8.0711  XZZ=             11.0098  YZZ=             -0.0909
  YYZ=             -1.8336  XYZ=             -6.2228
 Hexadecapole moment (field-independent basis, Debye-Ang**3):
 XXXX=          -2564.8597 YYYY=           -718.1592 ZZZZ=           -192.2367 XXXY=             93.3803
 XXXZ=              8.6129 YYYX=             38.7190 YYYZ=              5.6396 ZZZX=              1.8623
 ZZZY=              2.1928 XXYY=           -552.0120 XXZZ=           -565.4091 YYZZ=           -170.7847
 XXYZ=             16.5643 YYXZ=              8.4573 ZZXY=              0.4506
 N-N= 7.969473673312D+02 E-N=-2.882410990697D+03  KE= 5.513115928336D+02
 Breneman (CHELPG) radii used.
 Read replacement radii for each type of atom:
 Atom Element Radius
    1     7    1.70
    2     6    1.50
    3     6    1.50
    4     6    1.50
    5     7    1.70
    6     6    1.50
    7     7    1.70
    8     6    1.50
    9     6    1.50
   10     6    1.50
   11     6    1.50
   12     6    1.50
   13     6    1.50
   14     1    1.45
   15     1    1.45
   16     1    1.45
   17     1    1.45
   18     1    1.45
   19     1    1.45
   20     1    1.45
   21     1    1.45
   22     1    1.45
   23     1    1.45
   24     1    1.45
   25     1    1.45
   26     1    1.45
   27     1    1.45
   28     1    1.45
 Generate Potential Derived Charges using the Breneman model, NDens= 1.
 Grid spacing= 0.300 Box extension= 2.800
 NStep X,Y,Z=   51     38     31   Total possible points=       60078
 Number of Points to Fit=   16203

 **********************************************************************

            Electrostatic Properties Using The SCF Density.

 **********************************************************************

       Atomic Center    1 is at  -3.656768 -1.572931  0.275140
       Atomic Center    2 is at  -2.747749 -0.554900  0.118290
       Atomic Center    3 is at  -3.156969  0.792460  0.155250
       Atomic Center    4 is at  -2.180150  1.765860  0.017330
       Atomic Center    5 is at  -0.883260  1.526800 -0.138620
       Atomic Center    6 is at  -0.476189  0.248421 -0.164810
       Atomic Center    7 is at   0.870811  0.020961 -0.308610
       Atomic Center    8 is at   1.804111  1.105621 -0.555160
       Atomic Center    9 is at   2.945011  1.097802  0.466400
       Atomic Center   10 is at   3.429601 -0.337648  0.767640
       Atomic Center   11 is at   2.926801 -1.320678 -0.287710
       Atomic Center   12 is at   1.398921 -1.329489 -0.320070
       Atomic Center   13 is at  -1.385659 -0.825150 -0.050190
       Atomic Center   14 is at  -4.631979 -1.357401  0.124120
       Atomic Center   15 is at  -3.378538 -2.502081 -0.007480
       Atomic Center   16 is at  -4.206089  1.063469  0.285780
       Atomic Center   17 is at  -2.471730  2.822810  0.034000
       Atomic Center   18 is at   1.236560  2.040741 -0.511180
       Atomic Center   19 is at   2.209971  1.018902 -1.580190
       Atomic Center   20 is at   3.768640  1.715022  0.073760
       Atomic Center   21 is at   2.604910  1.580792  1.394750
       Atomic Center   22 is at   3.049241 -0.662858  1.750130
       Atomic Center   23 is at   4.527171 -0.376338  0.835080
       Atomic Center   24 is at   3.279832 -2.341298 -0.076920
       Atomic Center   25 is at   3.330071 -1.052948 -1.277960
       Atomic Center   26 is at   1.034522 -1.869549  0.573560
       Atomic Center   27 is at   1.036322 -1.895879 -1.201130
       Atomic Center   28 is at  -1.050758 -1.860990 -0.093480
   16203 points will be used for fitting atomic charges
 Fitting point charges to electrostatic potential
 Charges from ESP fit, RMS=   0.00311 RRMS=   0.21601:
 ESP charges:
               1
     1  N   -0.852293
     2  C    0.612347
     3  C   -0.500473
     4  C    0.253513
     5  N   -0.557790
     6  C    0.627156
     7  N   -0.412515
     8  C    0.255846
     9  C   -0.037108
    10  C    0.006788
    11  C   -0.046897
    12  C    0.247326
    13  C   -0.626339
    14  H    0.357690
    15  H    0.352977
    16  H    0.156524
    17  H    0.055092
    18  H   -0.041509
    19  H   -0.025880
    20  H   -0.001492
    21  H    0.016414
    22  H    0.000993
    23  H    0.005751
    24  H    0.001448
    25  H    0.028864
    26  H   -0.007860
    27  H   -0.055331
    28  H    0.186756
 Sum of ESP charges =  -0.00000
 ESP charges with hydrogens summed into heavy atoms:
               1
     1  N   -0.141626
     2  C    0.612347
     3  C   -0.343949
     4  C    0.308605
     5  N   -0.557790
     6  C    0.627156
     7  N   -0.412515
     8  C    0.188456
     9  C   -0.022185
    10  C    0.013533
    11  C   -0.016585
    12  C    0.184136
    13  C   -0.439582
 Charge=  -0.00000 Dipole=    -0.4741    -2.6985    -0.6493 Tot=     2.8157
 -----------------------------------------------------------------

              Electrostatic Properties (Atomic Units)

 -----------------------------------------------------------------
    Center     Electric         -------- Electric Field --------
               Potential          X             Y             Z
 -----------------------------------------------------------------
    1 Atom    -18.375671
    2 Atom    -14.723291
    3 Atom    -14.792655
    4 Atom    -14.753531
    5 Atom    -18.433798
    6 Atom    -14.711293
    7 Atom    -18.377011
    8 Atom    -14.753667
    9 Atom    -14.778109
   10 Atom    -14.772651
   11 Atom    -14.767404
   12 Atom    -14.737122
   13 Atom    -14.788271
   14 Atom     -1.028784
   15 Atom     -1.028659
   16 Atom     -1.111663
   17 Atom     -1.125170
   18 Atom     -1.134014
   19 Atom     -1.137314
   20 Atom     -1.133018
   21 Atom     -1.137747
   22 Atom     -1.133280
   23 Atom     -1.130606
   24 Atom     -1.121301
   25 Atom     -1.125993
   26 Atom     -1.123867
   27 Atom     -1.124948
   28 Atom     -1.108338
 -----------------------------------------------------------------
 Unable to Open any file for archive entry.
 1\1\GINC-NOTCH418\SP\RwB97XD\def2TZVP\C10H15N3\U6053008\12-Jul-2024\0\
 \#N Guess=Read Geom=Check Integral(Ultrafine) Density Pop=(ChelpG,Read
 Radii) NMR wB97XD def2TZVP\\1236666_3\\0,1\N,0,-3.65677,-1.57293,0.275
 14\C,0,-2.74775,-0.5549,0.11829\C,0,-3.15697,0.79246,0.15525\C,0,-2.18
 015,1.76586,0.01733\N,0,-0.88326,1.5268,-0.13862\C,0,-0.47619,0.24842,
 -0.16481\N,0,0.87081,0.02096,-0.30861\C,0,1.80411,1.10562,-0.55516\C,0
 ,2.94501,1.0978,0.4664\C,0,3.4296,-0.33765,0.76764\C,0,2.9268,-1.32068
 ,-0.28771\C,0,1.39892,-1.32949,-0.32007\C,0,-1.38566,-0.82515,-0.05019
 \H,0,-4.63198,-1.3574,0.12412\H,0,-3.37854,-2.50208,-0.00748\H,0,-4.20
 609,1.06347,0.28578\H,0,-2.47173,2.82281,0.034\H,0,1.23656,2.04074,-0.
 51118\H,0,2.20997,1.0189,-1.58019\H,0,3.76864,1.71502,0.07376\H,0,2.60
 491,1.58079,1.39475\H,0,3.04924,-0.66286,1.75013\H,0,4.52717,-0.37634,
 0.83508\H,0,3.27983,-2.3413,-0.07692\H,0,3.33007,-1.05295,-1.27796\H,0
 ,1.03452,-1.86955,0.57356\H,0,1.03632,-1.89588,-1.20113\H,0,-1.05076,-
 1.86099,-0.09348\\Version=ES64L-G16RevC.01\State=1-A\HF=-554.3831192\R
 MSD=1.619e-09\Dipole=-0.1475756,-1.078691,-0.2178607\Quadrupole=7.6842
 938,-0.7022251,-6.9820687,2.8719915,0.759318,1.1778745\PG=C01 [X(C10H1
 5N3)]\\@
 The archive entry for this job was punched.


 AN AIRPLANE IS A COLLECTION OF SPARE PARTS
 FLYING IN CLOSE FORMATION.
 Job cpu time:       0 days  0 hours 57 minutes 33.8 seconds.
 Elapsed time:       0 days  0 hours  3 minutes 48.3 seconds.
 File lengths (MBytes):  RWF=    153 Int=      0 D2E=      0 Chk=     23 Scr=      2
 Normal termination of Gaussian 16 at Fri Jul 12 13:27:21 2024.
