 Entering Gaussian System, Link 0=g16
 Input=12378181_1.com
 Output=12378181_1.log
 Initial command:
 /uufs/chpc.utah.edu/sys/installdir/gaussian16/C01/AVX/g16/l1.exe "/scratch/general/vast/u6053008/1287187-notchpeak.peaks/Gau-3166182.inp" -scrdir="/scratch/general/vast/u6053008/1287187-notchpeak.peaks/"
 Entering Link 1 = /uufs/chpc.utah.edu/sys/installdir/gaussian16/C01/AVX/g16/l1.exe PID=   3166183.
  
 Copyright (c) 1988-2019, Gaussian, Inc.  All Rights Reserved.
  
 This is part of the Gaussian(R) 16 program.  It is based on
 the Gaussian(R) 09 system (copyright 2009, Gaussian, Inc.),
 the Gaussian(R) 03 system (copyright 2003, Gaussian, Inc.),
 the Gaussian(R) 98 system (copyright 1998, Gaussian, Inc.),
 the Gaussian(R) 94 system (copyright 1995, Gaussian, Inc.),
 the Gaussian 92(TM) system (copyright 1992, Gaussian, Inc.),
 the Gaussian 90(TM) system (copyright 1990, Gaussian, Inc.),
 the Gaussian 88(TM) system (copyright 1988, Gaussian, Inc.),
 the Gaussian 86(TM) system (copyright 1986, Carnegie Mellon
 University), and the Gaussian 82(TM) system (copyright 1983,
 Carnegie Mellon University). Gaussian is a federally registered
 trademark of Gaussian, Inc.
  
 This software contains proprietary and confidential information,
 including trade secrets, belonging to Gaussian, Inc.
  
 This software is provided under written license and may be
 used, copied, transmitted, or stored only in accord with that
 written license.
  
 The following legend is applicable only to US Government
 contracts under FAR:
  
                    RESTRICTED RIGHTS LEGEND
  
 Use, reproduction and disclosure by the US Government is
 subject to restrictions as set forth in subparagraphs (a)
 and (c) of the Commercial Computer Software - Restricted
 Rights clause in FAR 52.227-19.
  
 Gaussian, Inc.
 340 Quinnipiac St., Bldg. 40, Wallingford CT 06492
  
  
 ---------------------------------------------------------------
 Warning -- This program may not be used in any manner that
 competes with the business of Gaussian, Inc. or will provide
 assistance to any competitor of Gaussian, Inc.  The licensee
 of this program is prohibited from giving any competitor of
 Gaussian, Inc. access to this program.  By using this program,
 the user acknowledges that Gaussian, Inc. is engaged in the
 business of creating and licensing software in the field of
 computational chemistry and represents and warrants to the
 licensee that it is not a competitor of Gaussian, Inc. and that
 it will not use this program in any manner prohibited above.
 ---------------------------------------------------------------
  

 Cite this work as:
 Gaussian 16, Revision C.01,
 M. J. Frisch, G. W. Trucks, H. B. Schlegel, G. E. Scuseria, 
 M. A. Robb, J. R. Cheeseman, G. Scalmani, V. Barone, 
 G. A. Petersson, H. Nakatsuji, X. Li, M. Caricato, A. V. Marenich, 
 J. Bloino, B. G. Janesko, R. Gomperts, B. Mennucci, H. P. Hratchian, 
 J. V. Ortiz, A. F. Izmaylov, J. L. Sonnenberg, D. Williams-Young, 
 F. Ding, F. Lipparini, F. Egidi, J. Goings, B. Peng, A. Petrone, 
 T. Henderson, D. Ranasinghe, V. G. Zakrzewski, J. Gao, N. Rega, 
 G. Zheng, W. Liang, M. Hada, M. Ehara, K. Toyota, R. Fukuda, 
 J. Hasegawa, M. Ishida, T. Nakajima, Y. Honda, O. Kitao, H. Nakai, 
 T. Vreven, K. Throssell, J. A. Montgomery, Jr., J. E. Peralta, 
 F. Ogliaro, M. J. Bearpark, J. J. Heyd, E. N. Brothers, K. N. Kudin, 
 V. N. Staroverov, T. A. Keith, R. Kobayashi, J. Normand, 
 K. Raghavachari, A. P. Rendell, J. C. Burant, S. S. Iyengar, 
 J. Tomasi, M. Cossi, J. M. Millam, M. Klene, C. Adamo, R. Cammi, 
 J. W. Ochterski, R. L. Martin, K. Morokuma, O. Farkas, 
 J. B. Foresman, and D. J. Fox, Gaussian, Inc., Wallingford CT, 2019.
 
 ******************************************
 Gaussian 16:  ES64L-G16RevC.01  3-Jul-2019
                12-Jul-2024 
 ******************************************
 %NProcShared=16
 Will use up to   16 processors via shared memory.
 %Mem=32GB
 %chk=12378181_1.chk
 ------------------------------------------------------
 #N OPT FREQ=NORAMAN Integral(Ultrafine) wB97XD def2SVP
 ------------------------------------------------------
 1/18=20,19=15,26=4,38=1/1,3;
 2/9=110,12=2,17=6,18=5,40=1/2;
 3/5=43,7=101,11=2,25=1,30=1,71=1,74=-58,75=-5/1,2,3;
 4//1;
 5/5=2,38=5/2;
 6/7=2,8=2,9=2,10=2,28=1/1;
 7//1,2,3,16;
 1/18=20,19=15,26=4/3(2);
 2/9=110/2;
 99//99;
 2/9=110/2;
 3/5=43,7=101,11=2,25=1,30=1,71=1,74=-58,75=-5/1,2,3;
 4/5=5,16=3,69=1/1;
 5/5=2,38=5/2;
 7//1,2,3,16;
 1/18=20,19=15,26=4/3(-5);
 2/9=110/2;
 6/7=2,8=2,9=2,10=2,19=2,28=1/1;
 99/9=1/99;
 ----------
 12378181_1
 ----------
 Symbolic Z-matrix:
 Charge =  0 Multiplicity = 1
 C                    -3.40588  -1.28946   0.05699 
 C                    -2.06917  -0.59874   0.02474 
 C                    -1.96323   0.79041  -0.00228 
 C                    -0.6945    1.38573  -0.02884 
 C                    -0.55283   2.88361  -0.06654 
 C                     0.4336    0.5648   -0.02247 
 C                     0.2152   -0.8348   -0.0039 
 N                    -0.99574  -1.39103   0.01933 
 N                     1.27799  -1.70355   0.00841 
 C                     2.62055  -1.26668  -0.28189 
 C                     2.87156   0.07412   0.39754 
 C                     1.84396   1.1101   -0.05803 
 H                    -4.23903  -0.57398   0.03866 
 H                    -3.48953  -1.90676   0.96416 
 H                    -3.50121  -1.96811  -0.80377 
 H                    -2.86196   1.4107   -0.00707 
 H                    -0.0491    3.25775   0.83931 
 H                     0.05434   3.20589  -0.9268 
 H                    -1.53194   3.37616  -0.13565 
 H                     1.02435  -2.6727   -0.12919 
 H                     3.3285   -2.02275   0.08939 
 H                     2.79756  -1.16594  -1.37275 
 H                     2.7972   -0.06752   1.48802 
 H                     3.89223   0.42213   0.18022 
 H                     2.08562   1.44367  -1.0841 
 H                     1.9217    2.00894   0.57346 
 

 GradGradGradGradGradGradGradGradGradGradGradGradGradGradGradGradGradGrad
 Berny optimization.
 Initialization pass.
                           ----------------------------
                           !    Initial Parameters    !
                           ! (Angstroms and Degrees)  !
 --------------------------                            --------------------------
 ! Name  Definition              Value          Derivative Info.                !
 --------------------------------------------------------------------------------
 ! R1    R(1,2)                  1.505          estimate D2E/DX2                !
 ! R2    R(1,13)                 1.0984         estimate D2E/DX2                !
 ! R3    R(1,14)                 1.1005         estimate D2E/DX2                !
 ! R4    R(1,15)                 1.1003         estimate D2E/DX2                !
 ! R5    R(2,3)                  1.3934         estimate D2E/DX2                !
 ! R6    R(2,8)                  1.3342         estimate D2E/DX2                !
 ! R7    R(3,4)                  1.4017         estimate D2E/DX2                !
 ! R8    R(3,16)                 1.092          estimate D2E/DX2                !
 ! R9    R(4,5)                  1.505          estimate D2E/DX2                !
 ! R10   R(4,6)                  1.3952         estimate D2E/DX2                !
 ! R11   R(5,17)                 1.1019         estimate D2E/DX2                !
 ! R12   R(5,18)                 1.1012         estimate D2E/DX2                !
 ! R13   R(5,19)                 1.0982         estimate D2E/DX2                !
 ! R14   R(6,7)                  1.4167         estimate D2E/DX2                !
 ! R15   R(6,12)                 1.5125         estimate D2E/DX2                !
 ! R16   R(7,8)                  1.3328         estimate D2E/DX2                !
 ! R17   R(7,9)                  1.3727         estimate D2E/DX2                !
 ! R18   R(9,10)                 1.4414         estimate D2E/DX2                !
 ! R19   R(9,20)                 1.0112         estimate D2E/DX2                !
 ! R20   R(10,11)                1.5239         estimate D2E/DX2                !
 ! R21   R(10,21)                1.1003         estimate D2E/DX2                !
 ! R22   R(10,22)                1.1097         estimate D2E/DX2                !
 ! R23   R(11,12)                1.5286         estimate D2E/DX2                !
 ! R24   R(11,23)                1.1022         estimate D2E/DX2                !
 ! R25   R(11,24)                1.1            estimate D2E/DX2                !
 ! R26   R(12,25)                1.1057         estimate D2E/DX2                !
 ! R27   R(12,26)                1.1012         estimate D2E/DX2                !
 ! A1    A(2,1,13)             111.9877         estimate D2E/DX2                !
 ! A2    A(2,1,14)             110.0373         estimate D2E/DX2                !
 ! A3    A(2,1,15)             110.0771         estimate D2E/DX2                !
 ! A4    A(13,1,14)            108.7539         estimate D2E/DX2                !
 ! A5    A(13,1,15)            108.8456         estimate D2E/DX2                !
 ! A6    A(14,1,15)            106.9976         estimate D2E/DX2                !
 ! A7    A(1,2,3)              121.7011         estimate D2E/DX2                !
 ! A8    A(1,2,8)              116.2413         estimate D2E/DX2                !
 ! A9    A(3,2,8)              122.0573         estimate D2E/DX2                !
 ! A10   A(2,3,4)              119.5105         estimate D2E/DX2                !
 ! A11   A(2,3,16)             120.2508         estimate D2E/DX2                !
 ! A12   A(4,3,16)             120.2382         estimate D2E/DX2                !
 ! A13   A(3,4,5)              120.555          estimate D2E/DX2                !
 ! A14   A(3,4,6)              118.8074         estimate D2E/DX2                !
 ! A15   A(5,4,6)              120.6374         estimate D2E/DX2                !
 ! A16   A(4,5,17)             111.1217         estimate D2E/DX2                !
 ! A17   A(4,5,18)             111.2693         estimate D2E/DX2                !
 ! A18   A(4,5,19)             111.3478         estimate D2E/DX2                !
 ! A19   A(17,5,18)            106.9046         estimate D2E/DX2                !
 ! A20   A(17,5,19)            107.879          estimate D2E/DX2                !
 ! A21   A(18,5,19)            108.1296         estimate D2E/DX2                !
 ! A22   A(4,6,7)              117.1756         estimate D2E/DX2                !
 ! A23   A(4,6,12)             122.7999         estimate D2E/DX2                !
 ! A24   A(7,6,12)             120.016          estimate D2E/DX2                !
 ! A25   A(6,7,8)              123.5469         estimate D2E/DX2                !
 ! A26   A(6,7,9)              120.3978         estimate D2E/DX2                !
 ! A27   A(8,7,9)              116.0502         estimate D2E/DX2                !
 ! A28   A(2,8,7)              118.8977         estimate D2E/DX2                !
 ! A29   A(7,9,10)             121.8374         estimate D2E/DX2                !
 ! A30   A(7,9,20)             114.2757         estimate D2E/DX2                !
 ! A31   A(10,9,20)            119.7829         estimate D2E/DX2                !
 ! A32   A(9,10,11)            109.2865         estimate D2E/DX2                !
 ! A33   A(9,10,21)            108.8486         estimate D2E/DX2                !
 ! A34   A(9,10,22)            111.9669         estimate D2E/DX2                !
 ! A35   A(11,10,21)           110.3742         estimate D2E/DX2                !
 ! A36   A(11,10,22)           109.3976         estimate D2E/DX2                !
 ! A37   A(21,10,22)           106.9447         estimate D2E/DX2                !
 ! A38   A(10,11,12)           110.651          estimate D2E/DX2                !
 ! A39   A(10,11,23)           108.4778         estimate D2E/DX2                !
 ! A40   A(10,11,24)           110.0652         estimate D2E/DX2                !
 ! A41   A(12,11,23)           109.6702         estimate D2E/DX2                !
 ! A42   A(12,11,24)           110.5146         estimate D2E/DX2                !
 ! A43   A(23,11,24)           107.3807         estimate D2E/DX2                !
 ! A44   A(6,12,11)            112.0543         estimate D2E/DX2                !
 ! A45   A(6,12,25)            109.5353         estimate D2E/DX2                !
 ! A46   A(6,12,26)            110.2797         estimate D2E/DX2                !
 ! A47   A(11,12,25)           109.518          estimate D2E/DX2                !
 ! A48   A(11,12,26)           109.5604         estimate D2E/DX2                !
 ! A49   A(25,12,26)           105.693          estimate D2E/DX2                !
 ! D1    D(13,1,2,3)             0.9798         estimate D2E/DX2                !
 ! D2    D(13,1,2,8)          -178.8188         estimate D2E/DX2                !
 ! D3    D(14,1,2,3)          -120.1061         estimate D2E/DX2                !
 ! D4    D(14,1,2,8)            60.0952         estimate D2E/DX2                !
 ! D5    D(15,1,2,3)           122.2097         estimate D2E/DX2                !
 ! D6    D(15,1,2,8)           -57.5889         estimate D2E/DX2                !
 ! D7    D(1,2,3,4)            179.8617         estimate D2E/DX2                !
 ! D8    D(1,2,3,16)            -0.4            estimate D2E/DX2                !
 ! D9    D(8,2,3,4)             -0.3514         estimate D2E/DX2                !
 ! D10   D(8,2,3,16)           179.3869         estimate D2E/DX2                !
 ! D11   D(1,2,8,7)           -179.7581         estimate D2E/DX2                !
 ! D12   D(3,2,8,7)              0.4441         estimate D2E/DX2                !
 ! D13   D(2,3,4,5)            179.6363         estimate D2E/DX2                !
 ! D14   D(2,3,4,6)             -0.2335         estimate D2E/DX2                !
 ! D15   D(16,3,4,5)            -0.102          estimate D2E/DX2                !
 ! D16   D(16,3,4,6)          -179.9718         estimate D2E/DX2                !
 ! D17   D(3,4,5,17)           116.5613         estimate D2E/DX2                !
 ! D18   D(3,4,5,18)          -124.4341         estimate D2E/DX2                !
 ! D19   D(3,4,5,19)            -3.7268         estimate D2E/DX2                !
 ! D20   D(6,4,5,17)           -63.5713         estimate D2E/DX2                !
 ! D21   D(6,4,5,18)            55.4333         estimate D2E/DX2                !
 ! D22   D(6,4,5,19)           176.1406         estimate D2E/DX2                !
 ! D23   D(3,4,6,7)              0.673          estimate D2E/DX2                !
 ! D24   D(3,4,6,12)           179.6116         estimate D2E/DX2                !
 ! D25   D(5,4,6,7)           -179.1967         estimate D2E/DX2                !
 ! D26   D(5,4,6,12)            -0.2581         estimate D2E/DX2                !
 ! D27   D(4,6,7,8)             -0.6088         estimate D2E/DX2                !
 ! D28   D(4,6,7,9)           -179.7534         estimate D2E/DX2                !
 ! D29   D(12,6,7,8)          -179.5784         estimate D2E/DX2                !
 ! D30   D(12,6,7,9)             1.2771         estimate D2E/DX2                !
 ! D31   D(4,6,12,11)          161.8401         estimate D2E/DX2                !
 ! D32   D(4,6,12,25)          -76.4079         estimate D2E/DX2                !
 ! D33   D(4,6,12,26)           39.5096         estimate D2E/DX2                !
 ! D34   D(7,6,12,11)          -19.2504         estimate D2E/DX2                !
 ! D35   D(7,6,12,25)          102.5015         estimate D2E/DX2                !
 ! D36   D(7,6,12,26)         -141.581          estimate D2E/DX2                !
 ! D37   D(6,7,8,2)              0.0469         estimate D2E/DX2                !
 ! D38   D(9,7,8,2)            179.2256         estimate D2E/DX2                !
 ! D39   D(6,7,9,10)           -13.4736         estimate D2E/DX2                !
 ! D40   D(6,7,9,20)          -170.6109         estimate D2E/DX2                !
 ! D41   D(8,7,9,10)           167.32           estimate D2E/DX2                !
 ! D42   D(8,7,9,20)            10.1827         estimate D2E/DX2                !
 ! D43   D(7,9,10,11)           41.6125         estimate D2E/DX2                !
 ! D44   D(7,9,10,21)          162.2236         estimate D2E/DX2                !
 ! D45   D(7,9,10,22)          -79.7573         estimate D2E/DX2                !
 ! D46   D(20,9,10,11)        -162.4711         estimate D2E/DX2                !
 ! D47   D(20,9,10,21)         -41.8601         estimate D2E/DX2                !
 ! D48   D(20,9,10,22)          76.159          estimate D2E/DX2                !
 ! D49   D(9,10,11,12)         -57.2971         estimate D2E/DX2                !
 ! D50   D(9,10,11,23)          63.0485         estimate D2E/DX2                !
 ! D51   D(9,10,11,24)        -179.7343         estimate D2E/DX2                !
 ! D52   D(21,10,11,12)       -176.9721         estimate D2E/DX2                !
 ! D53   D(21,10,11,23)        -56.6264         estimate D2E/DX2                !
 ! D54   D(21,10,11,24)         60.5908         estimate D2E/DX2                !
 ! D55   D(22,10,11,12)         65.6166         estimate D2E/DX2                !
 ! D56   D(22,10,11,23)       -174.0378         estimate D2E/DX2                !
 ! D57   D(22,10,11,24)        -56.8206         estimate D2E/DX2                !
 ! D58   D(10,11,12,6)          46.8873         estimate D2E/DX2                !
 ! D59   D(10,11,12,25)        -74.8745         estimate D2E/DX2                !
 ! D60   D(10,11,12,26)        169.6265         estimate D2E/DX2                !
 ! D61   D(23,11,12,6)         -72.7438         estimate D2E/DX2                !
 ! D62   D(23,11,12,25)        165.4943         estimate D2E/DX2                !
 ! D63   D(23,11,12,26)         49.9954         estimate D2E/DX2                !
 ! D64   D(24,11,12,6)         169.0617         estimate D2E/DX2                !
 ! D65   D(24,11,12,25)         47.2999         estimate D2E/DX2                !
 ! D66   D(24,11,12,26)        -68.1991         estimate D2E/DX2                !
 --------------------------------------------------------------------------------
 Trust Radius=3.00D-01 FncErr=1.00D-07 GrdErr=1.00D-06 EigMax=2.50D+02 EigMin=1.00D-04
 Number of steps in this run=    152 maximum allowed number of steps=    156.
 GradGradGradGradGradGradGradGradGradGradGradGradGradGradGradGradGradGrad

                          Input orientation:                          
 ---------------------------------------------------------------------
 Center     Atomic      Atomic             Coordinates (Angstroms)
 Number     Number       Type             X           Y           Z
 ---------------------------------------------------------------------
      1          6           0       -3.405880   -1.289460    0.056990
      2          6           0       -2.069170   -0.598740    0.024740
      3          6           0       -1.963230    0.790410   -0.002280
      4          6           0       -0.694500    1.385730   -0.028840
      5          6           0       -0.552830    2.883610   -0.066540
      6          6           0        0.433600    0.564800   -0.022470
      7          6           0        0.215200   -0.834800   -0.003900
      8          7           0       -0.995740   -1.391030    0.019330
      9          7           0        1.277990   -1.703550    0.008410
     10          6           0        2.620550   -1.266680   -0.281890
     11          6           0        2.871560    0.074120    0.397540
     12          6           0        1.843960    1.110100   -0.058030
     13          1           0       -4.239030   -0.573980    0.038660
     14          1           0       -3.489530   -1.906760    0.964160
     15          1           0       -3.501210   -1.968110   -0.803770
     16          1           0       -2.861960    1.410700   -0.007070
     17          1           0       -0.049100    3.257750    0.839310
     18          1           0        0.054340    3.205890   -0.926800
     19          1           0       -1.531940    3.376160   -0.135650
     20          1           0        1.024350   -2.672700   -0.129190
     21          1           0        3.328500   -2.022750    0.089390
     22          1           0        2.797560   -1.165940   -1.372750
     23          1           0        2.797200   -0.067520    1.488020
     24          1           0        3.892230    0.422130    0.180220
     25          1           0        2.085620    1.443670   -1.084100
     26          1           0        1.921700    2.008940    0.573460
 ---------------------------------------------------------------------
                    Distance matrix (angstroms):
                    1          2          3          4          5
     1  C    0.000000
     2  C    1.504968   0.000000
     3  C    2.531918   1.393446   0.000000
     4  C    3.809933   2.414686   1.401709   0.000000
     5  C    5.056646   3.799261   2.524845   1.505037   0.000000
     6  C    4.264528   2.760419   2.407509   1.395198   2.520291
     7  C    3.650020   2.296713   2.717879   2.399777   3.797416
     8  N    2.412573   1.334168   2.386459   2.793468   4.298382
     9  N    4.702390   3.524819   4.089677   3.665482   4.939591
    10  C    6.035993   4.746961   5.031982   4.253101   5.228922
    11  C    6.432851   5.000253   4.903888   3.823468   4.453656
    12  C    5.773382   4.270781   3.820995   2.553547   2.981612
    13  H    1.098356   2.170046   2.653771   4.050767   5.055103
    14  H    1.100461   2.147289   3.246278   4.431561   5.712635
    15  H    1.100255   2.147636   3.258405   4.441439   5.725001
    16  H    2.755144   2.160411   1.092016   2.167713   2.739540
    17  H    5.705884   4.429077   3.234182   2.162102   1.101948
    18  H    5.757529   4.459813   3.280224   2.163348   1.101166
    19  H    5.031577   4.014246   2.624862   2.162065   1.098198
    20  H    4.644885   3.727582   4.575464   4.408556   5.776158
    21  H    6.774263   5.582726   5.993720   5.274111   6.257907
    22  H    6.367266   5.095072   5.326407   4.528973   5.415732
    23  H    6.482221   5.109299   5.061495   4.074895   4.727423
    24  H    7.497142   6.050177   5.869868   4.691516   5.087075
    25  H    6.239283   4.760593   4.241494   2.974222   3.173369
    26  H    6.287232   4.798764   4.112052   2.756022   2.701471
                    6          7          8          9         10
     6  C    0.000000
     7  C    1.416659   0.000000
     8  N    2.422815   1.332782   0.000000
     9  N    2.420611   1.372735   2.295133   0.000000
    10  C    2.864327   2.459575   3.630943   1.441387   0.000000
    11  C    2.522067   2.836113   4.152796   2.418884   1.523934
    12  C    1.512525   2.537405   3.784908   2.870777   2.510436
    13  H    4.809785   4.462063   3.344679   5.631550   6.901914
    14  H    4.740569   3.976338   2.716187   4.866621   6.268606
    15  H    4.744343   3.966848   2.699610   4.854934   6.183875
    16  H    3.402426   3.809356   3.366477   5.180538   6.107520
    17  H    2.868387   4.186863   4.814525   5.202505   5.371647
    18  H    2.817269   4.147866   4.809314   5.145341   5.196655
    19  H    3.432186   4.560925   4.799753   5.806885   6.230612
    20  H    3.292686   2.012038   2.396977   1.011197   2.132619
    21  H    3.884376   3.333551   4.370701   2.076785   1.100311
    22  H    3.225992   2.941426   4.046934   2.122668   1.109710
    23  H    2.875415   3.079167   4.277280   2.678402   2.145174
    24  H    3.467500   3.890286   5.215907   3.373764   2.163977
    25  H    2.151428   3.139543   4.329880   3.427950   2.876750
    26  H    2.157571   3.366355   4.514234   3.810017   3.456834
                   11         12         13         14         15
    11  C    0.000000
    12  C    1.528647   0.000000
    13  H    7.149078   6.312546   0.000000
    14  H    6.686435   6.212281   1.787345   0.000000
    15  H    6.798974   6.213079   1.788202   1.769033   0.000000
    16  H    5.901136   4.715786   2.416065   3.513214   3.529834
    17  H    4.342916   3.000216   5.733996   6.206795   6.475059
    18  H    4.415721   2.889608   5.801082   6.501841   6.279120
    19  H    5.529790   4.066664   4.791902   5.740295   5.734599
    20  H    3.351813   3.871227   5.668860   4.707143   4.629492
    21  H    2.168090   3.469919   7.705129   6.874897   6.888081
    22  H    2.162672   2.796104   7.201118   6.748145   6.375086
    23  H    1.102152   2.164654   7.201783   6.571165   6.966672
    24  H    1.100048   2.173816   8.193269   7.780017   7.832269
    25  H    2.165324   1.105662   6.732956   6.819314   6.552213
    26  H    2.162570   1.101243   6.701648   6.690797   6.864521
                   16         17         18         19         20
    16  H    0.000000
    17  H    3.469890   0.000000
    18  H    3.545901   1.769897   0.000000
    19  H    2.376661   1.778590   1.780785   0.000000
    20  H    5.638482   6.104140   6.011233   6.566838   0.000000
    21  H    7.079525   6.313022   6.252315   7.267926   2.404022
    22  H    6.366657   5.706638   5.180446   6.395753   2.638378
    23  H    6.037095   4.424892   4.906103   5.765127   3.541938
    24  H    6.828721   4.899921   4.868697   6.184471   4.230655
    25  H    5.063559   3.398150   2.693745   4.209610   4.356908
    26  H    4.855750   2.348245   2.677779   3.781502   4.818372
                   21         22         23         24         25
    21  H    0.000000
    22  H    1.775915   0.000000
    23  H    2.461985   3.064397   0.000000
    24  H    2.510673   2.476284   1.774595   0.000000
    25  H    3.864958   2.720339   3.066895   2.430203   0.000000
    26  H    4.297433   3.825536   2.431996   2.560389   1.758950
                   26
    26  H    0.000000
 Stoichiometry    C10H14N2
 Framework group  C1[X(C10H14N2)]
 Deg. of freedom    72
 Full point group                 C1      NOp   1
 Largest Abelian subgroup         C1      NOp   1
 Largest concise Abelian subgroup C1      NOp   1
                         Standard orientation:                         
 ---------------------------------------------------------------------
 Center     Atomic      Atomic             Coordinates (Angstroms)
 Number     Number       Type             X           Y           Z
 ---------------------------------------------------------------------
      1          6           0       -3.405879   -1.289464    0.056990
      2          6           0       -2.069170   -0.598742    0.024740
      3          6           0       -1.963231    0.790408   -0.002280
      4          6           0       -0.694502    1.385730   -0.028840
      5          6           0       -0.552834    2.883610   -0.066540
      6          6           0        0.433599    0.564801   -0.022470
      7          6           0        0.215201   -0.834799   -0.003900
      8          7           0       -0.995739   -1.391031    0.019330
      9          7           0        1.277992   -1.703548    0.008410
     10          6           0        2.620551   -1.266676   -0.281890
     11          6           0        2.871559    0.074124    0.397540
     12          6           0        1.843958    1.110103   -0.058030
     13          1           0       -4.239030   -0.573985    0.038660
     14          1           0       -3.489528   -1.906764    0.964160
     15          1           0       -3.501208   -1.968114   -0.803770
     16          1           0       -2.861962    1.410697   -0.007070
     17          1           0       -0.049105    3.257750    0.839310
     18          1           0        0.054335    3.205891   -0.926800
     19          1           0       -1.531945    3.376158   -0.135650
     20          1           0        1.024353   -2.672698   -0.129190
     21          1           0        3.328502   -2.022745    0.089390
     22          1           0        2.797561   -1.165936   -1.372750
     23          1           0        2.797200   -0.067516    1.488020
     24          1           0        3.892229    0.422135    0.180220
     25          1           0        2.085618    1.443673   -1.084100
     26          1           0        1.921697    2.008943    0.573460
 ---------------------------------------------------------------------
 Rotational constants (GHZ):           1.4783997           0.8090816           0.5361105
 Standard basis: def2SVP (5D, 7F)
 There are   250 symmetry adapted cartesian basis functions of A   symmetry.
 There are   238 symmetry adapted basis functions of A   symmetry.
   238 basis functions,   398 primitive gaussians,   250 cartesian basis functions
    44 alpha electrons       44 beta electrons
       nuclear repulsion energy       701.8121460437 Hartrees.
 NAtoms=   26 NActive=   26 NUniq=   26 SFac= 1.00D+00 NAtFMM=   60 NAOKFM=F Big=F
 Integral buffers will be    131072 words long.
 Raffenetti 2 integral format.
 Two-electron integral symmetry is turned on.
 Nuclear repulsion after empirical dispersion term =      701.7951774637 Hartrees.
 One-electron integrals computed using PRISM.
   1 Symmetry operations used in ECPInt.
 ECPInt:  NShTT=    6555 NPrTT=   23203 LenC2=    6392 LenP2D=   17205.
 LDataN:  DoStor=T MaxTD1= 4 Len=   56
 NBasis=   238 RedAO= T EigKep=  4.87D-04  NBF=   238
 NBsUse=   238 1.00D-06 EigRej= -1.00D+00 NBFU=   238
 ExpMin= 1.22D-01 ExpMax= 1.71D+03 ExpMxC= 2.58D+02 IAcc=3 IRadAn=         5 AccDes= 0.00D+00
 Harris functional with IExCor= 4639 and IRadAn=       5 diagonalized for initial guess.
 HarFok:  IExCor= 4639 AccDes= 0.00D+00 IRadAn=         5 IDoV= 1 UseB2=F ITyADJ=14
 ICtDFT=  3500011 ScaDFX=  1.000000  1.000000  1.000000  1.000000
 FoFCou: FMM=F IPFlag=           0 FMFlag=      100000 FMFlg1=           0
         NFxFlg=           0 DoJE=T BraDBF=F KetDBF=T FulRan=T
         wScrn=  0.000000 ICntrl=       500 IOpCl=  0 I1Cent=   200000004 NGrid=           0
         NMat0=    1 NMatS0=      1 NMatT0=    0 NMatD0=    1 NMtDS0=    0 NMtDT0=    0
 Petite list used in FoFCou.
 Requested convergence on RMS density matrix=1.00D-08 within 128 cycles.
 Requested convergence on MAX density matrix=1.00D-06.
 Requested convergence on             energy=1.00D-06.
 No special actions if energy rises.
 Integral accuracy reduced to 1.0D-05 until final iterations.
 Initial convergence to 1.0D-05 achieved.  Increase integral accuracy.
 SCF Done:  E(RwB97XD) =  -498.517204463     A.U. after   15 cycles
            NFock= 15  Conv=0.88D-08     -V/T= 2.0115

 **********************************************************************

            Population analysis using the SCF Density.

 **********************************************************************

 Orbital symmetries:
       Occupied  (A) (A) (A) (A) (A) (A) (A) (A) (A) (A) (A) (A)
                 (A) (A) (A) (A) (A) (A) (A) (A) (A) (A) (A) (A)
                 (A) (A) (A) (A) (A) (A) (A) (A) (A) (A) (A) (A)
                 (A) (A) (A) (A) (A) (A) (A) (A)
       Virtual   (A) (A) (A) (A) (A) (A) (A) (A) (A) (A) (A) (A)
                 (A) (A) (A) (A) (A) (A) (A) (A) (A) (A) (A) (A)
                 (A) (A) (A) (A) (A) (A) (A) (A) (A) (A) (A) (A)
                 (A) (A) (A) (A) (A) (A) (A) (A) (A) (A) (A) (A)
                 (A) (A) (A) (A) (A) (A) (A) (A) (A) (A) (A) (A)
                 (A) (A) (A) (A) (A) (A) (A) (A) (A) (A) (A) (A)
                 (A) (A) (A) (A) (A) (A) (A) (A) (A) (A) (A) (A)
                 (A) (A) (A) (A) (A) (A) (A) (A) (A) (A) (A) (A)
                 (A) (A) (A) (A) (A) (A) (A) (A) (A) (A) (A) (A)
                 (A) (A) (A) (A) (A) (A) (A) (A) (A) (A) (A) (A)
                 (A) (A) (A) (A) (A) (A) (A) (A) (A) (A) (A) (A)
                 (A) (A) (A) (A) (A) (A) (A) (A) (A) (A) (A) (A)
                 (A) (A) (A) (A) (A) (A) (A) (A) (A) (A) (A) (A)
                 (A) (A) (A) (A) (A) (A) (A) (A) (A) (A) (A) (A)
                 (A) (A) (A) (A) (A) (A) (A) (A) (A) (A) (A) (A)
                 (A) (A) (A) (A) (A) (A) (A) (A) (A) (A) (A) (A)
                 (A) (A)
 The electronic state is 1-A.
 Alpha  occ. eigenvalues --  -14.44468 -14.40921 -10.35507 -10.33189 -10.32290
 Alpha  occ. eigenvalues --  -10.30867 -10.30240 -10.30055 -10.29784 -10.28933
 Alpha  occ. eigenvalues --  -10.28261 -10.27740  -1.05429  -0.99168  -0.91541
 Alpha  occ. eigenvalues --   -0.86915  -0.85807  -0.80072  -0.78476  -0.73967
 Alpha  occ. eigenvalues --   -0.71662  -0.67374  -0.64345  -0.60722  -0.57669
 Alpha  occ. eigenvalues --   -0.56687  -0.54663  -0.52843  -0.51686  -0.50955
 Alpha  occ. eigenvalues --   -0.49926  -0.49145  -0.48318  -0.46701  -0.46479
 Alpha  occ. eigenvalues --   -0.45944  -0.44580  -0.42455  -0.42171  -0.41215
 Alpha  occ. eigenvalues --   -0.36791  -0.32647  -0.32467  -0.26616
 Alpha virt. eigenvalues --    0.06142   0.08921   0.13146   0.15372   0.16452
 Alpha virt. eigenvalues --    0.16916   0.17494   0.18715   0.20007   0.20988
 Alpha virt. eigenvalues --    0.21610   0.21904   0.22494   0.23987   0.25200
 Alpha virt. eigenvalues --    0.25619   0.27645   0.28698   0.29840   0.30753
 Alpha virt. eigenvalues --    0.31409   0.32895   0.33425   0.35054   0.40020
 Alpha virt. eigenvalues --    0.40632   0.41200   0.44101   0.46661   0.48702
 Alpha virt. eigenvalues --    0.50482   0.50593   0.51376   0.51726   0.52872
 Alpha virt. eigenvalues --    0.54807   0.55347   0.56210   0.57908   0.58965
 Alpha virt. eigenvalues --    0.60907   0.63830   0.64801   0.65894   0.66934
 Alpha virt. eigenvalues --    0.68855   0.69869   0.70406   0.71294   0.72348
 Alpha virt. eigenvalues --    0.72799   0.73546   0.74241   0.74476   0.75202
 Alpha virt. eigenvalues --    0.75255   0.75985   0.76432   0.77570   0.78222
 Alpha virt. eigenvalues --    0.78901   0.79201   0.79519   0.80276   0.81591
 Alpha virt. eigenvalues --    0.82791   0.82836   0.83348   0.84794   0.86174
 Alpha virt. eigenvalues --    0.89007   0.90305   0.90866   0.92503   0.95181
 Alpha virt. eigenvalues --    0.96645   0.97876   1.02757   1.03765   1.06948
 Alpha virt. eigenvalues --    1.10921   1.14136   1.18900   1.20075   1.23185
 Alpha virt. eigenvalues --    1.24861   1.26176   1.28363   1.30409   1.31622
 Alpha virt. eigenvalues --    1.36318   1.38034   1.39061   1.40877   1.43225
 Alpha virt. eigenvalues --    1.44291   1.46387   1.47830   1.49989   1.54723
 Alpha virt. eigenvalues --    1.58397   1.61709   1.62842   1.63175   1.63675
 Alpha virt. eigenvalues --    1.66110   1.67531   1.70170   1.71406   1.77767
 Alpha virt. eigenvalues --    1.79240   1.80683   1.82146   1.83762   1.83789
 Alpha virt. eigenvalues --    1.85113   1.85354   1.87266   1.88962   1.89581
 Alpha virt. eigenvalues --    1.90067   1.90477   1.91508   1.91662   1.92284
 Alpha virt. eigenvalues --    1.94221   1.94919   1.96195   1.97758   1.99160
 Alpha virt. eigenvalues --    1.99560   2.00974   2.03148   2.04735   2.06233
 Alpha virt. eigenvalues --    2.07924   2.09277   2.12141   2.12469   2.13407
 Alpha virt. eigenvalues --    2.17948   2.18423   2.20613   2.21555   2.25599
 Alpha virt. eigenvalues --    2.27073   2.27968   2.29390   2.32697   2.34333
 Alpha virt. eigenvalues --    2.35935   2.37622   2.40313   2.44535   2.46317
 Alpha virt. eigenvalues --    2.48971   2.50485   2.53099   2.54523   2.55312
 Alpha virt. eigenvalues --    2.56359   2.60342   2.62458   2.64066   2.66894
 Alpha virt. eigenvalues --    2.67999   2.69018   2.70945   2.74126   2.76989
 Alpha virt. eigenvalues --    2.78892   2.81923   2.83180   2.86856   2.88090
 Alpha virt. eigenvalues --    2.91199   2.96185   2.97611   3.00172   3.01932
 Alpha virt. eigenvalues --    3.03336   3.04424   3.05499   3.06488   3.08843
 Alpha virt. eigenvalues --    3.09884   3.12473   3.14573   3.15757   3.23092
 Alpha virt. eigenvalues --    3.30655   3.39277   3.63888   3.70332
          Condensed to atoms (all electrons):
               1          2          3          4          5          6
     1  C    4.568201   0.406427  -0.089132   0.008760  -0.000287   0.000732
     2  C    0.406427   4.886742   0.477192  -0.004218   0.011246  -0.076115
     3  C   -0.089132   0.477192   5.018633   0.458103  -0.070364  -0.015088
     4  C    0.008760  -0.004218   0.458103   4.979925   0.415248   0.446004
     5  C   -0.000287   0.011246  -0.070364   0.415248   4.546213  -0.079582
     6  C    0.000732  -0.076115  -0.015088   0.446004  -0.079582   5.420687
     7  C    0.007362  -0.033165  -0.064794  -0.037530   0.010639   0.410356
     8  N   -0.078319   0.505525  -0.052230  -0.035733  -0.000160  -0.070926
     9  N   -0.000000   0.004070   0.000777   0.002427  -0.000082  -0.112887
    10  C    0.000005  -0.000283  -0.000110   0.001133   0.000001  -0.019206
    11  C    0.000001  -0.000075  -0.000188   0.010626   0.000349  -0.037886
    12  C    0.000048   0.001132   0.009577  -0.046440  -0.006578   0.318389
    13  H    0.382746  -0.013162  -0.009384   0.001833   0.000010  -0.000167
    14  H    0.374400  -0.010285   0.003847  -0.000535   0.000010   0.000205
    15  H    0.374136  -0.010878   0.004198  -0.000560   0.000011   0.000211
    16  H   -0.011253  -0.043316   0.416369  -0.053618  -0.015610   0.013950
    17  H    0.000009  -0.000451   0.001572  -0.007970   0.380220  -0.009428
    18  H    0.000009  -0.000421   0.003311  -0.003523   0.376718  -0.015365
    19  H   -0.000017   0.000676  -0.011795  -0.017045   0.386515   0.010547
    20  H   -0.000187   0.000129   0.000138  -0.000128   0.000012   0.016411
    21  H   -0.000000   0.000008   0.000002   0.000044   0.000000   0.000547
    22  H   -0.000000   0.000019  -0.000021  -0.000350  -0.000018   0.000194
    23  H    0.000000  -0.000009   0.000020  -0.000272  -0.000076  -0.005853
    24  H    0.000000  -0.000001   0.000004  -0.000471   0.000017   0.006182
    25  H   -0.000001   0.000051  -0.000177  -0.007004   0.001452  -0.008886
    26  H   -0.000001  -0.000037  -0.000072  -0.022355   0.013119   0.002751
               7          8          9         10         11         12
     1  C    0.007362  -0.078319  -0.000000   0.000005   0.000001   0.000048
     2  C   -0.033165   0.505525   0.004070  -0.000283  -0.000075   0.001132
     3  C   -0.064794  -0.052230   0.000777  -0.000110  -0.000188   0.009577
     4  C   -0.037530  -0.035733   0.002427   0.001133   0.010626  -0.046440
     5  C    0.010639  -0.000160  -0.000082   0.000001   0.000349  -0.006578
     6  C    0.410356  -0.070926  -0.112887  -0.019206  -0.037886   0.318389
     7  C    4.773765   0.586278   0.410322  -0.037517  -0.034743  -0.066015
     8  N    0.586278   6.372640  -0.095297   0.003482  -0.000415   0.004222
     9  N    0.410322  -0.095297   6.449962   0.347292  -0.046179  -0.014334
    10  C   -0.037517   0.003482   0.347292   4.525969   0.413948  -0.061248
    11  C   -0.034743  -0.000415  -0.046179   0.413948   4.666938   0.419713
    12  C   -0.066015   0.004222  -0.014334  -0.061248   0.419713   4.686523
    13  H   -0.000193   0.005039   0.000000  -0.000000   0.000000  -0.000003
    14  H    0.000167   0.001959  -0.000043  -0.000001   0.000000  -0.000003
    15  H    0.000092   0.002710  -0.000055   0.000001  -0.000000  -0.000002
    16  H    0.001109   0.005994   0.000036  -0.000002   0.000008  -0.000226
    17  H    0.000051   0.000033  -0.000001  -0.000002   0.000006   0.001814
    18  H   -0.000198   0.000030   0.000001  -0.000035   0.000308   0.007185
    19  H   -0.000245   0.000003   0.000003   0.000002  -0.000021   0.000183
    20  H   -0.004750   0.006360   0.332432  -0.021230   0.005725  -0.000316
    21  H    0.004742  -0.000138  -0.021495   0.378003  -0.006219   0.007834
    22  H    0.000294   0.000213  -0.042116   0.392794  -0.036776  -0.009353
    23  H   -0.000719  -0.000208   0.001135  -0.024228   0.381803  -0.024971
    24  H    0.002445   0.000023   0.004476  -0.016196   0.367590  -0.015267
    25  H   -0.003948  -0.000159   0.000033  -0.004914  -0.019681   0.367167
    26  H    0.006548  -0.000111   0.000193   0.008614  -0.019923   0.353394
              13         14         15         16         17         18
     1  C    0.382746   0.374400   0.374136  -0.011253   0.000009   0.000009
     2  C   -0.013162  -0.010285  -0.010878  -0.043316  -0.000451  -0.000421
     3  C   -0.009384   0.003847   0.004198   0.416369   0.001572   0.003311
     4  C    0.001833  -0.000535  -0.000560  -0.053618  -0.007970  -0.003523
     5  C    0.000010   0.000010   0.000011  -0.015610   0.380220   0.376718
     6  C   -0.000167   0.000205   0.000211   0.013950  -0.009428  -0.015365
     7  C   -0.000193   0.000167   0.000092   0.001109   0.000051  -0.000198
     8  N    0.005039   0.001959   0.002710   0.005994   0.000033   0.000030
     9  N    0.000000  -0.000043  -0.000055   0.000036  -0.000001   0.000001
    10  C   -0.000000  -0.000001   0.000001  -0.000002  -0.000002  -0.000035
    11  C    0.000000   0.000000  -0.000000   0.000008   0.000006   0.000308
    12  C   -0.000003  -0.000003  -0.000002  -0.000226   0.001814   0.007185
    13  H    0.649999  -0.019422  -0.019546   0.002832  -0.000001  -0.000001
    14  H   -0.019422   0.613956  -0.014473   0.000122   0.000000  -0.000000
    15  H   -0.019546  -0.014473   0.615501   0.000095  -0.000000  -0.000000
    16  H    0.002832   0.000122   0.000095   0.690348   0.000299   0.000290
    17  H   -0.000001   0.000000  -0.000000   0.000299   0.617937  -0.021083
    18  H   -0.000001  -0.000000  -0.000000   0.000290  -0.021083   0.626913
    19  H   -0.000000  -0.000000  -0.000000   0.006452  -0.018332  -0.020846
    20  H    0.000005   0.000053   0.000052  -0.000009  -0.000000  -0.000000
    21  H    0.000000   0.000000  -0.000000   0.000000   0.000000   0.000000
    22  H   -0.000000  -0.000000   0.000001   0.000000  -0.000001   0.000005
    23  H   -0.000000   0.000000   0.000000  -0.000000  -0.000014   0.000015
    24  H   -0.000000   0.000000  -0.000000  -0.000000  -0.000002   0.000002
    25  H    0.000000   0.000000  -0.000000   0.000003  -0.000908   0.002476
    26  H    0.000000  -0.000000   0.000000  -0.000013   0.003309  -0.003041
              19         20         21         22         23         24
     1  C   -0.000017  -0.000187  -0.000000  -0.000000   0.000000   0.000000
     2  C    0.000676   0.000129   0.000008   0.000019  -0.000009  -0.000001
     3  C   -0.011795   0.000138   0.000002  -0.000021   0.000020   0.000004
     4  C   -0.017045  -0.000128   0.000044  -0.000350  -0.000272  -0.000471
     5  C    0.386515   0.000012   0.000000  -0.000018  -0.000076   0.000017
     6  C    0.010547   0.016411   0.000547   0.000194  -0.005853   0.006182
     7  C   -0.000245  -0.004750   0.004742   0.000294  -0.000719   0.002445
     8  N    0.000003   0.006360  -0.000138   0.000213  -0.000208   0.000023
     9  N    0.000003   0.332432  -0.021495  -0.042116   0.001135   0.004476
    10  C    0.000002  -0.021230   0.378003   0.392794  -0.024228  -0.016196
    11  C   -0.000021   0.005725  -0.006219  -0.036776   0.381803   0.367590
    12  C    0.000183  -0.000316   0.007834  -0.009353  -0.024971  -0.015267
    13  H   -0.000000   0.000005   0.000000  -0.000000  -0.000000  -0.000000
    14  H   -0.000000   0.000053   0.000000  -0.000000   0.000000   0.000000
    15  H   -0.000000   0.000052  -0.000000   0.000001   0.000000  -0.000000
    16  H    0.006452  -0.000009   0.000000   0.000000  -0.000000  -0.000000
    17  H   -0.018332  -0.000000   0.000000  -0.000001  -0.000014  -0.000002
    18  H   -0.020846  -0.000000   0.000000   0.000005   0.000015   0.000002
    19  H    0.629452  -0.000000  -0.000000  -0.000000   0.000000   0.000000
    20  H   -0.000000   0.541247  -0.008126  -0.000443   0.000145  -0.000263
    21  H   -0.000000  -0.008126   0.663181  -0.036371  -0.010933  -0.004207
    22  H   -0.000000  -0.000443  -0.036371   0.698611   0.009144  -0.004299
    23  H    0.000000   0.000145  -0.010933   0.009144   0.655977  -0.022558
    24  H    0.000000  -0.000263  -0.004207  -0.004299  -0.022558   0.661935
    25  H   -0.000035   0.000016  -0.000115   0.003084   0.007248  -0.009687
    26  H   -0.000082   0.000060  -0.000337   0.000071  -0.010167  -0.002023
              25         26
     1  C   -0.000001  -0.000001
     2  C    0.000051  -0.000037
     3  C   -0.000177  -0.000072
     4  C   -0.007004  -0.022355
     5  C    0.001452   0.013119
     6  C   -0.008886   0.002751
     7  C   -0.003948   0.006548
     8  N   -0.000159  -0.000111
     9  N    0.000033   0.000193
    10  C   -0.004914   0.008614
    11  C   -0.019681  -0.019923
    12  C    0.367167   0.353394
    13  H    0.000000   0.000000
    14  H    0.000000  -0.000000
    15  H   -0.000000   0.000000
    16  H    0.000003  -0.000013
    17  H   -0.000908   0.003309
    18  H    0.002476  -0.003041
    19  H   -0.000035  -0.000082
    20  H    0.000016   0.000060
    21  H   -0.000115  -0.000337
    22  H    0.003084   0.000071
    23  H    0.007248  -0.010167
    24  H   -0.009687  -0.002023
    25  H    0.662416  -0.025758
    26  H   -0.025758   0.669030
 Mulliken charges:
               1
     1  C    0.056360
     2  C   -0.100801
     3  C   -0.080388
     4  C   -0.086352
     5  C    0.030978
     6  C   -0.195774
     7  C    0.069646
     8  N   -0.160815
     9  N   -0.220670
    10  C    0.113727
    11  C   -0.064908
    12  C    0.067576
    13  H    0.019414
    14  H    0.050044
    15  H    0.048506
    16  H   -0.013860
    17  H    0.052940
    18  H    0.047248
    19  H    0.034587
    20  H    0.132668
    21  H    0.033580
    22  H    0.025318
    23  H    0.044520
    24  H    0.032299
    25  H    0.037327
    26  H    0.026830
 Sum of Mulliken charges =  -0.00000
 Mulliken charges with hydrogens summed into heavy atoms:
               1
     1  C    0.174325
     2  C   -0.100801
     3  C   -0.094248
     4  C   -0.086352
     5  C    0.165753
     6  C   -0.195774
     7  C    0.069646
     8  N   -0.160815
     9  N   -0.088003
    10  C    0.172625
    11  C    0.011911
    12  C    0.131732
 Electronic spatial extent (au):  <R**2>=           2166.7435
 Charge=             -0.0000 electrons
 Dipole moment (field-independent basis, Debye):
    X=              1.7547    Y=              0.9936    Z=             -0.3828  Tot=              2.0525
 Quadrupole moment (field-independent basis, Debye-Ang):
   XX=            -65.1384   YY=            -68.1744   ZZ=            -74.1520
   XY=             -3.0377   XZ=             -0.6679   YZ=              0.8453
 Traceless Quadrupole moment (field-independent basis, Debye-Ang):
   XX=              4.0166   YY=              0.9805   ZZ=             -4.9971
   XY=             -3.0377   XZ=             -0.6679   YZ=              0.8453
 Octapole moment (field-independent basis, Debye-Ang**2):
  XXX=              3.9485  YYY=             -6.4225  ZZZ=             -0.0333  XYY=              8.3659
  XXY=             -6.0303  XXZ=             -0.7814  XZZ=              3.7358  YZZ=             -1.7199
  YYZ=             -1.7255  XYZ=              1.0077
 Hexadecapole moment (field-independent basis, Debye-Ang**3):
 XXXX=          -1748.3103 YYYY=           -960.8946 ZZZZ=           -121.5909 XXXY=            -15.9809
 XXXZ=             -2.8912 YYYX=            -34.6898 YYYZ=              6.3574 ZZZX=             -1.0741
 ZZZY=              0.1527 XXYY=           -450.2410 XXZZ=           -328.3858 YYZZ=           -187.6128
 XXYZ=             -1.0146 YYXZ=             -0.7193 ZZXY=              6.6681
 N-N= 7.017951774637D+02 E-N=-2.558112844649D+03  KE= 4.928286419206D+02
   1 Symmetry operations used in ECPInt.
 ECPInt:  NShTT=    6555 NPrTT=   23203 LenC2=    6392 LenP2D=   17205.
 LDataN:  DoStor=T MaxTD1= 5 Len=  102
 Calling FoFJK, ICntrl=      2127 FMM=F ISym2X=0 I1Cent= 0 IOpClX= 0 NMat=1 NMatS=1 NMatT=0.
 ***** Axes restored to original set *****
 -------------------------------------------------------------------
 Center     Atomic                   Forces (Hartrees/Bohr)
 Number     Number              X              Y              Z
 -------------------------------------------------------------------
      1        6           0.000005924   -0.000005386    0.000009607
      2        6           0.000004165   -0.000019958    0.000009277
      3        6          -0.000013286    0.000005342   -0.000007961
      4        6           0.000012303   -0.000004375    0.000005108
      5        6           0.000001707    0.000008106    0.000000277
      6        6          -0.000009000    0.000000272    0.000001391
      7        6           0.000000041   -0.000003025   -0.000005766
      8        7           0.000000223    0.000005774    0.000004725
      9        7          -0.000003047   -0.000009182    0.000009164
     10        6          -0.000001934   -0.000000272   -0.000009092
     11        6          -0.000002032    0.000008669    0.000003542
     12        6           0.000005592    0.000001981    0.000005303
     13        1          -0.000002445   -0.000001892   -0.000006016
     14        1           0.000001045    0.000004718   -0.000001679
     15        1          -0.000001073    0.000005212   -0.000005769
     16        1           0.000003870   -0.000002512    0.000002047
     17        1          -0.000001570   -0.000001247   -0.000002875
     18        1          -0.000003540   -0.000000788   -0.000000940
     19        1          -0.000000031   -0.000000292    0.000000388
     20        1           0.000000256    0.000009232   -0.000009621
     21        1           0.000001523    0.000003291    0.000005435
     22        1           0.000001092   -0.000003142    0.000003411
     23        1          -0.000000797    0.000001817   -0.000004690
     24        1          -0.000001872   -0.000000500    0.000000417
     25        1           0.000001694    0.000000983   -0.000003778
     26        1           0.000001195   -0.000002826   -0.000001907
 -------------------------------------------------------------------
 Cartesian Forces:  Max     0.000019958 RMS     0.000005409

 GradGradGradGradGradGradGradGradGradGradGradGradGradGradGradGradGradGrad
 Berny optimization.
 FormGI is forming the generalized inverse of G from B-inverse, IUseBI=4.
 Internal  Forces:  Max     0.000007582 RMS     0.000002629
 Search for a local minimum.
 Step number   1 out of a maximum of  152
 All quantities printed in internal units (Hartrees-Bohrs-Radians)
 Mixed Optimization -- En-DIIS/RFO-DIIS
 Second derivative matrix not updated -- first step.
 ITU=  0
     Eigenvalues ---    0.00648   0.00699   0.00700   0.00981   0.01355
     Eigenvalues ---    0.01527   0.01607   0.01633   0.01779   0.02072
     Eigenvalues ---    0.02121   0.02141   0.02437   0.03465   0.03519
     Eigenvalues ---    0.04660   0.05194   0.05776   0.06166   0.07088
     Eigenvalues ---    0.07107   0.07192   0.07417   0.07881   0.08046
     Eigenvalues ---    0.09058   0.09317   0.10461   0.12098   0.14805
     Eigenvalues ---    0.16000   0.16000   0.16000   0.16000   0.16000
     Eigenvalues ---    0.16000   0.16000   0.19130   0.19406   0.23516
     Eigenvalues ---    0.24260   0.24997   0.24999   0.25000   0.25000
     Eigenvalues ---    0.28684   0.28932   0.30431   0.31855   0.31862
     Eigenvalues ---    0.32631   0.33064   0.33445   0.33468   0.33545
     Eigenvalues ---    0.33553   0.33631   0.33648   0.33654   0.33677
     Eigenvalues ---    0.33865   0.33882   0.34581   0.37879   0.39330
     Eigenvalues ---    0.43717   0.44878   0.45773   0.46315   0.48831
     Eigenvalues ---    0.56387   0.57801
 RFO step:  Lambda=-1.62652448D-08 EMin= 6.48456222D-03
 Linear search not attempted -- first point.
 Iteration  1 RMS(Cart)=  0.00011607 RMS(Int)=  0.00000001
 Iteration  2 RMS(Cart)=  0.00000001 RMS(Int)=  0.00000000
 Variable       Old X    -DE/DX   Delta X   Delta X   Delta X     New X
                                 (Linear)    (Quad)   (Total)
    R1        2.84398  -0.00000   0.00000  -0.00001  -0.00001   2.84396
    R2        2.07559   0.00000   0.00000   0.00000   0.00000   2.07560
    R3        2.07957  -0.00000   0.00000  -0.00001  -0.00001   2.07956
    R4        2.07918   0.00000   0.00000   0.00000   0.00000   2.07918
    R5        2.63323   0.00001   0.00000   0.00002   0.00002   2.63325
    R6        2.52121  -0.00001   0.00000  -0.00001  -0.00001   2.52120
    R7        2.64885   0.00001   0.00000   0.00002   0.00002   2.64886
    R8        2.06361  -0.00000   0.00000  -0.00001  -0.00001   2.06360
    R9        2.84411   0.00001   0.00000   0.00002   0.00002   2.84413
   R10        2.63654  -0.00000   0.00000  -0.00001  -0.00001   2.63653
   R11        2.08238  -0.00000   0.00000  -0.00001  -0.00001   2.08237
   R12        2.08090  -0.00000   0.00000  -0.00000  -0.00000   2.08090
   R13        2.07529  -0.00000   0.00000  -0.00000  -0.00000   2.07529
   R14        2.67710   0.00000   0.00000   0.00000   0.00000   2.67710
   R15        2.85826   0.00001   0.00000   0.00001   0.00001   2.85827
   R16        2.51859  -0.00000   0.00000  -0.00001  -0.00001   2.51859
   R17        2.59409  -0.00000   0.00000  -0.00001  -0.00001   2.59409
   R18        2.72383   0.00000   0.00000   0.00000   0.00000   2.72383
   R19        1.91088  -0.00001   0.00000  -0.00002  -0.00002   1.91087
   R20        2.87982   0.00000   0.00000   0.00001   0.00001   2.87983
   R21        2.07929   0.00000   0.00000   0.00000   0.00000   2.07929
   R22        2.09705  -0.00000   0.00000  -0.00001  -0.00001   2.09704
   R23        2.88872  -0.00001   0.00000  -0.00003  -0.00003   2.88870
   R24        2.08276  -0.00000   0.00000  -0.00001  -0.00001   2.08275
   R25        2.07879  -0.00000   0.00000  -0.00001  -0.00001   2.07878
   R26        2.08940   0.00000   0.00000   0.00001   0.00001   2.08941
   R27        2.08105  -0.00000   0.00000  -0.00001  -0.00001   2.08104
    A1        1.95455   0.00000   0.00000   0.00000   0.00000   1.95456
    A2        1.92051   0.00000   0.00000   0.00002   0.00002   1.92053
    A3        1.92121  -0.00000   0.00000  -0.00003  -0.00003   1.92118
    A4        1.89811   0.00000   0.00000   0.00002   0.00002   1.89813
    A5        1.89971  -0.00000   0.00000  -0.00007  -0.00007   1.89965
    A6        1.86746   0.00001   0.00000   0.00006   0.00006   1.86752
    A7        2.12408  -0.00001   0.00000  -0.00002  -0.00002   2.12406
    A8        2.02879   0.00001   0.00000   0.00002   0.00002   2.02882
    A9        2.13030  -0.00000   0.00000  -0.00000  -0.00000   2.13030
   A10        2.08585  -0.00000   0.00000  -0.00000  -0.00000   2.08585
   A11        2.09877   0.00000   0.00000   0.00001   0.00001   2.09878
   A12        2.09855  -0.00000   0.00000  -0.00000  -0.00000   2.09855
   A13        2.10408  -0.00000   0.00000  -0.00000  -0.00000   2.10408
   A14        2.07358  -0.00000   0.00000  -0.00001  -0.00001   2.07358
   A15        2.10552   0.00000   0.00000   0.00001   0.00001   2.10553
   A16        1.93944  -0.00000   0.00000   0.00000   0.00000   1.93944
   A17        1.94202  -0.00000   0.00000  -0.00001  -0.00001   1.94201
   A18        1.94339   0.00000   0.00000   0.00000   0.00000   1.94339
   A19        1.86584   0.00000   0.00000   0.00001   0.00001   1.86585
   A20        1.88284  -0.00000   0.00000  -0.00000  -0.00000   1.88284
   A21        1.88722  -0.00000   0.00000  -0.00001  -0.00001   1.88721
   A22        2.04510   0.00000   0.00000   0.00000   0.00000   2.04510
   A23        2.14326  -0.00000   0.00000   0.00000   0.00000   2.14326
   A24        2.09467  -0.00000   0.00000  -0.00001  -0.00001   2.09467
   A25        2.15630   0.00000   0.00000   0.00000   0.00000   2.15630
   A26        2.10134   0.00000   0.00000   0.00001   0.00001   2.10135
   A27        2.02546  -0.00000   0.00000  -0.00002  -0.00002   2.02544
   A28        2.07516   0.00000   0.00000   0.00000   0.00000   2.07516
   A29        2.12646   0.00000   0.00000   0.00001   0.00001   2.12647
   A30        1.99449  -0.00000   0.00000  -0.00003  -0.00003   1.99446
   A31        2.09061  -0.00000   0.00000  -0.00002  -0.00002   2.09059
   A32        1.90741   0.00000   0.00000   0.00002   0.00002   1.90743
   A33        1.89977   0.00000   0.00000  -0.00001  -0.00001   1.89976
   A34        1.95419   0.00000   0.00000   0.00001   0.00001   1.95420
   A35        1.92639  -0.00000   0.00000  -0.00004  -0.00004   1.92635
   A36        1.90935   0.00000   0.00000   0.00002   0.00002   1.90936
   A37        1.86654   0.00000   0.00000   0.00000   0.00000   1.86654
   A38        1.93122   0.00000   0.00000   0.00001   0.00001   1.93124
   A39        1.89329   0.00000   0.00000  -0.00000  -0.00000   1.89329
   A40        1.92100  -0.00000   0.00000  -0.00001  -0.00001   1.92099
   A41        1.91411  -0.00000   0.00000  -0.00002  -0.00002   1.91409
   A42        1.92884   0.00000   0.00000   0.00001   0.00001   1.92885
   A43        1.87415   0.00000   0.00000   0.00000   0.00000   1.87415
   A44        1.95572  -0.00000   0.00000  -0.00002  -0.00002   1.95569
   A45        1.91175   0.00000   0.00000   0.00002   0.00002   1.91177
   A46        1.92474   0.00000   0.00000   0.00001   0.00001   1.92476
   A47        1.91145   0.00000   0.00000   0.00001   0.00001   1.91145
   A48        1.91219  -0.00000   0.00000  -0.00002  -0.00002   1.91217
   A49        1.84469   0.00000   0.00000   0.00001   0.00001   1.84470
    D1        0.01710   0.00000   0.00000  -0.00003  -0.00003   0.01707
    D2       -3.12098   0.00001   0.00000   0.00019   0.00019  -3.12079
    D3       -2.09625  -0.00000   0.00000  -0.00007  -0.00007  -2.09631
    D4        1.04886   0.00000   0.00000   0.00015   0.00015   1.04901
    D5        2.13296  -0.00001   0.00000  -0.00013  -0.00013   2.13283
    D6       -1.00512  -0.00000   0.00000   0.00009   0.00009  -1.00503
    D7        3.13918   0.00000   0.00000   0.00019   0.00019   3.13937
    D8       -0.00698   0.00000   0.00000   0.00020   0.00020  -0.00678
    D9       -0.00613  -0.00000   0.00000  -0.00004  -0.00004  -0.00617
   D10        3.13089   0.00000   0.00000  -0.00003  -0.00003   3.13087
   D11       -3.13737  -0.00000   0.00000  -0.00022  -0.00022  -3.13759
   D12        0.00775  -0.00000   0.00000  -0.00000  -0.00000   0.00775
   D13        3.13524  -0.00000   0.00000  -0.00004  -0.00004   3.13521
   D14       -0.00408   0.00000   0.00000   0.00005   0.00005  -0.00402
   D15       -0.00178  -0.00000   0.00000  -0.00005  -0.00005  -0.00183
   D16       -3.14110   0.00000   0.00000   0.00004   0.00004  -3.14106
   D17        2.03438   0.00000   0.00000   0.00023   0.00023   2.03460
   D18       -2.17178   0.00000   0.00000   0.00024   0.00024  -2.17155
   D19       -0.06504   0.00000   0.00000   0.00022   0.00022  -0.06482
   D20       -1.10953   0.00000   0.00000   0.00013   0.00013  -1.10940
   D21        0.96749   0.00000   0.00000   0.00014   0.00014   0.96764
   D22        3.07423   0.00000   0.00000   0.00013   0.00013   3.07436
   D23        0.01175  -0.00000   0.00000  -0.00003  -0.00003   0.01172
   D24        3.13481  -0.00000   0.00000  -0.00005  -0.00005   3.13476
   D25       -3.12757   0.00000   0.00000   0.00007   0.00007  -3.12751
   D26       -0.00450   0.00000   0.00000   0.00004   0.00004  -0.00446
   D27       -0.01063  -0.00000   0.00000  -0.00002  -0.00002  -0.01064
   D28       -3.13729   0.00000   0.00000   0.00004   0.00004  -3.13725
   D29       -3.13423  -0.00000   0.00000   0.00001   0.00001  -3.13422
   D30        0.02229   0.00000   0.00000   0.00006   0.00006   0.02235
   D31        2.82464  -0.00000   0.00000  -0.00010  -0.00010   2.82455
   D32       -1.33357  -0.00000   0.00000  -0.00009  -0.00009  -1.33366
   D33        0.68957   0.00000   0.00000  -0.00007  -0.00007   0.68951
   D34       -0.33598  -0.00000   0.00000  -0.00012  -0.00012  -0.33611
   D35        1.78899  -0.00000   0.00000  -0.00012  -0.00012   1.78887
   D36       -2.47105   0.00000   0.00000  -0.00009  -0.00009  -2.47115
   D37        0.00082   0.00000   0.00000   0.00003   0.00003   0.00085
   D38        3.12808  -0.00000   0.00000  -0.00002  -0.00002   3.12806
   D39       -0.23516   0.00000   0.00000   0.00007   0.00007  -0.23509
   D40       -2.97772   0.00000   0.00000   0.00018   0.00018  -2.97754
   D41        2.92028   0.00000   0.00000   0.00012   0.00012   2.92040
   D42        0.17772   0.00000   0.00000   0.00023   0.00023   0.17795
   D43        0.72628  -0.00000   0.00000  -0.00012  -0.00012   0.72615
   D44        2.83134  -0.00000   0.00000  -0.00017  -0.00017   2.83117
   D45       -1.39203  -0.00000   0.00000  -0.00016  -0.00016  -1.39219
   D46       -2.83566  -0.00000   0.00000  -0.00025  -0.00025  -2.83590
   D47       -0.73060  -0.00001   0.00000  -0.00029  -0.00029  -0.73089
   D48        1.32923  -0.00000   0.00000  -0.00029  -0.00029   1.32894
   D49       -1.00002  -0.00000   0.00000   0.00004   0.00004  -0.99999
   D50        1.10040  -0.00000   0.00000   0.00002   0.00002   1.10043
   D51       -3.13696  -0.00000   0.00000   0.00002   0.00002  -3.13693
   D52       -3.08875   0.00000   0.00000   0.00006   0.00006  -3.08869
   D53       -0.98832  -0.00000   0.00000   0.00004   0.00004  -0.98827
   D54        1.05751  -0.00000   0.00000   0.00004   0.00004   1.05755
   D55        1.14522   0.00000   0.00000   0.00007   0.00007   1.14529
   D56       -3.03753   0.00000   0.00000   0.00005   0.00005  -3.03748
   D57       -0.99171   0.00000   0.00000   0.00005   0.00005  -0.99165
   D58        0.81834   0.00000   0.00000   0.00007   0.00007   0.81841
   D59       -1.30681  -0.00000   0.00000   0.00006   0.00006  -1.30675
   D60        2.96054   0.00000   0.00000   0.00006   0.00006   2.96060
   D61       -1.26962   0.00000   0.00000   0.00007   0.00007  -1.26954
   D62        2.88842  -0.00000   0.00000   0.00006   0.00006   2.88848
   D63        0.87258   0.00000   0.00000   0.00006   0.00006   0.87264
   D64        2.95068   0.00000   0.00000   0.00008   0.00008   2.95076
   D65        0.82554  -0.00000   0.00000   0.00006   0.00006   0.82560
   D66       -1.19030   0.00000   0.00000   0.00006   0.00006  -1.19024
         Item               Value     Threshold  Converged?
 Maximum Force            0.000008     0.000450     YES
 RMS     Force            0.000003     0.000300     YES
 Maximum Displacement     0.000446     0.001800     YES
 RMS     Displacement     0.000116     0.001200     YES
 Predicted change in Energy=-8.132603D-09
 Optimization completed.
    -- Stationary point found.
                           ----------------------------
                           !   Optimized Parameters   !
                           ! (Angstroms and Degrees)  !
 --------------------------                            --------------------------
 ! Name  Definition              Value          Derivative Info.                !
 --------------------------------------------------------------------------------
 ! R1    R(1,2)                  1.505          -DE/DX =    0.0                 !
 ! R2    R(1,13)                 1.0984         -DE/DX =    0.0                 !
 ! R3    R(1,14)                 1.1005         -DE/DX =    0.0                 !
 ! R4    R(1,15)                 1.1003         -DE/DX =    0.0                 !
 ! R5    R(2,3)                  1.3934         -DE/DX =    0.0                 !
 ! R6    R(2,8)                  1.3342         -DE/DX =    0.0                 !
 ! R7    R(3,4)                  1.4017         -DE/DX =    0.0                 !
 ! R8    R(3,16)                 1.092          -DE/DX =    0.0                 !
 ! R9    R(4,5)                  1.505          -DE/DX =    0.0                 !
 ! R10   R(4,6)                  1.3952         -DE/DX =    0.0                 !
 ! R11   R(5,17)                 1.1019         -DE/DX =    0.0                 !
 ! R12   R(5,18)                 1.1012         -DE/DX =    0.0                 !
 ! R13   R(5,19)                 1.0982         -DE/DX =    0.0                 !
 ! R14   R(6,7)                  1.4167         -DE/DX =    0.0                 !
 ! R15   R(6,12)                 1.5125         -DE/DX =    0.0                 !
 ! R16   R(7,8)                  1.3328         -DE/DX =    0.0                 !
 ! R17   R(7,9)                  1.3727         -DE/DX =    0.0                 !
 ! R18   R(9,10)                 1.4414         -DE/DX =    0.0                 !
 ! R19   R(9,20)                 1.0112         -DE/DX =    0.0                 !
 ! R20   R(10,11)                1.5239         -DE/DX =    0.0                 !
 ! R21   R(10,21)                1.1003         -DE/DX =    0.0                 !
 ! R22   R(10,22)                1.1097         -DE/DX =    0.0                 !
 ! R23   R(11,12)                1.5286         -DE/DX =    0.0                 !
 ! R24   R(11,23)                1.1022         -DE/DX =    0.0                 !
 ! R25   R(11,24)                1.1            -DE/DX =    0.0                 !
 ! R26   R(12,25)                1.1057         -DE/DX =    0.0                 !
 ! R27   R(12,26)                1.1012         -DE/DX =    0.0                 !
 ! A1    A(2,1,13)             111.9877         -DE/DX =    0.0                 !
 ! A2    A(2,1,14)             110.0373         -DE/DX =    0.0                 !
 ! A3    A(2,1,15)             110.0771         -DE/DX =    0.0                 !
 ! A4    A(13,1,14)            108.7539         -DE/DX =    0.0                 !
 ! A5    A(13,1,15)            108.8456         -DE/DX =    0.0                 !
 ! A6    A(14,1,15)            106.9976         -DE/DX =    0.0                 !
 ! A7    A(1,2,3)              121.7011         -DE/DX =    0.0                 !
 ! A8    A(1,2,8)              116.2413         -DE/DX =    0.0                 !
 ! A9    A(3,2,8)              122.0573         -DE/DX =    0.0                 !
 ! A10   A(2,3,4)              119.5105         -DE/DX =    0.0                 !
 ! A11   A(2,3,16)             120.2508         -DE/DX =    0.0                 !
 ! A12   A(4,3,16)             120.2382         -DE/DX =    0.0                 !
 ! A13   A(3,4,5)              120.555          -DE/DX =    0.0                 !
 ! A14   A(3,4,6)              118.8074         -DE/DX =    0.0                 !
 ! A15   A(5,4,6)              120.6374         -DE/DX =    0.0                 !
 ! A16   A(4,5,17)             111.1217         -DE/DX =    0.0                 !
 ! A17   A(4,5,18)             111.2693         -DE/DX =    0.0                 !
 ! A18   A(4,5,19)             111.3478         -DE/DX =    0.0                 !
 ! A19   A(17,5,18)            106.9046         -DE/DX =    0.0                 !
 ! A20   A(17,5,19)            107.879          -DE/DX =    0.0                 !
 ! A21   A(18,5,19)            108.1296         -DE/DX =    0.0                 !
 ! A22   A(4,6,7)              117.1756         -DE/DX =    0.0                 !
 ! A23   A(4,6,12)             122.7999         -DE/DX =    0.0                 !
 ! A24   A(7,6,12)             120.016          -DE/DX =    0.0                 !
 ! A25   A(6,7,8)              123.5469         -DE/DX =    0.0                 !
 ! A26   A(6,7,9)              120.3978         -DE/DX =    0.0                 !
 ! A27   A(8,7,9)              116.0502         -DE/DX =    0.0                 !
 ! A28   A(2,8,7)              118.8977         -DE/DX =    0.0                 !
 ! A29   A(7,9,10)             121.8374         -DE/DX =    0.0                 !
 ! A30   A(7,9,20)             114.2757         -DE/DX =    0.0                 !
 ! A31   A(10,9,20)            119.7829         -DE/DX =    0.0                 !
 ! A32   A(9,10,11)            109.2865         -DE/DX =    0.0                 !
 ! A33   A(9,10,21)            108.8486         -DE/DX =    0.0                 !
 ! A34   A(9,10,22)            111.9669         -DE/DX =    0.0                 !
 ! A35   A(11,10,21)           110.3742         -DE/DX =    0.0                 !
 ! A36   A(11,10,22)           109.3976         -DE/DX =    0.0                 !
 ! A37   A(21,10,22)           106.9447         -DE/DX =    0.0                 !
 ! A38   A(10,11,12)           110.651          -DE/DX =    0.0                 !
 ! A39   A(10,11,23)           108.4778         -DE/DX =    0.0                 !
 ! A40   A(10,11,24)           110.0652         -DE/DX =    0.0                 !
 ! A41   A(12,11,23)           109.6702         -DE/DX =    0.0                 !
 ! A42   A(12,11,24)           110.5146         -DE/DX =    0.0                 !
 ! A43   A(23,11,24)           107.3807         -DE/DX =    0.0                 !
 ! A44   A(6,12,11)            112.0543         -DE/DX =    0.0                 !
 ! A45   A(6,12,25)            109.5353         -DE/DX =    0.0                 !
 ! A46   A(6,12,26)            110.2797         -DE/DX =    0.0                 !
 ! A47   A(11,12,25)           109.518          -DE/DX =    0.0                 !
 ! A48   A(11,12,26)           109.5604         -DE/DX =    0.0                 !
 ! A49   A(25,12,26)           105.693          -DE/DX =    0.0                 !
 ! D1    D(13,1,2,3)             0.9798         -DE/DX =    0.0                 !
 ! D2    D(13,1,2,8)          -178.8188         -DE/DX =    0.0                 !
 ! D3    D(14,1,2,3)          -120.1061         -DE/DX =    0.0                 !
 ! D4    D(14,1,2,8)            60.0952         -DE/DX =    0.0                 !
 ! D5    D(15,1,2,3)           122.2097         -DE/DX =    0.0                 !
 ! D6    D(15,1,2,8)           -57.5889         -DE/DX =    0.0                 !
 ! D7    D(1,2,3,4)            179.8617         -DE/DX =    0.0                 !
 ! D8    D(1,2,3,16)            -0.4            -DE/DX =    0.0                 !
 ! D9    D(8,2,3,4)             -0.3514         -DE/DX =    0.0                 !
 ! D10   D(8,2,3,16)           179.3869         -DE/DX =    0.0                 !
 ! D11   D(1,2,8,7)           -179.7581         -DE/DX =    0.0                 !
 ! D12   D(3,2,8,7)              0.4441         -DE/DX =    0.0                 !
 ! D13   D(2,3,4,5)            179.6363         -DE/DX =    0.0                 !
 ! D14   D(2,3,4,6)             -0.2335         -DE/DX =    0.0                 !
 ! D15   D(16,3,4,5)            -0.102          -DE/DX =    0.0                 !
 ! D16   D(16,3,4,6)          -179.9718         -DE/DX =    0.0                 !
 ! D17   D(3,4,5,17)           116.5613         -DE/DX =    0.0                 !
 ! D18   D(3,4,5,18)          -124.4341         -DE/DX =    0.0                 !
 ! D19   D(3,4,5,19)            -3.7268         -DE/DX =    0.0                 !
 ! D20   D(6,4,5,17)           -63.5713         -DE/DX =    0.0                 !
 ! D21   D(6,4,5,18)            55.4333         -DE/DX =    0.0                 !
 ! D22   D(6,4,5,19)           176.1406         -DE/DX =    0.0                 !
 ! D23   D(3,4,6,7)              0.673          -DE/DX =    0.0                 !
 ! D24   D(3,4,6,12)           179.6116         -DE/DX =    0.0                 !
 ! D25   D(5,4,6,7)           -179.1967         -DE/DX =    0.0                 !
 ! D26   D(5,4,6,12)            -0.2581         -DE/DX =    0.0                 !
 ! D27   D(4,6,7,8)             -0.6088         -DE/DX =    0.0                 !
 ! D28   D(4,6,7,9)           -179.7534         -DE/DX =    0.0                 !
 ! D29   D(12,6,7,8)          -179.5784         -DE/DX =    0.0                 !
 ! D30   D(12,6,7,9)             1.2771         -DE/DX =    0.0                 !
 ! D31   D(4,6,12,11)          161.8401         -DE/DX =    0.0                 !
 ! D32   D(4,6,12,25)          -76.4079         -DE/DX =    0.0                 !
 ! D33   D(4,6,12,26)           39.5096         -DE/DX =    0.0                 !
 ! D34   D(7,6,12,11)          -19.2504         -DE/DX =    0.0                 !
 ! D35   D(7,6,12,25)          102.5015         -DE/DX =    0.0                 !
 ! D36   D(7,6,12,26)         -141.581          -DE/DX =    0.0                 !
 ! D37   D(6,7,8,2)              0.0469         -DE/DX =    0.0                 !
 ! D38   D(9,7,8,2)            179.2256         -DE/DX =    0.0                 !
 ! D39   D(6,7,9,10)           -13.4736         -DE/DX =    0.0                 !
 ! D40   D(6,7,9,20)          -170.6109         -DE/DX =    0.0                 !
 ! D41   D(8,7,9,10)           167.32           -DE/DX =    0.0                 !
 ! D42   D(8,7,9,20)            10.1827         -DE/DX =    0.0                 !
 ! D43   D(7,9,10,11)           41.6125         -DE/DX =    0.0                 !
 ! D44   D(7,9,10,21)          162.2236         -DE/DX =    0.0                 !
 ! D45   D(7,9,10,22)          -79.7573         -DE/DX =    0.0                 !
 ! D46   D(20,9,10,11)        -162.4711         -DE/DX =    0.0                 !
 ! D47   D(20,9,10,21)         -41.8601         -DE/DX =    0.0                 !
 ! D48   D(20,9,10,22)          76.159          -DE/DX =    0.0                 !
 ! D49   D(9,10,11,12)         -57.2971         -DE/DX =    0.0                 !
 ! D50   D(9,10,11,23)          63.0485         -DE/DX =    0.0                 !
 ! D51   D(9,10,11,24)        -179.7343         -DE/DX =    0.0                 !
 ! D52   D(21,10,11,12)       -176.9721         -DE/DX =    0.0                 !
 ! D53   D(21,10,11,23)        -56.6264         -DE/DX =    0.0                 !
 ! D54   D(21,10,11,24)         60.5908         -DE/DX =    0.0                 !
 ! D55   D(22,10,11,12)         65.6166         -DE/DX =    0.0                 !
 ! D56   D(22,10,11,23)       -174.0378         -DE/DX =    0.0                 !
 ! D57   D(22,10,11,24)        -56.8206         -DE/DX =    0.0                 !
 ! D58   D(10,11,12,6)          46.8873         -DE/DX =    0.0                 !
 ! D59   D(10,11,12,25)        -74.8745         -DE/DX =    0.0                 !
 ! D60   D(10,11,12,26)        169.6265         -DE/DX =    0.0                 !
 ! D61   D(23,11,12,6)         -72.7438         -DE/DX =    0.0                 !
 ! D62   D(23,11,12,25)        165.4943         -DE/DX =    0.0                 !
 ! D63   D(23,11,12,26)         49.9954         -DE/DX =    0.0                 !
 ! D64   D(24,11,12,6)         169.0617         -DE/DX =    0.0                 !
 ! D65   D(24,11,12,25)         47.2999         -DE/DX =    0.0                 !
 ! D66   D(24,11,12,26)        -68.1991         -DE/DX =    0.0                 !
 --------------------------------------------------------------------------------
 GradGradGradGradGradGradGradGradGradGradGradGradGradGradGradGradGradGrad

                          Input orientation:                          
 ---------------------------------------------------------------------
 Center     Atomic      Atomic             Coordinates (Angstroms)
 Number     Number       Type             X           Y           Z
 ---------------------------------------------------------------------
      1          6           0       -3.405880   -1.289460    0.056990
      2          6           0       -2.069170   -0.598740    0.024740
      3          6           0       -1.963230    0.790410   -0.002280
      4          6           0       -0.694500    1.385730   -0.028840
      5          6           0       -0.552830    2.883610   -0.066540
      6          6           0        0.433600    0.564800   -0.022470
      7          6           0        0.215200   -0.834800   -0.003900
      8          7           0       -0.995740   -1.391030    0.019330
      9          7           0        1.277990   -1.703550    0.008410
     10          6           0        2.620550   -1.266680   -0.281890
     11          6           0        2.871560    0.074120    0.397540
     12          6           0        1.843960    1.110100   -0.058030
     13          1           0       -4.239030   -0.573980    0.038660
     14          1           0       -3.489530   -1.906760    0.964160
     15          1           0       -3.501210   -1.968110   -0.803770
     16          1           0       -2.861960    1.410700   -0.007070
     17          1           0       -0.049100    3.257750    0.839310
     18          1           0        0.054340    3.205890   -0.926800
     19          1           0       -1.531940    3.376160   -0.135650
     20          1           0        1.024350   -2.672700   -0.129190
     21          1           0        3.328500   -2.022750    0.089390
     22          1           0        2.797560   -1.165940   -1.372750
     23          1           0        2.797200   -0.067520    1.488020
     24          1           0        3.892230    0.422130    0.180220
     25          1           0        2.085620    1.443670   -1.084100
     26          1           0        1.921700    2.008940    0.573460
 ---------------------------------------------------------------------
                    Distance matrix (angstroms):
                    1          2          3          4          5
     1  C    0.000000
     2  C    1.504968   0.000000
     3  C    2.531918   1.393446   0.000000
     4  C    3.809933   2.414686   1.401709   0.000000
     5  C    5.056646   3.799261   2.524845   1.505037   0.000000
     6  C    4.264528   2.760419   2.407509   1.395198   2.520291
     7  C    3.650020   2.296713   2.717879   2.399777   3.797416
     8  N    2.412573   1.334168   2.386459   2.793468   4.298382
     9  N    4.702390   3.524819   4.089677   3.665482   4.939591
    10  C    6.035993   4.746961   5.031982   4.253101   5.228922
    11  C    6.432851   5.000253   4.903888   3.823468   4.453656
    12  C    5.773382   4.270781   3.820995   2.553547   2.981612
    13  H    1.098356   2.170046   2.653771   4.050767   5.055103
    14  H    1.100461   2.147289   3.246278   4.431561   5.712635
    15  H    1.100255   2.147636   3.258405   4.441439   5.725001
    16  H    2.755144   2.160411   1.092016   2.167713   2.739540
    17  H    5.705884   4.429077   3.234182   2.162102   1.101948
    18  H    5.757529   4.459813   3.280224   2.163348   1.101166
    19  H    5.031577   4.014246   2.624862   2.162065   1.098198
    20  H    4.644885   3.727582   4.575464   4.408556   5.776158
    21  H    6.774263   5.582726   5.993720   5.274111   6.257907
    22  H    6.367266   5.095072   5.326407   4.528973   5.415732
    23  H    6.482221   5.109299   5.061495   4.074895   4.727423
    24  H    7.497142   6.050177   5.869868   4.691516   5.087075
    25  H    6.239283   4.760593   4.241494   2.974222   3.173369
    26  H    6.287232   4.798764   4.112052   2.756022   2.701471
                    6          7          8          9         10
     6  C    0.000000
     7  C    1.416659   0.000000
     8  N    2.422815   1.332782   0.000000
     9  N    2.420611   1.372735   2.295133   0.000000
    10  C    2.864327   2.459575   3.630943   1.441387   0.000000
    11  C    2.522067   2.836113   4.152796   2.418884   1.523934
    12  C    1.512525   2.537405   3.784908   2.870777   2.510436
    13  H    4.809785   4.462063   3.344679   5.631550   6.901914
    14  H    4.740569   3.976338   2.716187   4.866621   6.268606
    15  H    4.744343   3.966848   2.699610   4.854934   6.183875
    16  H    3.402426   3.809356   3.366477   5.180538   6.107520
    17  H    2.868387   4.186863   4.814525   5.202505   5.371647
    18  H    2.817269   4.147866   4.809314   5.145341   5.196655
    19  H    3.432186   4.560925   4.799753   5.806885   6.230612
    20  H    3.292686   2.012038   2.396977   1.011197   2.132619
    21  H    3.884376   3.333551   4.370701   2.076785   1.100311
    22  H    3.225992   2.941426   4.046934   2.122668   1.109710
[...]
 Alpha virt. eigenvalues --    3.78927   3.80202   3.80719   3.83851   3.85622
 Alpha virt. eigenvalues --    3.86464   3.90054   3.91154   3.92051   3.94144
 Alpha virt. eigenvalues --    3.96105   3.99580   4.00312   4.01483   4.03500
 Alpha virt. eigenvalues --    4.04422   4.05643   4.07558   4.08116   4.12344
 Alpha virt. eigenvalues --    4.14486   4.18012   4.19590   4.20805   4.22429
 Alpha virt. eigenvalues --    4.24831   4.26173   4.28302   4.28589   4.33002
 Alpha virt. eigenvalues --    4.34529   4.36988   4.38163   4.40590   4.42161
 Alpha virt. eigenvalues --    4.43673   4.46235   4.47739   4.48962   4.50766
 Alpha virt. eigenvalues --    4.53369   4.54057   4.56226   4.58626   4.59197
 Alpha virt. eigenvalues --    4.61922   4.65565   4.69240   4.70910   4.72819
 Alpha virt. eigenvalues --    4.76679   4.80558   4.82028   4.88013   4.90349
 Alpha virt. eigenvalues --    4.91972   4.98535   4.99892   5.01057   5.07866
 Alpha virt. eigenvalues --    5.09485   5.13014   5.14018   5.19969   5.20079
 Alpha virt. eigenvalues --    5.23584   5.26976   5.30980   5.33590   5.34926
 Alpha virt. eigenvalues --    5.40817   5.42458   5.45959   5.48321   5.50567
 Alpha virt. eigenvalues --    5.53930   5.62652   5.65529   5.75201   5.80820
 Alpha virt. eigenvalues --    5.91524   5.99184   6.02301   6.15358   6.48372
 Alpha virt. eigenvalues --   22.48756  22.53158  22.55637  22.61621  22.68152
 Alpha virt. eigenvalues --   22.71643  22.99869  23.20129  23.38832  23.54060
 Alpha virt. eigenvalues --   32.59248  32.89049
          Condensed to atoms (all electrons):
               1          2          3          4          5          6
     1  C    4.920357   0.277100  -0.045762   0.019230  -0.000366  -0.001265
     2  C    0.277100   4.786540   0.506076  -0.026081   0.011377  -0.049616
     3  C   -0.045762   0.506076   5.218174   0.462646  -0.051732  -0.021833
     4  C    0.019230  -0.026081   0.462646   5.093751   0.250261   0.359716
     5  C   -0.000366   0.011377  -0.051732   0.250261   4.993717  -0.066158
     6  C   -0.001265  -0.049616  -0.021833   0.359716  -0.066158   5.685040
     7  C   -0.000498  -0.069929  -0.080691  -0.027919   0.011348   0.296114
     8  N   -0.033890   0.519685  -0.102691  -0.000556  -0.000031  -0.114492
     9  N   -0.000743  -0.001452   0.003210  -0.003163  -0.000481  -0.095913
    10  C    0.000051   0.000363  -0.000575  -0.000703   0.000140  -0.020847
    11  C   -0.000023  -0.000612  -0.000210   0.000368  -0.000146  -0.038682
    12  C    0.000000  -0.002860   0.013580  -0.048981  -0.004848   0.234648
    13  H    0.439198  -0.087800   0.014034   0.003550  -0.000115   0.000723
    14  H    0.401004  -0.030528  -0.001618  -0.001779  -0.000004   0.001190
    15  H    0.404828  -0.032036  -0.002866  -0.000981   0.000016   0.000673
    16  H   -0.008840  -0.014631   0.380206  -0.039979  -0.008978   0.010850
    17  H    0.000002  -0.000797  -0.002529  -0.051330   0.432779  -0.002460
    18  H    0.000009  -0.000453  -0.001885  -0.036479   0.412793  -0.010167
    19  H   -0.000076   0.002130  -0.003534  -0.053653   0.417650   0.009817
    20  H    0.000060   0.000390   0.000678  -0.001026   0.000026   0.023978
    21  H   -0.000003  -0.000019   0.000033  -0.000073  -0.000005  -0.000671
    22  H    0.000004   0.000375  -0.000480   0.001950   0.000031   0.000537
    23  H    0.000004   0.000153  -0.000085   0.002973   0.000023  -0.005310
    24  H    0.000000   0.000013  -0.000021  -0.000426   0.000050   0.011068
    25  H   -0.000003   0.000064   0.001121   0.006523  -0.003914  -0.059489
    26  H    0.000003   0.000310  -0.000009  -0.004438   0.007629  -0.046935
               7          8          9         10         11         12
     1  C   -0.000498  -0.033890  -0.000743   0.000051  -0.000023   0.000000
     2  C   -0.069929   0.519685  -0.001452   0.000363  -0.000612  -0.002860
     3  C   -0.080691  -0.102691   0.003210  -0.000575  -0.000210   0.013580
     4  C   -0.027919  -0.000556  -0.003163  -0.000703   0.000368  -0.048981
     5  C    0.011348  -0.000031  -0.000481   0.000140  -0.000146  -0.004848
     6  C    0.296114  -0.114492  -0.095913  -0.020847  -0.038682   0.234648
     7  C    4.725047   0.600176   0.426677  -0.004036  -0.004775  -0.037737
     8  N    0.600176   6.542051  -0.106553   0.005575   0.000009   0.005071
     9  N    0.426677  -0.106553   6.559404   0.284101  -0.050592  -0.000453
    10  C   -0.004036   0.005575   0.284101   4.794387   0.315540  -0.038574
    11  C   -0.004775   0.000009  -0.050592   0.315540   4.907247   0.346650
    12  C   -0.037737   0.005071  -0.000453  -0.038574   0.346650   4.986411
    13  H   -0.000320   0.003253   0.000001  -0.000001   0.000000  -0.000010
    14  H    0.000212   0.001420  -0.000105  -0.000008   0.000005  -0.000002
    15  H   -0.000130   0.001638  -0.000137   0.000007  -0.000006   0.000004
    16  H    0.002774   0.007863   0.000117  -0.000016   0.000034  -0.000282
    17  H    0.001251   0.000120   0.000007   0.000035  -0.000171  -0.009514
    18  H    0.000377   0.000142  -0.000011  -0.000136   0.000665   0.002976
    19  H   -0.000443  -0.000037   0.000010   0.000005  -0.000008  -0.000076
    20  H   -0.047530   0.007487   0.366025  -0.036860   0.006676  -0.000818
    21  H    0.004673  -0.000169  -0.031428   0.402784  -0.019353   0.010746
    22  H    0.005022   0.000541  -0.061098   0.440195  -0.063989  -0.011032
    23  H   -0.004496  -0.000374   0.008068  -0.035016   0.407695  -0.033182
    24  H    0.002130   0.000044   0.004727  -0.032136   0.419828  -0.048946
    25  H   -0.014344  -0.000283   0.001711  -0.008600  -0.019828   0.431670
    26  H    0.000962  -0.000271  -0.000666   0.011703  -0.034670   0.414345
              13         14         15         16         17         18
     1  C    0.439198   0.401004   0.404828  -0.008840   0.000002   0.000009
     2  C   -0.087800  -0.030528  -0.032036  -0.014631  -0.000797  -0.000453
     3  C    0.014034  -0.001618  -0.002866   0.380206  -0.002529  -0.001885
     4  C    0.003550  -0.001779  -0.000981  -0.039979  -0.051330  -0.036479
     5  C   -0.000115  -0.000004   0.000016  -0.008978   0.432779   0.412793
     6  C    0.000723   0.001190   0.000673   0.010850  -0.002460  -0.010167
     7  C   -0.000320   0.000212  -0.000130   0.002774   0.001251   0.000377
     8  N    0.003253   0.001420   0.001638   0.007863   0.000120   0.000142
     9  N    0.000001  -0.000105  -0.000137   0.000117   0.000007  -0.000011
    10  C   -0.000001  -0.000008   0.000007  -0.000016   0.000035  -0.000136
    11  C    0.000000   0.000005  -0.000006   0.000034  -0.000171   0.000665
    12  C   -0.000010  -0.000002   0.000004  -0.000282  -0.009514   0.002976
    13  H    0.559862  -0.022202  -0.022366   0.000103  -0.000001  -0.000001
    14  H   -0.022202   0.552079  -0.025201   0.000045   0.000001  -0.000001
    15  H   -0.022366  -0.025201   0.552245  -0.000150  -0.000001   0.000000
    16  H    0.000103   0.000045  -0.000150   0.559034   0.000219   0.000177
    17  H   -0.000001   0.000001  -0.000001   0.000219   0.546074  -0.034677
    18  H   -0.000001  -0.000001   0.000000   0.000177  -0.034677   0.556883
    19  H    0.000043   0.000001   0.000001   0.003722  -0.018896  -0.019854
    20  H    0.000012   0.000054   0.000035  -0.000019  -0.000001  -0.000002
    21  H    0.000000   0.000000  -0.000000   0.000000   0.000000   0.000000
    22  H   -0.000000  -0.000001   0.000002  -0.000002  -0.000004   0.000010
    23  H    0.000000  -0.000000   0.000000  -0.000004  -0.000001   0.000009
    24  H   -0.000000  -0.000000  -0.000000  -0.000000  -0.000014   0.000010
    25  H    0.000000   0.000001  -0.000002  -0.000003  -0.000619   0.003004
    26  H    0.000000  -0.000001   0.000001  -0.000054   0.003678  -0.005868
              19         20         21         22         23         24
     1  C   -0.000076   0.000060  -0.000003   0.000004   0.000004   0.000000
     2  C    0.002130   0.000390  -0.000019   0.000375   0.000153   0.000013
     3  C   -0.003534   0.000678   0.000033  -0.000480  -0.000085  -0.000021
     4  C   -0.053653  -0.001026  -0.000073   0.001950   0.002973  -0.000426
     5  C    0.417650   0.000026  -0.000005   0.000031   0.000023   0.000050
     6  C    0.009817   0.023978  -0.000671   0.000537  -0.005310   0.011068
     7  C   -0.000443  -0.047530   0.004673   0.005022  -0.004496   0.002130
     8  N   -0.000037   0.007487  -0.000169   0.000541  -0.000374   0.000044
     9  N    0.000010   0.366025  -0.031428  -0.061098   0.008068   0.004727
    10  C    0.000005  -0.036860   0.402784   0.440195  -0.035016  -0.032136
    11  C   -0.000008   0.006676  -0.019353  -0.063989   0.407695   0.419828
    12  C   -0.000076  -0.000818   0.010746  -0.011032  -0.033182  -0.048946
    13  H    0.000043   0.000012   0.000000  -0.000000   0.000000  -0.000000
    14  H    0.000001   0.000054   0.000000  -0.000001  -0.000000  -0.000000
    15  H    0.000001   0.000035  -0.000000   0.000002   0.000000  -0.000000
    16  H    0.003722  -0.000019   0.000000  -0.000002  -0.000004  -0.000000
    17  H   -0.018896  -0.000001   0.000000  -0.000004  -0.000001  -0.000014
    18  H   -0.019854  -0.000002   0.000000   0.000010   0.000009   0.000010
    19  H    0.536568  -0.000000   0.000000  -0.000001  -0.000001  -0.000001
    20  H   -0.000000   0.460954  -0.006153  -0.000863   0.000111  -0.000357
    21  H    0.000000  -0.006153   0.580743  -0.041193  -0.008390  -0.004221
    22  H   -0.000001  -0.000863  -0.041193   0.632854   0.009005  -0.000266
    23  H   -0.000001   0.000111  -0.008390   0.009005   0.581806  -0.023230
    24  H   -0.000001  -0.000357  -0.004221  -0.000266  -0.023230   0.572578
    25  H   -0.000006   0.000054   0.000084   0.000145   0.005471  -0.006743
    26  H    0.000289   0.000087  -0.000357   0.000423  -0.005608  -0.002502
              25         26
     1  C   -0.000003   0.000003
     2  C    0.000064   0.000310
     3  C    0.001121  -0.000009
     4  C    0.006523  -0.004438
     5  C   -0.003914   0.007629
     6  C   -0.059489  -0.046935
     7  C   -0.014344   0.000962
     8  N   -0.000283  -0.000271
     9  N    0.001711  -0.000666
    10  C   -0.008600   0.011703
    11  C   -0.019828  -0.034670
    12  C    0.431670   0.414345
    13  H    0.000000   0.000000
    14  H    0.000001  -0.000001
    15  H   -0.000002   0.000001
    16  H   -0.000003  -0.000054
    17  H   -0.000619   0.003678
    18  H    0.003004  -0.005868
    19  H   -0.000006   0.000289
    20  H    0.000054   0.000087
    21  H    0.000084  -0.000357
    22  H    0.000145   0.000423
    23  H    0.005471  -0.005608
    24  H   -0.006743  -0.002502
    25  H    0.588273  -0.035565
    26  H   -0.035565   0.585707
 Mulliken charges:
               1
     1  C   -0.370381
     2  C    0.212236
     3  C   -0.283236
     4  C    0.096602
     5  C   -0.401062
     6  C   -0.100517
     7  C    0.216084
     8  N   -0.335726
     9  N   -0.301259
    10  C   -0.077379
    11  C   -0.171653
    12  C   -0.208789
    13  H    0.112037
    14  H    0.125438
    15  H    0.124427
    16  H    0.107812
    17  H    0.136849
    18  H    0.132478
    19  H    0.126351
    20  H    0.227003
    21  H    0.112970
    22  H    0.087834
    23  H    0.100380
    24  H    0.108414
    25  H    0.111277
    26  H    0.111808
 Sum of Mulliken charges =  -0.00000
 Mulliken charges with hydrogens summed into heavy atoms:
               1
     1  C   -0.008479
     2  C    0.212236
     3  C   -0.175423
     4  C    0.096602
     5  C   -0.005385
     6  C   -0.100517
     7  C    0.216084
     8  N   -0.335726
     9  N   -0.074256
    10  C    0.123426
    11  C    0.037142
    12  C    0.014296
 Electronic spatial extent (au):  <R**2>=           2167.6286
 Charge=              0.0000 electrons
 Dipole moment (field-independent basis, Debye):
    X=              1.8030    Y=              1.1033    Z=             -0.3812  Tot=              2.1479
 Quadrupole moment (field-independent basis, Debye-Ang):
   XX=            -65.2281   YY=            -68.9664   ZZ=            -74.4607
   XY=             -3.2458   XZ=             -0.6157   YZ=              0.8883
 Traceless Quadrupole moment (field-independent basis, Debye-Ang):
   XX=              4.3236   YY=              0.5854   ZZ=             -4.9090
   XY=             -3.2458   XZ=             -0.6157   YZ=              0.8883
 Octapole moment (field-independent basis, Debye-Ang**2):
  XXX=              4.4327  YYY=             -5.8525  ZZZ=             -0.1102  XYY=              8.8064
  XXY=             -5.2914  XXZ=             -0.6647  XZZ=              4.3835  YZZ=             -1.3376
  YYZ=             -1.7866  XYZ=              1.0433
 Hexadecapole moment (field-independent basis, Debye-Ang**3):
 XXXX=          -1758.6807 YYYY=           -982.1901 ZZZZ=           -125.8505 XXXY=            -19.2040
 XXXZ=             -2.1855 YYYX=            -39.2350 YYYZ=              6.9794 ZZZX=             -1.2184
 ZZZY=              0.3692 XXYY=           -455.2826 XXZZ=           -332.3143 YYZZ=           -191.0286
 XXYZ=             -1.3797 YYXZ=             -0.2747 ZZXY=              7.6593
 N-N= 7.017951774637D+02 E-N=-2.562513144988D+03  KE= 4.962168902154D+02
 Breneman (CHELPG) radii used.
 Read replacement radii for each type of atom:
 Atom Element Radius
    1     6    1.50
    2     6    1.50
    3     6    1.50
    4     6    1.50
    5     6    1.50
    6     6    1.50
    7     6    1.50
    8     7    1.70
    9     7    1.70
   10     6    1.50
   11     6    1.50
   12     6    1.50
   13     1    1.45
   14     1    1.45
   15     1    1.45
   16     1    1.45
   17     1    1.45
   18     1    1.45
   19     1    1.45
   20     1    1.45
   21     1    1.45
   22     1    1.45
   23     1    1.45
   24     1    1.45
   25     1    1.45
   26     1    1.45
 Generate Potential Derived Charges using the Breneman model, NDens= 1.
 Grid spacing= 0.300 Box extension= 2.800
 NStep X,Y,Z=   47     40     30   Total possible points=       56400
 Number of Points to Fit=   15692

 **********************************************************************

            Electrostatic Properties Using The SCF Density.

 **********************************************************************

       Atomic Center    1 is at  -3.405879 -1.289464  0.056990
       Atomic Center    2 is at  -2.069170 -0.598742  0.024740
       Atomic Center    3 is at  -1.963231  0.790408 -0.002280
       Atomic Center    4 is at  -0.694502  1.385730 -0.028840
       Atomic Center    5 is at  -0.552834  2.883610 -0.066540
       Atomic Center    6 is at   0.433599  0.564801 -0.022470
       Atomic Center    7 is at   0.215201 -0.834799 -0.003900
       Atomic Center    8 is at  -0.995739 -1.391031  0.019330
       Atomic Center    9 is at   1.277992 -1.703548  0.008410
       Atomic Center   10 is at   2.620551 -1.266676 -0.281890
       Atomic Center   11 is at   2.871559  0.074124  0.397540
       Atomic Center   12 is at   1.843958  1.110103 -0.058030
       Atomic Center   13 is at  -4.239030 -0.573985  0.038660
       Atomic Center   14 is at  -3.489528 -1.906764  0.964160
       Atomic Center   15 is at  -3.501208 -1.968114 -0.803770
       Atomic Center   16 is at  -2.861962  1.410697 -0.007070
       Atomic Center   17 is at  -0.049105  3.257750  0.839310
       Atomic Center   18 is at   0.054335  3.205891 -0.926800
       Atomic Center   19 is at  -1.531945  3.376158 -0.135650
       Atomic Center   20 is at   1.024353 -2.672698 -0.129190
       Atomic Center   21 is at   3.328502 -2.022745  0.089390
       Atomic Center   22 is at   2.797561 -1.165936 -1.372750
       Atomic Center   23 is at   2.797200 -0.067516  1.488020
       Atomic Center   24 is at   3.892229  0.422135  0.180220
       Atomic Center   25 is at   2.085618  1.443673 -1.084100
       Atomic Center   26 is at   1.921697  2.008943  0.573460
   15692 points will be used for fitting atomic charges
 Fitting point charges to electrostatic potential
 Charges from ESP fit, RMS=   0.00281 RRMS=   0.23565:
 ESP charges:
               1
     1  C   -0.386100
     2  C    0.648747
     3  C   -0.630936
     4  C    0.370849
     5  C   -0.235781
     6  C   -0.458673
     7  C    0.710623
     8  N   -0.763703
     9  N   -0.673964
    10  C    0.295894
    11  C   -0.173928
    12  C    0.317587
    13  H    0.083490
    14  H    0.107807
    15  H    0.105677
    16  H    0.184936
    17  H    0.071429
    18  H    0.054169
    19  H    0.076529
    20  H    0.335447
    21  H    0.006144
    22  H   -0.031625
    23  H    0.047351
    24  H    0.011826
    25  H   -0.033697
    26  H   -0.040095
 Sum of ESP charges =   0.00000
 ESP charges with hydrogens summed into heavy atoms:
               1
     1  C   -0.089126
     2  C    0.648747
     3  C   -0.446001
     4  C    0.370849
     5  C   -0.033654
     6  C   -0.458673
     7  C    0.710623
     8  N   -0.763703
     9  N   -0.338518
    10  C    0.270413
    11  C   -0.114751
    12  C    0.243794
 Charge=   0.00000 Dipole=     1.7215     1.1163    -0.3667 Tot=     2.0843
 -----------------------------------------------------------------

              Electrostatic Properties (Atomic Units)

 -----------------------------------------------------------------
    Center     Electric         -------- Electric Field --------
               Potential          X             Y             Z
 -----------------------------------------------------------------
    1 Atom    -14.785092
    2 Atom    -14.744963
    3 Atom    -14.792864
    4 Atom    -14.759180
    5 Atom    -14.769938
    6 Atom    -14.776230
    7 Atom    -14.713064
    8 Atom    -18.427427
    9 Atom    -18.383671
   10 Atom    -14.732442
   11 Atom    -14.764990
   12 Atom    -14.762571
   13 Atom     -1.127108
   14 Atom     -1.125948
   15 Atom     -1.126134
   16 Atom     -1.118054
   17 Atom     -1.111197
   18 Atom     -1.112643
   19 Atom     -1.116660
   20 Atom     -1.043382
   21 Atom     -1.114361
   22 Atom     -1.124232
   23 Atom     -1.124480
   24 Atom     -1.118710
   25 Atom     -1.120574
   26 Atom     -1.119826
 -----------------------------------------------------------------
 Unable to Open any file for archive entry.
 1\1\GINC-NOTCH418\SP\RwB97XD\def2TZVP\C10H14N2\U6053008\12-Jul-2024\0\
 \#N Guess=Read Geom=Check Integral(Ultrafine) Density Pop=(ChelpG,Read
 Radii) NMR wB97XD def2TZVP\\12378181_1\\0,1\C,0,-3.40588,-1.28946,0.05
 699\C,0,-2.06917,-0.59874,0.02474\C,0,-1.96323,0.79041,-0.00228\C,0,-0
 .6945,1.38573,-0.02884\C,0,-0.55283,2.88361,-0.06654\C,0,0.4336,0.5648
 ,-0.02247\C,0,0.2152,-0.8348,-0.0039\N,0,-0.99574,-1.39103,0.01933\N,0
 ,1.27799,-1.70355,0.00841\C,0,2.62055,-1.26668,-0.28189\C,0,2.87156,0.
 07412,0.39754\C,0,1.84396,1.1101,-0.05803\H,0,-4.23903,-0.57398,0.0386
 6\H,0,-3.48953,-1.90676,0.96416\H,0,-3.50121,-1.96811,-0.80377\H,0,-2.
 86196,1.4107,-0.00707\H,0,-0.0491,3.25775,0.83931\H,0,0.05434,3.20589,
 -0.9268\H,0,-1.53194,3.37616,-0.13565\H,0,1.02435,-2.6727,-0.12919\H,0
 ,3.3285,-2.02275,0.08939\H,0,2.79756,-1.16594,-1.37275\H,0,2.7972,-0.0
 6752,1.48802\H,0,3.89223,0.42213,0.18022\H,0,2.08562,1.44367,-1.0841\H
 ,0,1.9217,2.00894,0.57346\\Version=ES64L-G16RevC.01\State=1-A\HF=-499.
 0427595\RMSD=1.500e-09\Dipole=0.7093748,0.4340645,-0.1499861\Quadrupol
 e=3.2144911,0.4352106,-3.6497018,-2.4131612,-0.4577542,0.6604522\PG=C0
 1 [X(C10H14N2)]\\@
 The archive entry for this job was punched.


     "IF I COULD JUST GET IT ON PAPER"
 LIFE AND INK, THEY RUN OUT AT THE SAME TIME,
 OR SO SAID MY OLD FRIEND THE SQUID.
     -- JIMMY BUFFETT, 1981
 Job cpu time:       0 days  0 hours 52 minutes 52.4 seconds.
 Elapsed time:       0 days  0 hours  3 minutes 28.5 seconds.
 File lengths (MBytes):  RWF=    134 Int=      0 D2E=      0 Chk=     20 Scr=      2
 Normal termination of Gaussian 16 at Fri Jul 12 13:30:12 2024.
